Title
82271
    1SAPS     N    1   3.266   0.742  10.906 -0.0637 -0.2623 -0.2904
    1SAPS   HN1    2   3.354   0.787  10.938 -0.6571  0.0801  0.9089
    1SAPS   HN2    3   3.257   0.768  10.806  2.1372 -0.3069 -0.5402
    1SAPS   HN3    4   3.185   0.778  10.960 -2.3098 -3.6530 -1.0672
    1SAPS   C12    5   3.257   0.599  10.940  0.0404  0.0798  0.3276
    1SAPS  H12A    6   3.261   0.586  11.048 -0.8206  0.7814  0.4598
    1SAPS   C13    7   3.126   0.524  10.909 -0.2247  0.0409  0.3981
    1SAPS  O13A    8   3.023   0.578  10.864  0.1408  0.6226 -0.3144
    1SAPS  O13B    9   3.127   0.398  10.931  0.0619  0.3905  0.6650
    1SAPS   C11   10   3.368   0.524  10.856 -0.6420 -0.3879  0.1132
    1SAPS  H11A   11   3.336   0.540  10.751 -0.4076 -2.0478 -0.2535
    1SAPS  H11B   12   3.355   0.414  10.871 -1.8481 -0.1851  0.7005
    1SAPS     P   13   3.628   0.497  10.812  0.1420  0.0229 -0.1531
    1SAPS   O13   14   3.755   0.552  10.854 -0.2507 -0.2228 -0.2256
    1SAPS   O14   15   3.610   0.348  10.839  0.0891 -0.1617  0.3891
    1SAPS   O12   16   3.505   0.570  10.884 -0.3128  0.1987  0.4524
    1SAPS   O11   17   3.614   0.518  10.657 -0.0411 -0.0150  0.3688
    1SAPS    C1   18   3.599   0.658  10.606 -0.1904 -0.3074 -0.5040
    1SAPS    HA   19   3.506   0.705  10.645  0.1301 -0.9818  1.1459
    1SAPS    HB   20   3.687   0.718  10.637 -0.2203 -0.9339  0.8951
    1SAPS    C2   21   3.600   0.672  10.452 -0.0916  0.3327  0.3388
    1SAPS    HS   22   3.571   0.775  10.422 -2.0181  0.2647  1.7348
    1SAPS   O21   23   3.503   0.576  10.403 -0.8016 -0.1824 -0.3558
    1SAPS   C21   24   3.371   0.603  10.415 -0.9836  0.0264  0.0727
    1SAPS   O22   25   3.325   0.706  10.458 -0.0198 -0.5350  0.0631
    1SAPS   C22   26   3.294   0.477  10.393 -0.6117 -0.3956 -0.2045
    1SAPS   H2R   27   3.354   0.398  10.342  0.5033 -0.5100  1.2135
    1SAPS   H2S   28   3.277   0.429  10.492  0.6086  0.7214  0.5841
    1SAPS    C3   29   3.741   0.627  10.402  0.7097 -0.5634 -0.3505
    1SAPS    HX   30   3.758   0.538  10.466 -2.7910 -0.8555  0.4272
    1SAPS    HY   31   3.820   0.702  10.424  0.4579  0.2320 -2.0135
    1SAPS   O31   32   3.723   0.616  10.256 -0.2328  0.1971  0.3947
    1SAPS   C31   33   3.744   0.492  10.215  0.4250 -0.4162  0.0730
    1SAPS   O32   34   3.781   0.397  10.279 -0.7441  0.1412 -0.5170
    1SAPS   C32   35   3.750   0.493  10.062  0.2256 -0.8889  0.3512
    1SAPS   H2X   36   3.829   0.565  10.031 -0.9077  0.2573  0.0552
    1SAPS   H2Y   37   3.663   0.551  10.024  1.2389 -0.0823 -0.8235
    1SAPS   C23   38   3.166   0.496  10.315  0.2719 -0.2680  0.1431
    1SAPS   H3R   39   3.105   0.577  10.361  3.1087  3.8127 -2.5591
    1SAPS   H3S   40   3.096   0.410  10.305  0.8200 -0.5950 -1.0250
    1SAPS   C24   41   3.191   0.559  10.172  0.5460  0.3941 -0.1014
    1SAPS   H4R   42   3.271   0.634  10.183  0.1092  0.7701  0.6272
    1SAPS   H4S   43   3.107   0.618  10.130  1.2430  2.1902  0.9263
    1SAPS   C25   44   3.232   0.447  10.069  0.7240 -0.3125  0.5063
    1SAPS   H5R   45   3.226   0.344  10.106  1.0190 -0.2405  0.7551
    1SAPS   C26   46   3.291   0.473   9.951  0.2781  0.8073 -0.3639
    1SAPS   H6R   47   3.326   0.392   9.886 -2.0218 -1.1686  0.7042
    1SAPS   C27   48   3.319   0.608   9.895 -0.1236 -1.0912 -0.6686
    1SAPS   H7R   49   3.424   0.633   9.924 -0.3614  0.7637 -1.2341
    1SAPS   H7S   50   3.257   0.688   9.941  0.3038 -1.5397  0.7237
    1SAPS   C28   51   3.306   0.593   9.746  0.0989 -0.6683  0.8247
    1SAPS   H8R   52   3.210   0.547   9.719  0.3623 -0.7251 -0.0454
    1SAPS   C29   53   3.382   0.642   9.645  1.7000 -0.4219 -0.5580
    1SAPS   H9R   54   3.350   0.630   9.540 -0.1430  1.1227 -0.2238
    1SAPS  C210   55   3.504   0.723   9.667 -0.2015  0.0605  0.0595
    1SAPS  H10R   56   3.596   0.662   9.660 -0.5606 -0.4287 -0.4838
    1SAPS  H10S   57   3.515   0.762   9.770  2.2641  0.3297 -0.2282
    1SAPS  C211   58   3.524   0.832   9.569 -0.6964  0.2031  0.1336
    1SAPS  H11R   59   3.515   0.936   9.602 -0.1278  0.6472 -1.0390
    1SAPS  C212   60   3.564   0.811   9.440  0.2515 -0.7292 -0.1430
    1SAPS  H12R   61   3.563   0.901   9.376  0.2643  0.1843  1.0866
    1SAPS  C213   62   3.585   0.686   9.358 -0.2173  0.3647 -0.3882
    1SAPS  H13R   63   3.494   0.626   9.378  0.3870 -0.3656  0.2693
    1SAPS  H13S   64   3.664   0.615   9.389  0.4292  1.6965  1.2050
    1SAPS  C214   65   3.589   0.707   9.206  0.0998 -0.4019 -0.9940
    1SAPS  H14R   66   3.513   0.771   9.160 -1.3781 -2.1845 -1.1547
    1SAPS  C215   67   3.664   0.632   9.120 -0.5821 -0.6109  0.0103
    1SAPS  H15R   68   3.658   0.648   9.011  2.5783 -0.8272 -0.2692
    1SAPS  C216   69   3.756   0.518   9.164  0.0229  0.3127 -0.5383
    1SAPS  H16R   70   3.761   0.453   9.074 -2.3674  1.0795 -1.2813
    1SAPS  H16S   71   3.718   0.461   9.251 -0.3539  0.4339 -0.6230
    1SAPS  C217   72   3.896   0.575   9.189  0.1006 -0.4279  0.3826
    1SAPS  H17R   73   3.890   0.633   9.283 -0.1042 -0.6166  0.4850
    1SAPS  H17S   74   3.921   0.641   9.103 -3.0175  1.0840  0.5022
    1SAPS  C218   75   3.998   0.460   9.208  0.0840 -0.1751 -0.7168
    1SAPS  H18R   76   4.006   0.401   9.114  0.6061 -1.3928  0.0775
    1SAPS  H18S   77   3.956   0.389   9.282 -1.0520 -1.1375 -2.2120
    1SAPS  C219   78   4.145   0.490   9.233  0.3026  0.1453 -0.2552
    1SAPS  H19R   79   4.147   0.554   9.324 -3.2982  0.9082 -0.5898
    1SAPS  H19S   80   4.180   0.552   9.149  0.6307 -0.6926 -0.7512
    1SAPS  C220   81   4.229   0.361   9.242 -0.5031  0.4068  0.3108
    1SAPS  H20R   82   4.244   0.332   9.349 -2.7043  0.0308  0.5700
    1SAPS  H20S   83   4.323   0.367   9.183 -1.0382  1.6374 -0.4487
    1SAPS  H20T   84   4.172   0.273   9.205 -1.4188  0.6736  1.0463
    1SAPS   C33   85   3.766   0.351  10.014 -0.0098  0.5036 -0.1858
    1SAPS   H3X   86   3.681   0.285  10.042  1.6398 -2.2018 -1.2240
    1SAPS   H3Y   87   3.858   0.308  10.057 -1.1893 -1.6045  0.3618
    1SAPS   C34   88   3.770   0.330   9.863 -0.3391  0.7024 -0.6935
    1SAPS   H4X   89   3.840   0.245   9.848 -0.4541 -0.1317  2.6895
    1SAPS   H4Y   90   3.797   0.428   9.818  0.5228  3.0264  4.2108
    1SAPS   C35   91   3.635   0.284   9.794  0.0895 -0.5126 -0.3037
    1SAPS   H5X   92   3.569   0.373   9.808  0.5155  0.0273 -1.5677
    1SAPS   H5Y   93   3.593   0.196   9.848 -0.3079 -0.6384 -0.8089
    1SAPS   C36   94   3.636   0.265   9.645 -0.6199  0.7872  0.3612
    1SAPS   H6X   95   3.689   0.170   9.624 -3.4421 -0.9241  0.4557
    1SAPS   H6Y   96   3.699   0.345   9.599  1.8280 -0.1033  1.9290
    1SAPS   C37   97   3.495   0.250   9.578  0.6066  0.1014 -1.0546
    1SAPS   H7X   98   3.421   0.321   9.619  0.1008 -1.0592  0.1181
    1SAPS   H7Y   99   3.456   0.148   9.598 -0.8566  0.7855 -0.3495
    1SAPS   C38  100   3.476   0.256   9.427 -0.8059 -0.9344  0.3502
    1SAPS   H8X  101   3.538   0.177   9.381  0.5752 -0.4461  1.3139
    1SAPS   H8Y  102   3.515   0.357   9.401 -2.0007 -0.3875  0.5857
    1SAPS   C39  103   3.333   0.246   9.374  0.1553  0.4909  0.2898
    1SAPS   H9X  104   3.268   0.300   9.445 -0.8783  0.5282 -0.6672
    1SAPS   H9Y  105   3.298   0.141   9.367  1.2432  0.2192 -1.6930
    1SAPS  C310  106   3.314   0.316   9.239 -0.0463  0.1046  0.0751
    1SAPS  H10X  107   3.340   0.423   9.256  1.9023 -0.2275 -0.6286
    1SAPS  H10Y  108   3.210   0.305   9.202  0.2900 -1.0013 -0.5844
    1SAPS  C311  109   3.400   0.268   9.126  0.0420  0.1468  0.7275
    1SAPS  H11X  110   3.376   0.161   9.105 -0.8343  0.3813  0.5077
    1SAPS  H11Y  111   3.505   0.281   9.160  0.3898 -1.1915  0.2272
    1SAPS  C312  112   3.395   0.350   8.988  0.5496 -0.0597  0.4156
    1SAPS  H12X  113   3.477   0.314   8.922  1.6094  2.8757 -0.0038
    1SAPS  H12Y  114   3.420   0.457   9.005 -0.7196  0.6094 -1.5343
    1SAPS  C313  115   3.258   0.342   8.915  0.6266 -0.3774 -0.1405
    1SAPS  H13X  116   3.254   0.407   8.825  1.4984  1.2976  0.9758
    1SAPS  H13Y  117   3.184   0.395   8.979 -1.0038 -0.7035 -1.6819
    1SAPS  C314  118   3.199   0.203   8.880 -0.0064 -0.9034 -0.4028
    1SAPS  H14X  119   3.204   0.140   8.971 -2.8021 -0.4754  0.1169
    1SAPS  H14Y  120   3.259   0.166   8.794  0.4210  1.5785 -1.2761
    1SAPS  C315  121   3.045   0.210   8.842 -0.3466  0.0366  0.4755
    1SAPS  H15X  122   3.039   0.247   8.738 -2.2162 -1.5360 -0.0331
    1SAPS  H15Y  123   2.992   0.285   8.905 -1.2144 -0.3319  0.1996
    1SAPS  C316  124   2.969   0.080   8.846  0.2210 -0.8305 -0.4709
    1SAPS  H16X  125   2.861   0.101   8.829  0.7346  0.8132 -1.9879
    1SAPS  H16Y  126   2.984   0.033   8.946 -1.2484  0.5690  0.4505
    1SAPS  C317  127   3.017  -0.021   8.745  0.3419 -0.0555 -0.0819
    1SAPS  H17X  128   3.126  -0.038   8.748  0.5869  1.2738 -0.7151
    1SAPS  H17Y  129   2.992   0.011   8.641  2.5274  3.2048  0.2464
    1SAPS  C318  130   2.945  -0.155   8.768  0.6007  1.1298  0.6562
    1SAPS  H18X  131   2.851  -0.157   8.709  1.5929 -2.2373 -1.0910
    1SAPS  H18Y  132   2.915  -0.178   8.872 -1.4601 -0.5116 -0.2315
    1SAPS  H18Z  133   3.011  -0.238   8.734 -0.5748  1.2358 -2.1761
    2SAPS     N  134   1.867   6.449  11.084 -0.0186  0.3659 -0.1283
    2SAPS   HN1  135   1.888   6.387  11.165  0.0158  1.4220  0.6993
    2SAPS   HN2  136   1.877   6.395  10.996 -0.8013 -0.6194  0.3686
    2SAPS   HN3  137   1.924   6.536  11.077 -1.9348  1.6299 -0.6514
    2SAPS   C12  138   1.718   6.487  11.083  0.3840  0.9522  0.8069
    2SAPS  H12A  139   1.668   6.395  11.056  2.8278 -0.8281  1.9740
    2SAPS   C13  140   1.660   6.535  11.214 -0.1824 -0.4254  0.1114
    2SAPS  O13A  141   1.730   6.548  11.317  0.4954  0.0910  0.4766
    2SAPS  O13B  142   1.532   6.557  11.206 -0.8332  0.1374 -0.0595
    2SAPS   C11  143   1.692   6.602  10.974 -0.2025 -0.2879  0.6782
    2SAPS  H11A  144   1.771   6.680  10.984 -0.8435  0.2588  1.6706
    2SAPS  H11B  145   1.591   6.648  10.982 -0.6087 -1.0110 -0.2421
    2SAPS     P  146   1.589   6.514  10.748 -0.1206 -0.2278  0.3786
    2SAPS   O13  147   1.477   6.455  10.826  0.2941 -0.9511  0.0375
    2SAPS   O14  148   1.559   6.644  10.688 -0.4818  0.0302  0.6129
    2SAPS   O12  149   1.709   6.535  10.848  0.0786  0.1291 -0.1702
    2SAPS   O11  150   1.641   6.409  10.644 -0.4313  0.0658  0.3012
    2SAPS    C1  151   1.769   6.410  10.585  0.0538 -1.1092 -0.1444
    2SAPS    HA  152   1.828   6.498  10.618 -0.6365  0.4731 -2.8431
    2SAPS    HB  153   1.820   6.320  10.626  0.1268 -1.3493 -0.7593
    2SAPS    C2  154   1.763   6.403  10.436 -0.2854  0.0758 -0.2539
    2SAPS    HS  155   1.696   6.317  10.415  0.4060 -1.1964  2.3342
    2SAPS   O21  156   1.904   6.396  10.394 -0.6488 -0.2782 -0.1228
    2SAPS   C21  157   1.957   6.275  10.403  0.1017  0.1837 -0.3045
    2SAPS   O22  158   1.894   6.180  10.449  0.6330  0.0382  0.7752
    2SAPS   C22  159   2.096   6.273  10.347 -0.3222 -0.2043  0.4072
    2SAPS   H2R  160   2.155   6.346  10.408  2.3164 -1.1328 -0.8747
    2SAPS   H2S  161   2.154   6.181  10.368 -2.1906 -1.2081  1.3857
    2SAPS    C3  162   1.699   6.532  10.369  0.2844 -0.1093 -0.1017
    2SAPS    HX  163   1.764   6.621  10.381 -0.6806  0.3955  1.6685
    2SAPS    HY  164   1.603   6.557  10.418  0.2934 -1.0156  0.3946
    2SAPS   O31  165   1.664   6.502  10.235  0.4360  0.1721  0.7232
    2SAPS   C31  166   1.703   6.595  10.139 -0.3400  0.1910 -0.5674
    2SAPS   O32  167   1.752   6.703  10.157 -0.0406 -0.2464 -0.2418
    2SAPS   C32  168   1.669   6.548  10.000  0.2592 -0.4019 -0.0828
    2SAPS   H2X  169   1.590   6.616   9.961  0.1944  0.2320  1.1095
    2SAPS   H2Y  170   1.633   6.445  10.019 -1.2663  0.4948  2.3569
    2SAPS   C23  171   2.110   6.303  10.191 -0.6645 -0.0338  0.0780
    2SAPS   H3R  172   2.055   6.392  10.155 -1.7684 -0.4188  0.7537
    2SAPS   H3S  173   2.068   6.218  10.133 -0.1200  0.0738 -0.4810
    2SAPS   C24  174   2.257   6.333  10.158 -0.0882 -0.1244  0.4689
    2SAPS   H4R  175   2.314   6.246  10.197  1.2514 -1.0353 -3.1849
    2SAPS   H4S  176   2.283   6.429  10.208 -1.3605 -0.4046  1.7286
    2SAPS   C25  177   2.288   6.351  10.017  0.4548 -0.2978 -0.3137
    2SAPS   H5R  178   2.312   6.456   9.994 -0.8711 -0.4185 -2.5690
    2SAPS   C26  179   2.294   6.250   9.933 -0.3052  0.0427  0.2517
    2SAPS   H6R  180   2.298   6.273   9.825 -0.6008  0.6316  0.3637
    2SAPS   C27  181   2.261   6.109   9.956 -0.8818  0.2660  0.4056
    2SAPS   H7R  182   2.166   6.096   9.901 -1.7211  0.6757  1.7102
    2SAPS   H7S  183   2.226   6.073  10.055  3.1488  1.1833  2.3913
    2SAPS   C28  184   2.388   6.036   9.919  0.7398  0.3450  0.6264
    2SAPS   H8R  185   2.456   6.038  10.004  1.2732 -1.5435  0.2948
    2SAPS   C29  186   2.425   5.986   9.801 -0.5465 -0.3068 -0.4441
    2SAPS   H9R  187   2.513   5.920   9.802  0.1879  0.6275  1.4573
    2SAPS  C210  188   2.346   5.987   9.671 -0.2492  0.0805  0.1342
    2SAPS  H10R  189   2.263   6.060   9.669 -0.0756  0.2859  0.4645
    2SAPS  H10S  190   2.302   5.886   9.653 -1.4308  0.8701 -1.8647
    2SAPS  C211  191   2.445   6.002   9.557  0.1937 -0.0693  0.2028
    2SAPS  H11R  192   2.504   5.913   9.533  0.5638 -0.3541  1.9953
    2SAPS  C212  193   2.471   6.113   9.486  0.5622  0.0688  0.0703
    2SAPS  H12R  194   2.540   6.116   9.400 -0.5876 -1.8079 -0.9865
    2SAPS  C213  195   2.404   6.245   9.513 -0.2261 -0.0071  0.8502
    2SAPS  H13R  196   2.432   6.283   9.613 -2.1430  1.6782  0.8160
    2SAPS  H13S  197   2.294   6.238   9.529 -0.3732  0.3129  0.0625
    2SAPS  C214  198   2.426   6.358   9.412  0.6100 -0.4735  0.0163
    2SAPS  H14R  199   2.425   6.319   9.309  0.8273 -2.3137  0.6673
    2SAPS  C215  200   2.429   6.495   9.444  0.5116  0.0361 -0.2966
    2SAPS  H15R  201   2.434   6.576   9.370 -1.7737  2.0881  1.6342
    2SAPS  C216  202   2.415   6.560   9.577 -0.8908  0.6956 -0.1820
    2SAPS  H16R  203   2.503   6.627   9.587 -0.7264  0.2042  2.0255
    2SAPS  H16S  204   2.425   6.489   9.661 -1.0878 -0.3083 -0.9873
    2SAPS  C217  205   2.281   6.621   9.607 -1.1017 -0.6263 -0.0322
    2SAPS  H17R  206   2.215   6.537   9.577  0.6671 -1.2334 -2.5112
    2SAPS  H17S  207   2.257   6.706   9.539 -2.2608 -1.1209 -0.2639
    2SAPS  C218  208   2.262   6.665   9.753 -0.3047  0.3094  0.9450
    2SAPS  H18R  209   2.344   6.737   9.770  0.0825 -0.0771  0.7540
    2SAPS  H18S  210   2.299   6.582   9.817 -0.9303 -0.9676 -0.2748
    2SAPS  C219  211   2.128   6.712   9.811 -0.3734 -0.7656 -0.4185
    2SAPS  H19R  212   2.067   6.619   9.810  0.7686 -1.5592 -2.6089
    2SAPS  H19S  213   2.072   6.778   9.743  0.1443  0.1797  0.0504
    2SAPS  C220  214   2.147   6.776   9.947  0.6852  0.1864 -0.6339
    2SAPS  H20R  215   2.191   6.705  10.020 -1.2869 -2.2607 -1.6383
    2SAPS  H20S  216   2.047   6.810   9.982  0.1384 -2.3920  0.5525
    2SAPS  H20T  217   2.208   6.867   9.937 -1.3493  1.6729 -0.2146
    2SAPS   C33  218   1.796   6.538   9.910  0.0467  0.4037 -0.3620
    2SAPS   H3X  219   1.889   6.495   9.952  2.2474  4.0017 -1.0821
    2SAPS   H3Y  220   1.815   6.645   9.889 -0.3832  0.3428 -1.0834
    2SAPS   C34  221   1.763   6.453   9.788  0.5708  0.0834  0.0529
    2SAPS   H4X  222   1.671   6.499   9.746 -0.4199 -0.1221  1.9069
    2SAPS   H4Y  223   1.746   6.347   9.817 -3.6435  0.9418  1.4151
    2SAPS   C35  224   1.866   6.461   9.684  0.2782  0.1148  1.3074
    2SAPS   H5X  225   1.964   6.426   9.724 -0.1067 -0.6870  1.5756
    2SAPS   H5Y  226   1.879   6.567   9.656 -0.3289 -0.5959 -2.0104
    2SAPS   C36  227   1.840   6.386   9.551  0.7308  0.3909  0.3527
    2SAPS   H6X  228   1.755   6.428   9.494  2.5358  0.4539 -2.5096
    2SAPS   H6Y  229   1.814   6.284   9.584  0.5836  0.1147 -0.5824
    2SAPS   C37  230   1.960   6.383   9.456  0.6214 -0.8645 -0.9125
    2SAPS   H7X  231   2.037   6.311   9.493 -0.9732 -1.8852  0.5723
    2SAPS   H7Y  232   1.997   6.487   9.444 -1.0229  0.1194  1.6773
    2SAPS   C38  233   1.908   6.353   9.310  0.3327  0.0751 -0.1436
    2SAPS   H8X  234   1.816   6.411   9.285  1.9315  2.3214 -1.1053
    2SAPS   H8Y  235   1.876   6.248   9.294 -3.9360  0.9933  0.8687
    2SAPS   C39  236   2.006   6.387   9.196 -0.4935 -0.0484 -0.3473
    2SAPS   H9X  237   2.099   6.330   9.220 -1.1750 -1.1692 -0.2704
    2SAPS   H9Y  238   2.027   6.496   9.203  0.4646 -0.2590  0.3886
    2SAPS  C310  239   1.961   6.355   9.047 -0.5510 -0.1474 -0.7800
    2SAPS  H10X  240   1.873   6.416   9.019 -0.2734  0.4898 -0.3088
    2SAPS  H10Y  241   1.923   6.251   9.043 -2.1289  0.2952  1.2421
    2SAPS  C311  242   2.079   6.380   8.946 -0.0621 -0.9614  0.1695
    2SAPS  H11X  243   2.172   6.348   8.997  0.8367 -0.0571 -0.8581
    2SAPS  H11Y  244   2.089   6.487   8.920  1.4469 -0.8111  1.2845
    2SAPS  C312  245   2.049   6.303   8.815 -0.1778 -0.2913  0.3624
    2SAPS  H12X  246   1.951   6.336   8.775  0.9353  0.0610 -2.2618
    2SAPS  H12Y  247   2.039   6.193   8.827  2.7730 -1.0875 -2.9434
    2SAPS  C313  248   2.142   6.334   8.694 -0.1060 -0.3435 -1.2675
    2SAPS  H13X  249   2.128   6.264   8.610  2.3658 -0.7986 -1.3699
    2SAPS  H13Y  250   2.247   6.332   8.730 -0.4993 -0.9437 -0.1148
    2SAPS  C314  251   2.117   6.472   8.632  0.3542  0.9204  0.8161
    2SAPS  H14X  252   2.128   6.546   8.715 -2.0983  1.9900  0.2736
    2SAPS  H14Y  253   2.014   6.480   8.591  0.9831  2.0345 -0.6135
    2SAPS  C315  254   2.215   6.505   8.529  0.0955 -0.4421  0.5334
    2SAPS  H15X  255   2.320   6.512   8.565  1.0868  0.6424 -2.2228
    2SAPS  H15Y  256   2.193   6.605   8.487 -0.5154 -0.0990  1.6500
    2SAPS  C316  257   2.214   6.418   8.404  1.2730  0.1252  0.0746
    2SAPS  H16X  258   2.109   6.410   8.370  0.8349 -2.9173  1.7341
    2SAPS  H16Y  259   2.245   6.312   8.421 -0.8927 -0.3829  1.2103
    2SAPS  C317  260   2.292   6.471   8.283 -0.6767 -0.1988 -1.1459
    2SAPS  H17X  261   2.294   6.391   8.206  2.9259 -0.4177 -0.9997
    2SAPS  H17Y  262   2.400   6.484   8.306 -1.0017  0.2702  0.2237
    2SAPS  C318  263   2.236   6.600   8.215  0.3683 -0.0921 -0.4455
    2SAPS  H18X  264   2.312   6.643   8.146  0.3490  0.4469 -0.1343
    2SAPS  H18Y  265   2.219   6.683   8.286 -2.5863 -0.6643 -0.3395
    2SAPS  H18Z  266   2.144   6.564   8.164  0.2517 -0.1642 -0.1903
    3SAPS     N  267   3.501   1.183  11.391  0.1713 -0.4778  0.5128
    3SAPS   HN1  268   3.539   1.210  11.484 -1.4971 -0.3236  1.1868
    3SAPS   HN2  269   3.411   1.133  11.396  1.0567 -2.3370 -0.9503
    3SAPS   HN3  270   3.569   1.122  11.341 -0.6046 -1.2325  0.3667
    3SAPS   C12  271   3.503   1.317  11.311 -0.4632 -0.0494  0.5139
    3SAPS  H12A  272   3.424   1.387  11.336  0.1911  0.8690  0.0569
    3SAPS   C13  273   3.634   1.395  11.338 -0.3128  0.4868 -0.3299
    3SAPS  O13A  274   3.706   1.372  11.437 -0.1975  0.1029 -0.7879
    3SAPS  O13B  275   3.654   1.498  11.270  0.5692 -0.2957  0.0882
    3SAPS   C11  276   3.476   1.291  11.155 -0.0414  0.2880  0.2332
    3SAPS  H11A  277   3.569   1.257  11.104 -2.2594  0.0441 -4.1094
    3SAPS  H11B  278   3.452   1.394  11.122 -3.4244 -1.1019 -2.2552
    3SAPS     P  279   3.218   1.251  11.103  0.3931 -0.4617 -0.2846
    3SAPS   O13  280   3.122   1.139  11.135 -0.4202 -0.4780  0.2825
    3SAPS   O14  281   3.191   1.385  11.169  0.3187  0.6728 -0.0178
    3SAPS   O12  282   3.365   1.201  11.132  0.2126  0.4637 -0.1343
    3SAPS   O11  283   3.215   1.277  10.943 -0.9335  0.0193  0.0848
    3SAPS    C1  284   3.277   1.181  10.858  0.3164 -0.3029  0.1850
    3SAPS    HA  285   3.386   1.197  10.865  0.0435  1.3271  1.3488
    3SAPS    HB  286   3.254   1.074  10.876 -0.6700  0.0273  0.9988
    3SAPS    C2  287   3.242   1.220  10.712  0.5508  0.2525  0.3936
    3SAPS    HS  288   3.132   1.236  10.710  0.7071  1.9017  2.0652
    3SAPS   O21  289   3.291   1.119  10.619  0.3238 -0.2534 -0.1108
    3SAPS   C21  290   3.201   1.108  10.509 -0.5403 -0.5403  0.7768
    3SAPS   O22  291   3.084   1.152  10.505 -1.0456 -0.1172 -0.5491
    3SAPS   C22  292   3.262   1.032  10.395 -1.0891 -0.9634 -0.4435
    3SAPS   H2R  293   3.333   1.095  10.337 -1.0563 -1.1095 -0.5626
    3SAPS   H2S  294   3.325   0.953  10.441  0.5338  0.8110  0.5740
    3SAPS    C3  295   3.291   1.359  10.657  0.7079 -0.0855 -0.0317
    3SAPS    HX  296   3.402   1.357  10.669  0.7456 -0.4561 -0.4442
    3SAPS    HY  297   3.254   1.441  10.722 -0.0382  0.1165 -0.7024
    3SAPS   O31  298   3.261   1.378  10.518 -0.5555 -0.1346 -0.6961
    3SAPS   C31  299   3.180   1.479  10.476 -0.2859 -0.2021  0.2835
    3SAPS   O32  300   3.141   1.569  10.546 -0.1846 -0.0328 -0.1069
    3SAPS   C32  301   3.144   1.459  10.329 -0.3578  0.7019 -0.4969
    3SAPS   H2X  302   3.047   1.512  10.317  0.5948  2.3591 -1.1292
    3SAPS   H2Y  303   3.120   1.351  10.323 -0.2804  0.7114 -1.0739
    3SAPS   C23  304   3.158   0.974  10.301 -0.4319 -0.3734  0.7370
    3SAPS   H3R  305   3.082   0.921  10.362 -0.7757  2.2849  2.7934
    3SAPS   H3S  306   3.203   0.899  10.232  0.4273  1.5724 -0.9095
    3SAPS   C24  307   3.082   1.072  10.212 -0.1235  0.4900 -0.0277
    3SAPS   H4R  308   3.034   1.150  10.275  1.3595  0.8566  0.6903
    3SAPS   H4S  309   3.006   1.013  10.156  1.8969 -0.1800 -2.1979
    3SAPS   C25  310   3.177   1.150  10.131  0.2938  0.8208  0.7738
    3SAPS   H5R  311   3.236   1.224  10.187  1.2296 -0.0248  0.9424
    3SAPS   C26  312   3.213   1.129   9.998  0.7374  0.3670 -0.2821
    3SAPS   H6R  313   3.300   1.182   9.955  0.8923  0.0611 -0.3494
    3SAPS   C27  314   3.166   1.010   9.924 -0.1433 -1.0644 -0.3551
    3SAPS   H7R  315   3.057   1.029   9.916 -0.0824 -0.9479 -0.9570
    3SAPS   H7S  316   3.184   0.927   9.995  1.8688 -0.0932  0.3705
    3SAPS   C28  317   3.225   0.969   9.793 -0.2287  0.0760  0.2614
    3SAPS   H8R  318   3.298   0.887   9.805  0.5784  0.5963 -0.8969
    3SAPS   C29  319   3.197   1.023   9.672 -0.0333  0.3575 -0.2810
    3SAPS   H9R  320   3.241   0.983   9.579 -0.0231 -1.1684  0.3584
    3SAPS  C210  321   3.106   1.139   9.655 -0.6037 -0.2955  0.4802
    3SAPS  H10R  322   3.094   1.191   9.753  0.5745 -0.3475  0.6664
    3SAPS  H10S  323   3.004   1.114   9.620 -1.4113 -0.1968  2.6025
    3SAPS  C211  324   3.162   1.236   9.563  0.4918 -0.4641  0.5329
    3SAPS  H11R  325   3.203   1.321   9.619  2.1769  0.1691 -1.5177
    3SAPS  C212  326   3.174   1.242   9.430 -0.6220  0.5668 -0.1303
    3SAPS  H12R  327   3.198   1.336   9.378 -0.5007 -0.2354 -1.5875
    3SAPS  C213  328   3.134   1.130   9.339  0.2422 -0.2952 -0.2323
    3SAPS  H13R  329   3.048   1.175   9.285 -0.9222 -2.5742 -0.4037
    3SAPS  H13S  330   3.098   1.036   9.385 -0.5056  0.6545  1.2248
    3SAPS  C214  331   3.228   1.097   9.232  0.2096  0.3278  0.5744
    3SAPS  H14R  332   3.315   1.033   9.256 -0.3476 -0.7082 -0.0919
    3SAPS  C215  333   3.229   1.141   9.104 -0.3516  0.0601 -0.2276
    3SAPS  H15R  334   3.307   1.105   9.035 -1.0288  0.4764 -1.2216
    3SAPS  C216  335   3.125   1.232   9.045  0.5138 -1.1017 -0.3618
    3SAPS  H16R  336   3.065   1.285   9.122 -0.8089 -0.8879 -1.5002
    3SAPS  H16S  337   3.055   1.178   8.978 -0.5524  1.0808 -1.1216
    3SAPS  C217  338   3.192   1.343   8.974  0.4730 -0.0956  1.1486
    3SAPS  H17R  339   3.300   1.355   9.000  0.5748 -2.3129  1.9267
    3SAPS  H17S  340   3.144   1.442   8.986  0.6001  0.1043  0.1474
    3SAPS  C218  341   3.206   1.311   8.820  0.7552  0.8150  0.2264
    3SAPS  H18R  342   3.104   1.302   8.777  0.7581  3.0260 -0.3337
    3SAPS  H18S  343   3.251   1.209   8.812  0.5652  0.7832 -0.4791
    3SAPS  C219  344   3.278   1.416   8.737  0.1454  0.7069 -0.2616
    3SAPS  H19R  345   3.374   1.427   8.791 -0.5467 -0.7858  1.3794
    3SAPS  H19S  346   3.206   1.500   8.745 -0.4283  0.2431 -0.3990
    3SAPS  C220  347   3.299   1.381   8.590  0.4682 -0.2097 -0.3972
    3SAPS  H20R  348   3.366   1.299   8.557 -1.6603 -0.8491 -3.5952
    3SAPS  H20S  349   3.344   1.476   8.553  0.3303  0.7441  1.7234
    3SAPS  H20T  350   3.200   1.366   8.541  0.3004  1.3695 -0.6241
    3SAPS   C33  351   3.253   1.506  10.228  0.8456 -0.1998 -0.2580
    3SAPS   H3X  352   3.327   1.427  10.204 -1.8670 -2.8259 -0.6389
    3SAPS   H3Y  353   3.321   1.582  10.271 -0.4879  0.1371  1.4057
    3SAPS   C34  354   3.188   1.567  10.105 -0.9307 -0.0989 -0.5546
    3SAPS   H4X  355   3.110   1.637  10.142 -1.1773 -1.5760  1.9860
    3SAPS   H4Y  356   3.127   1.489  10.054 -2.1894 -0.1967  0.9924
    3SAPS   C35  357   3.304   1.611  10.013  0.1310 -0.7736  0.9062
    3SAPS   H5X  358   3.365   1.524   9.981 -0.9575 -1.7136  1.3374
    3SAPS   H5Y  359   3.379   1.674  10.065  1.6385 -1.9800  0.2712
    3SAPS   C36  360   3.261   1.673   9.876 -0.1241  0.1609 -0.0989
    3SAPS   H6X  361   3.172   1.621   9.836 -1.0718  0.9443  0.9340
    3SAPS   H6Y  362   3.346   1.669   9.804 -0.9389  4.0756 -1.5103
    3SAPS   C37  363   3.218   1.819   9.886  0.0987  0.2270 -0.3671
    3SAPS   H7X  364   3.285   1.873   9.956 -2.4329  2.9674  0.1336
    3SAPS   H7Y  365   3.121   1.838   9.938 -1.5960 -0.3425 -3.1397
    3SAPS   C38  366   3.213   1.888   9.750 -0.5712  0.2365  0.0784
    3SAPS   H8X  367   3.143   1.827   9.688 -1.3240 -1.6001  2.5764
    3SAPS   H8Y  368   3.312   1.885   9.700 -0.3784  0.1307  0.4690
    3SAPS   C39  369   3.162   2.027   9.758 -0.3435 -0.2519  0.3075
    3SAPS   H9X  370   3.241   2.091   9.804  1.2979 -0.2787 -2.2318
    3SAPS   H9Y  371   3.069   2.042   9.816 -0.3060  1.5456 -0.0180
    3SAPS  C310  372   3.140   2.094   9.619 -0.1581 -0.2828  0.1696
    3SAPS  H10X  373   3.070   2.019   9.576 -0.0457 -1.9820  2.7454
    3SAPS  H10Y  374   3.238   2.076   9.571 -0.1592 -2.4378  0.8638
    3SAPS  C311  375   3.088   2.231   9.622 -0.4521  1.1019 -0.4028
    3SAPS  H11X  376   3.174   2.298   9.643 -0.8688  1.0085  1.9134
    3SAPS  H11Y  377   3.027   2.245   9.714  0.0928 -0.2366  0.2022
    3SAPS  C312  378   3.031   2.283   9.488 -0.9199  0.5588  0.2653
    3SAPS  H12X  379   3.107   2.280   9.407 -0.7145 -0.2224  0.4750
    3SAPS  H12Y  380   3.006   2.390   9.502  0.9043  1.0238  0.2627
    3SAPS  C313  381   2.906   2.212   9.444 -0.1284  0.1044 -0.6278
    3SAPS  H13X  382   2.845   2.206   9.536  2.0007  0.6397  0.8876
    3SAPS  H13Y  383   2.943   2.109   9.422  2.5665  0.8698 -0.0547
    3SAPS  C314  384   2.828   2.276   9.331 -0.0352 -0.2350  0.1215
    3SAPS  H14X  385   2.809   2.381   9.359  0.8007  0.5342 -2.0509
    3SAPS  H14Y  386   2.723   2.238   9.332 -0.0830 -0.2322  2.8183
    3SAPS  C315  387   2.900   2.250   9.195  0.5545 -0.2872 -0.0234
    3SAPS  H15X  388   2.907   2.139   9.187 -1.5291 -0.6212  1.7255
    3SAPS  H15Y  389   2.999   2.298   9.201  0.6380 -0.1951 -1.6226
    3SAPS  C316  390   2.822   2.308   9.076  0.5964  0.2722  0.2437
    3SAPS  H16X  391   2.798   2.415   9.089  2.5522  0.7030  0.7216
    3SAPS  H16Y  392   2.726   2.253   9.062 -1.3379  3.7070 -1.0549
    3SAPS  C317  393   2.903   2.292   8.946  0.0914  0.5621  0.0113
    3SAPS  H17X  394   2.918   2.183   8.931  3.1424  0.7154  1.1530
    3SAPS  H17Y  395   3.002   2.341   8.958  0.7880 -0.5893 -0.8839
    3SAPS  C318  396   2.847   2.350   8.820 -0.4248  1.0535 -0.1564
    3SAPS  H18X  397   2.891   2.299   8.732 -0.2585  2.4452 -0.9066
    3SAPS  H18Y  398   2.861   2.460   8.829  2.0335  0.7580  0.2789
    3SAPS  H18Z  399   2.741   2.314   8.823  0.2478 -1.0122  1.9995
    4SAPS     N  400   6.281   3.417  10.587 -0.1641  0.3490 -0.0451
    4SAPS   HN1  401   6.326   3.497  10.537  1.9670 -0.2354  0.8100
    4SAPS   HN2  402   6.319   3.330  10.545 -0.2460 -0.0838  0.7678
    4SAPS   HN3  403   6.180   3.405  10.569  0.1776  1.4884 -3.7307
    4SAPS   C12  404   6.329   3.413  10.728  0.2959 -0.1301  0.2183
    4SAPS  H12A  405   6.266   3.484  10.779 -0.1420 -1.1169  1.1087
    4SAPS   C13  406   6.320   3.280  10.804 -0.4374 -0.3434  0.1452
    4SAPS  O13A  407   6.253   3.185  10.752 -0.1779  0.1505  0.2368
    4SAPS  O13B  408   6.362   3.271  10.922 -0.5532 -0.9954 -0.6793
    4SAPS   C11  409   6.480   3.448  10.731  0.6100 -0.4408 -0.3654
    4SAPS  H11A  410   6.540   3.373  10.675  1.0598 -0.8297  0.6166
    4SAPS  H11B  411   6.512   3.430  10.836 -0.1532  0.7722  0.0969
    4SAPS     P  412   6.480   3.710  10.754  0.4288  0.0486  0.1237
    4SAPS   O13  413   6.335   3.738  10.738  0.0494  0.0386  0.0168
    4SAPS   O14  414   6.533   3.694  10.887  1.0801 -0.9815  0.0982
    4SAPS   O12  415   6.505   3.575  10.686 -0.0730 -0.5196  0.2778
    4SAPS   O11  416   6.564   3.818  10.670 -0.6155  0.4358  0.4944
    4SAPS    C1  417   6.503   3.888  10.570 -0.2011 -0.5590  0.9188
    4SAPS    HA  418   6.414   3.944  10.605  0.0040 -0.2127  0.8901
    4SAPS    HB  419   6.575   3.957  10.519 -0.2036 -0.1611  1.4520
    4SAPS    C2  420   6.452   3.799  10.450 -0.6055 -0.3042 -0.2207
    4SAPS    HS  421   6.363   3.746  10.491 -1.2177  1.2525  0.5280
    4SAPS   O21  422   6.561   3.720  10.416  0.5044  0.8097 -0.4939
    4SAPS   C21  423   6.529   3.592  10.400  0.7304 -0.5297 -0.0176
    4SAPS   O22  424   6.415   3.544  10.403 -0.4985 -0.2793 -0.8066
    4SAPS   C22  425   6.660   3.504  10.383  0.4063 -0.0035 -0.1863
    4SAPS   H2R  426   6.740   3.565  10.335 -0.4812  1.0304 -0.4146
    4SAPS   H2S  427   6.692   3.478  10.486 -1.9906  1.3790  1.0001
    4SAPS    C3  428   6.395   3.887  10.328  0.1207  0.5923  0.4639
    4SAPS    HX  429   6.481   3.923  10.268 -1.3436  1.5120 -1.1852
    4SAPS    HY  430   6.359   3.982  10.373 -0.6008  1.5908 -2.0451
    4SAPS   O31  431   6.291   3.828  10.247  0.5068 -0.0649 -0.5153
    4SAPS   C31  432   6.328   3.745  10.155  0.0374  0.9385 -0.1918
    4SAPS   O32  433   6.445   3.711  10.136  0.0563  0.1551  0.4029
    4SAPS   C32  434   6.203   3.687  10.082  0.0085  0.4669 -0.0849
    4SAPS   H2X  435   6.144   3.775  10.049 -0.0967  0.1248 -0.8252
    4SAPS   H2Y  436   6.145   3.635  10.162 -1.3524  1.9482 -0.0670
    4SAPS   C23  437   6.647   3.373  10.300  0.5766  0.5573  0.2753
    4SAPS   H3R  438   6.580   3.302  10.353  0.3782  1.0963  0.7532
    4SAPS   H3S  439   6.750   3.330  10.298  0.0674 -0.7149  0.4764
    4SAPS   C24  440   6.611   3.404  10.158  0.0806  0.4637 -0.4001
    4SAPS   H4R  441   6.686   3.465  10.104 -0.6588  1.5585 -0.2176
    4SAPS   H4S  442   6.521   3.470  10.160 -0.1708  0.1344 -0.5775
    4SAPS   C25  443   6.565   3.287  10.068  0.1717  0.5116  0.3284
    4SAPS   H5R  444   6.501   3.208  10.111 -0.6032  0.3553 -1.0551
    4SAPS   C26  445   6.614   3.277   9.942 -0.1657  0.9874  0.0164
    4SAPS   H6R  446   6.591   3.187   9.881  1.0366  0.9215 -0.3759
    4SAPS   C27  447   6.712   3.358   9.854 -0.2984 -0.4315  0.1334
    4SAPS   H7R  448   6.763   3.290   9.783  0.8431  1.3288 -0.8085
    4SAPS   H7S  449   6.774   3.413   9.928 -1.7948  3.4284 -1.1951
    4SAPS   C28  450   6.624   3.467   9.790  0.2706  0.2875 -0.1543
    4SAPS   H8R  451   6.548   3.527   9.844 -0.0110  0.0298 -0.2630
    4SAPS   C29  452   6.611   3.482   9.657 -0.6823 -0.4791 -0.4249
    4SAPS   H9R  453   6.575   3.579   9.618  2.5764  1.3541  0.7332
    4SAPS  C210  454   6.667   3.401   9.543  0.0565 -0.2385  0.1587
    4SAPS  H10R  455   6.772   3.377   9.571  0.3334 -0.5998 -1.0931
    4SAPS  H10S  456   6.670   3.460   9.449  0.7012 -0.9195 -0.2646
    4SAPS  C211  457   6.582   3.283   9.515  0.4369  0.2875 -0.6520
    4SAPS  H11R  458   6.506   3.248   9.586 -0.2015 -1.2525 -2.0212
    4SAPS  C212  459   6.589   3.208   9.403 -0.0271 -0.1176  0.5976
    4SAPS  H12R  460   6.513   3.130   9.389 -2.7122  2.3692  0.2100
    4SAPS  C213  461   6.673   3.230   9.279 -0.9057 -0.1027  0.0624
    4SAPS  H13R  462   6.698   3.338   9.270 -3.2607  0.3854 -1.8111
    4SAPS  H13S  463   6.608   3.205   9.193 -0.2784 -0.9227 -0.1891
    4SAPS  C214  464   6.791   3.147   9.263 -0.2884  0.0035  0.1640
    4SAPS  H14R  465   6.807   3.065   9.334 -1.6242 -1.2272 -0.8951
    4SAPS  C215  466   6.886   3.151   9.162 -0.3118 -0.1065  0.9141
    4SAPS  H15R  467   6.965   3.075   9.171 -1.6410 -2.1329 -2.4813
    4SAPS  C216  468   6.892   3.248   9.045  0.0291 -0.6917  0.5920
    4SAPS  H16R  469   7.000   3.265   9.023 -0.3515  0.1349 -0.7579
    4SAPS  H16S  470   6.834   3.343   9.053  1.4718  0.3092 -0.2676
    4SAPS  C217  471   6.840   3.189   8.916  1.0615  0.2650  1.3350
    4SAPS  H17R  472   6.735   3.156   8.933  1.6543 -1.4410  1.9570
    4SAPS  H17S  473   6.881   3.086   8.915 -2.3619 -1.2872  2.4971
    4SAPS  C218  474   6.871   3.273   8.796 -0.1615 -0.6978  0.8939
    4SAPS  H18R  475   6.978   3.302   8.799 -0.3505  0.1498 -0.0376
    4SAPS  H18S  476   6.807   3.364   8.797  0.4218 -0.2766  0.6342
    4SAPS  C219  477   6.838   3.208   8.649  0.4503 -0.5664  0.2234
    4SAPS  H19R  478   6.895   3.113   8.641  0.6274 -0.3622 -1.1274
    4SAPS  H19S  479   6.879   3.276   8.572 -3.0232 -0.3158 -1.5871
    4SAPS  C220  480   6.685   3.196   8.620 -0.3076  0.3147  0.3131
    4SAPS  H20R  481   6.636   3.290   8.585  0.4571  0.4662 -0.3946
    4SAPS  H20S  482   6.633   3.158   8.710  0.6854  0.2815  0.8792
    4SAPS  H20T  483   6.673   3.118   8.542  0.9974 -0.0524  0.4706
    4SAPS   C33  484   6.224   3.592   9.964  0.6475  0.3458  0.6401
    4SAPS   H3X  485   6.142   3.518   9.951  2.2657 -1.5462  0.7206
    4SAPS   H3Y  486   6.315   3.529   9.972  0.1699 -0.0875  4.1061
    4SAPS   C34  487   6.231   3.668   9.824  0.3467 -0.0832  0.6625
    4SAPS   H4X  488   6.329   3.719   9.821  0.1525  0.3212 -3.0132
    4SAPS   H4Y  489   6.148   3.741   9.809 -0.0650 -0.4964  0.8668
    4SAPS   C35  490   6.238   3.575   9.705 -0.0137  0.3911 -0.2196
    4SAPS   H5X  491   6.144   3.518   9.688  2.0450 -2.9226 -1.4086
    4SAPS   H5Y  492   6.308   3.490   9.719 -2.5813 -1.6646  1.1595
    4SAPS   C36  493   6.246   3.645   9.564 -0.6098 -0.4342 -0.0587
    4SAPS   H6X  494   6.320   3.725   9.586 -0.8838  0.1373 -1.1595
    4SAPS   H6Y  495   6.151   3.695   9.537  0.7484  1.1910 -2.1706
    4SAPS   C37  496   6.293   3.551   9.456 -0.1878  0.3428  0.0376
    4SAPS   H7X  497   6.235   3.457   9.463  0.9492 -0.3668  0.1890
    4SAPS   H7Y  498   6.399   3.520   9.472 -0.7708 -1.8183 -0.0253
    4SAPS   C38  499   6.298   3.617   9.312  0.2244  0.8961 -0.6978
    4SAPS   H8X  500   6.338   3.720   9.322 -1.0855  1.4707 -1.1403
    4SAPS   H8Y  501   6.202   3.640   9.261 -0.7825  1.2729  1.2953
    4SAPS   C39  502   6.371   3.526   9.215 -0.6733  0.2935 -0.5226
    4SAPS   H9X  503   6.472   3.501   9.254 -1.3428 -0.3067  0.8801
    4SAPS   H9Y  504   6.387   3.594   9.128  1.5482  0.4357 -0.0681
    4SAPS  C310  505   6.301   3.400   9.168  0.2394 -0.7866 -0.2334
    4SAPS  H10X  506   6.193   3.419   9.153  0.3172 -0.8863 -0.9386
    4SAPS  H10Y  507   6.313   3.327   9.252  0.0539  0.3081  0.7803
    4SAPS  C311  508   6.356   3.345   9.038  1.3006  0.2913 -0.1536
    4SAPS  H11X  509   6.465   3.365   9.044  1.3910  0.5580 -2.1216
    4SAPS  H11Y  510   6.308   3.413   8.964 -0.7113  1.2265  1.8634
    4SAPS  C312  511   6.314   3.196   9.009 -0.2055  0.1052  0.1366
    4SAPS  H12X  512   6.203   3.190   9.017 -0.2778 -1.3993 -1.4221
    4SAPS  H12Y  513   6.352   3.130   9.090  0.4268  1.0390  0.6187
    4SAPS  C313  514   6.355   3.134   8.875 -0.6194  0.5269 -0.1624
    4SAPS  H13X  515   6.313   3.031   8.873 -0.2455  0.3742 -1.9715
    4SAPS  H13Y  516   6.466   3.137   8.873 -0.6300  0.8105 -1.1984
    4SAPS  C314  517   6.308   3.216   8.759  0.4436  0.4912 -0.9834
    4SAPS  H14X  518   6.387   3.294   8.750 -1.7440  3.2493  1.6974
    4SAPS  H14Y  519   6.222   3.280   8.787  2.4376  2.6114  0.7402
    4SAPS  C315  520   6.270   3.133   8.637 -0.2402 -0.3546  0.0743
    4SAPS  H15X  521   6.199   3.050   8.661 -2.5855  0.5505 -3.0482
    4SAPS  H15Y  522   6.363   3.088   8.595 -1.0774 -0.6097 -1.5776
    4SAPS  C316  523   6.205   3.227   8.531  0.1077  0.7284  0.0037
    4SAPS  H16X  524   6.280   3.306   8.512 -0.2011  0.9931 -0.1155
    4SAPS  H16Y  525   6.119   3.276   8.582 -1.0281  2.1460 -3.0227
    4SAPS  C317  526   6.157   3.155   8.404  0.7602  0.3516  0.0486
    4SAPS  H17X  527   6.229   3.080   8.364 -0.4481 -0.4650 -0.6657
    4SAPS  H17Y  528   6.142   3.234   8.328  1.4372 -0.3269 -0.8115
    4SAPS  C318  529   6.018   3.083   8.421 -0.4540  0.1820 -1.0987
    4SAPS  H18X  530   6.002   3.035   8.322  0.7869 -0.4422 -1.0261
    4SAPS  H18Y  531   5.934   3.152   8.444 -1.0470 -1.0955  0.7728
    4SAPS  H18Z  532   6.023   3.006   8.501  0.2388  0.3346 -0.9824
    5SAPS     N  533   1.526   1.165  11.061 -0.3490  0.0386 -0.4681
    5SAPS   HN1  534   1.504   1.247  11.001  0.5865  0.3354 -0.4203
    5SAPS   HN2  535   1.506   1.089  10.994  2.6246 -0.4094 -0.9759
    5SAPS   HN3  536   1.472   1.156  11.149  0.2346  1.9476  0.1408
    5SAPS   C12  537   1.675   1.163  11.078  0.5003  0.0403  1.0624
    5SAPS  H12A  538   1.689   1.225  11.166  1.1006  1.3811  0.0482
    5SAPS   C13  539   1.722   1.015  11.083  0.7078 -0.1246 -0.1463
    5SAPS  O13A  540   1.638   0.920  11.064  0.1885 -0.0833  0.3159
    5SAPS  O13B  541   1.837   0.992  11.126 -0.0819 -0.2164 -0.2397
    5SAPS   C11  542   1.748   1.228  10.962 -0.2920  1.0117  0.2349
    5SAPS  H11A  543   1.727   1.173  10.867 -0.9748 -1.0154  1.4888
    5SAPS  H11B  544   1.855   1.211  10.983 -0.1151 -0.4502 -1.5324
    5SAPS     P  545   1.618   1.448  10.875  0.0318  0.4666 -0.0482
    5SAPS   O13  546   1.489   1.383  10.895  0.6632 -0.3893 -0.9158
    5SAPS   O14  547   1.640   1.590  10.909  0.1936  0.8749  0.0482
    5SAPS   O12  548   1.722   1.364  10.961  0.5148  0.6008  0.2659
    5SAPS   O11  549   1.665   1.418  10.731 -0.4809 -0.6421  0.5270
    5SAPS    C1  550   1.764   1.509  10.679  0.1184 -0.0105 -0.8248
    5SAPS    HA  551   1.712   1.596  10.634 -2.3619 -0.9474  0.0607
    5SAPS    HB  552   1.845   1.536  10.750 -0.5572 -0.2062  0.0301
    5SAPS    C2  553   1.845   1.433  10.568 -0.3449  0.2982  0.0521
    5SAPS    HS  554   1.939   1.491  10.552 -0.6225  0.3171 -1.6660
    5SAPS   O21  555   1.778   1.413  10.443  0.0986  0.6308 -0.0487
    5SAPS   C21  556   1.752   1.520  10.372 -0.0797  0.5822  0.2176
    5SAPS   O22  557   1.788   1.634  10.391 -0.0604  0.0652  0.5072
    5SAPS   C22  558   1.699   1.466  10.238  0.4270  0.2959 -0.3708
    5SAPS   H2R  559   1.747   1.367  10.226 -0.1366 -0.0165 -0.1334
    5SAPS   H2S  560   1.589   1.451  10.245  0.6205 -2.0422 -1.1934
    5SAPS    C3  561   1.892   1.295  10.626  0.0438 -0.5192  0.1002
    5SAPS    HX  562   1.797   1.239  10.616  0.8965 -2.1020  0.4672
    5SAPS    HY  563   1.914   1.315  10.733 -2.8682  0.5973  0.5834
    5SAPS   O31  564   2.004   1.241  10.552  0.5644 -0.1953  0.0771
    5SAPS   C31  565   1.975   1.162  10.448 -0.5585  0.0069  0.4021
    5SAPS   O32  566   1.870   1.136  10.402 -0.1818  0.0695 -0.0108
    5SAPS   C32  567   2.115   1.103  10.400  0.3645  0.1265 -0.1712
    5SAPS   H2X  568   2.157   1.032  10.474 -0.5027 -0.8572 -0.5967
    5SAPS   H2Y  569   2.188   1.186  10.406  2.1195 -1.3188 -0.6196
    5SAPS   C23  570   1.715   1.567  10.124 -0.5412 -0.1274  0.4774
    5SAPS   H3R  571   1.821   1.588  10.100 -0.7709  0.6636  0.1232
    5SAPS   H3S  572   1.670   1.665  10.149  1.4828  1.1362 -0.5636
    5SAPS   C24  573   1.629   1.517   9.998 -0.1505 -0.7180  0.1485
    5SAPS   H4R  574   1.627   1.609   9.935 -0.4327  0.4065  1.7479
    5SAPS   H4S  575   1.524   1.522  10.033 -0.4805 -0.5557 -0.8247
    5SAPS   C25  576   1.690   1.392   9.938 -0.5298  0.8185 -0.8091
    5SAPS   H5R  577   1.672   1.301   9.996 -3.7115  0.8156 -1.5957
    5SAPS   C26  578   1.747   1.379   9.817  0.0636 -0.4635  0.4898
    5SAPS   H6R  579   1.784   1.278   9.792 -1.2729 -0.3710 -2.2105
    5SAPS   C27  580   1.769   1.478   9.706  0.0272 -0.1679  0.2604
    5SAPS   H7R  581   1.862   1.441   9.658  0.4661 -2.2422  2.5392
    5SAPS   H7S  582   1.785   1.575   9.757 -3.3761 -0.9517  3.2175
    5SAPS   C28  583   1.644   1.478   9.615  0.5350 -0.9508  0.2471
    5SAPS   H8R  584   1.544   1.475   9.662 -0.1633  1.8340 -0.8736
    5SAPS   C29  585   1.646   1.488   9.482  0.6123  0.5225 -0.0246
    5SAPS   H9R  586   1.553   1.495   9.423 -0.0434 -1.1413  0.7437
    5SAPS  C210  587   1.760   1.495   9.391  0.3516 -0.1546  0.2436
    5SAPS  H10R  588   1.853   1.465   9.444  0.4271 -2.0397 -0.8531
    5SAPS  H10S  589   1.768   1.597   9.348  1.2217 -0.4097 -0.2242
    5SAPS  C211  590   1.742   1.393   9.280 -0.1747  0.5114 -0.2336
    5SAPS  H11R  591   1.710   1.289   9.298  2.4370  0.0143  2.2811
    5SAPS  C212  592   1.768   1.424   9.156 -0.4918  0.1296 -0.5176
    5SAPS  H12R  593   1.749   1.343   9.084  0.2753 -2.6626  2.2363
    5SAPS  C213  594   1.812   1.554   9.094 -0.1162 -0.3524  0.0227
    5SAPS  H13R  595   1.910   1.535   9.044 -0.4809 -1.8415 -0.1560
    5SAPS  H13S  596   1.839   1.633   9.168 -1.3486 -1.6802  1.9752
    5SAPS  C214  597   1.718   1.596   8.990  0.0098 -0.7235  0.2468
    5SAPS  H14R  598   1.626   1.644   9.026 -0.3179  1.3632 -2.9258
    5SAPS  C215  599   1.725   1.582   8.854 -0.3683  0.2235  0.3441
    5SAPS  H15R  600   1.643   1.623   8.794 -0.2615  0.8266  0.6031
    5SAPS  C216  601   1.849   1.531   8.781 -0.5610 -0.1351 -0.2881
    5SAPS  H16R  602   1.826   1.492   8.679 -2.3133 -0.9332  0.3631
    5SAPS  H16S  603   1.884   1.441   8.835  0.2449  1.5882  2.2149
    5SAPS  C217  604   1.972   1.625   8.794 -0.0499 -0.0709  0.1419
    5SAPS  H17R  605   2.017   1.624   8.896  2.0498  1.9758 -0.6803
    5SAPS  H17S  606   1.940   1.727   8.764  2.2366  0.6315 -0.0928
    5SAPS  C218  607   2.087   1.586   8.698 -0.1429 -0.0367 -0.4017
    5SAPS  H18R  608   2.186   1.633   8.716 -0.5604  0.7711 -0.1573
    5SAPS  H18S  609   2.089   1.475   8.701 -2.1243 -0.1906 -2.6752
    5SAPS  C219  610   2.060   1.635   8.552 -0.0014 -0.3858  0.0463
    5SAPS  H19R  611   1.952   1.621   8.534 -0.1106  0.1877  0.2288
    5SAPS  H19S  612   2.119   1.580   8.476  0.0985 -0.8666  0.4656
    5SAPS  C220  613   2.084   1.789   8.547 -0.3296  0.1741  0.4378
    5SAPS  H20R  614   2.089   1.828   8.443  0.7725 -1.7666 -0.2897
    5SAPS  H20S  615   2.169   1.830   8.605  1.4075 -1.9584 -0.4386
    5SAPS  H20T  616   1.993   1.831   8.595 -1.0701 -1.3100  0.4063
    5SAPS   C33  617   2.099   1.037  10.260 -0.5027 -0.0079 -0.4966
    5SAPS   H3X  618   2.037   1.104  10.197  1.1447 -0.0038 -2.2116
    5SAPS   H3Y  619   2.044   0.941  10.268  0.3194 -0.5321 -0.9417
    5SAPS   C34  620   2.239   1.036  10.194  0.4774  0.4171 -0.8185
    5SAPS   H4X  621   2.304   0.985  10.269 -0.7108  1.0878  0.7360
    5SAPS   H4Y  622   2.280   1.138  10.178  0.1974  0.9975  1.6569
    5SAPS   C35  623   2.247   0.959  10.058 -0.8087 -0.2479 -0.3006
    5SAPS   H5X  624   2.192   0.866  10.034 -0.8988  0.4981 -3.5896
    5SAPS   H5Y  625   2.356   0.935  10.064 -0.6610  0.4585 -0.0423
    5SAPS   C36  626   2.226   1.049   9.942  0.3713 -0.6791  0.1101
    5SAPS   H6X  627   2.305   1.126   9.943 -1.1764  0.9908  2.2831
    5SAPS   H6Y  628   2.134   1.111   9.948  0.9225  0.5587 -2.6124
    5SAPS   C37  629   2.239   0.975   9.807 -0.0419 -0.6870  0.4744
    5SAPS   H7X  630   2.167   0.892   9.791  0.0829 -0.4984 -1.3014
    5SAPS   H7Y  631   2.345   0.943   9.804 -0.0823 -0.7997  0.2502
    5SAPS   C38  632   2.227   1.061   9.681 -0.4459 -1.1309  0.3334
    5SAPS   H8X  633   2.311   1.134   9.681  0.4328 -2.1142  1.3102
    5SAPS   H8Y  634   2.127   1.106   9.695  0.2704  0.1059  1.6713
    5SAPS   C39  635   2.248   0.977   9.553 -0.4139 -0.0530 -0.2389
    5SAPS   H9X  636   2.174   0.895   9.564 -1.0398  0.7550  1.8673
    5SAPS   H9Y  637   2.347   0.925   9.548 -0.7352 -0.6421 -0.6378
    5SAPS  C310  638   2.224   1.047   9.421  0.1989  0.2818 -0.4749
    5SAPS  H10X  639   2.303   1.120   9.394 -0.1625  0.3860 -1.2829
    5SAPS  H10Y  640   2.126   1.097   9.438  0.0697 -0.1659  0.1261
    5SAPS  C311  641   2.203   0.952   9.301  0.4136  0.1157 -0.0209
    5SAPS  H11X  642   2.181   1.016   9.212  3.7654 -0.1848 -1.2059
    5SAPS  H11Y  643   2.119   0.881   9.314  0.8272 -0.7981 -1.9434
    5SAPS  C312  644   2.334   0.885   9.263 -0.1085 -0.0499 -0.1388
    5SAPS  H12X  645   2.361   0.820   9.349 -5.2576  1.3280  2.9626
    5SAPS  H12Y  646   2.401   0.973   9.258 -2.0242  1.4075 -2.0470
    5SAPS  C313  647   2.316   0.797   9.143 -0.0694 -0.1106  0.0706
    5SAPS  H13X  648   2.290   0.858   9.054 -0.3285  0.2323  0.3786
    5SAPS  H13Y  649   2.227   0.729   9.151 -0.7246  0.6215 -0.7626
    5SAPS  C314  650   2.436   0.705   9.117 -0.1373  0.1876 -0.1174
    5SAPS  H14X  651   2.460   0.663   9.216 -0.7549 -1.4813 -0.6479
    5SAPS  H14Y  652   2.521   0.768   9.083 -0.4773  1.5663  1.4528
    5SAPS  C315  653   2.416   0.588   9.026  0.1532 -0.1263  0.0577
    5SAPS  H15X  654   2.387   0.610   8.921 -1.4622  1.9256  0.8537
    5SAPS  H15Y  655   2.329   0.538   9.073 -0.1364  2.7919  3.0095
    5SAPS  C316  656   2.536   0.490   9.031 -0.2429 -0.2275  0.3069
    5SAPS  H16X  657   2.571   0.462   9.132  1.2533  1.6524  0.3803
    5SAPS  H16Y  658   2.625   0.530   8.977  0.8681 -1.5423  1.1067
    5SAPS  C317  659   2.508   0.370   8.937 -0.5855  0.8563  0.5735
    5SAPS  H17X  660   2.519   0.398   8.830 -1.9541  3.5610  1.0354
    5SAPS  H17Y  661   2.400   0.348   8.946 -0.2446 -1.8379 -1.0431
    5SAPS  C318  662   2.594   0.247   8.953 -0.5056 -0.4434  0.3688
    5SAPS  H18X  663   2.700   0.277   8.942 -0.6198 -0.6882 -1.7379
    5SAPS  H18Y  664   2.570   0.168   8.879  0.1743 -0.9406  0.6700
    5SAPS  H18Z  665   2.579   0.205   9.055  2.3709  1.0132  1.5158
    6SAPS     N  666   1.124   1.222  10.819 -0.5523 -0.2589 -0.0257
    6SAPS   HN1  667   1.204   1.164  10.853 -0.3053 -0.1547 -0.4292
    6SAPS   HN2  668   1.105   1.167  10.733  1.5843 -0.5311 -0.3615
    6SAPS   HN3  669   1.145   1.323  10.809 -1.4410  0.3462  2.9730
    6SAPS   C12  670   1.005   1.211  10.909 -0.1323  0.2714  0.3687
    6SAPS  H12A  671   0.964   1.114  10.884  1.3363 -0.4379  0.6306
    6SAPS   C13  672   1.044   1.204  11.059  0.3088  0.5958  0.0355
    6SAPS  O13A  673   1.161   1.195  11.095 -0.6033 -0.4410 -0.7626
    6SAPS  O13B  674   0.951   1.210  11.142 -0.2768  0.2862 -1.0659
    6SAPS   C11  675   0.905   1.327  10.880  0.1127 -0.9531  0.2737
    6SAPS  H11A  676   0.948   1.428  10.899 -0.8417 -0.9681  2.7769
    6SAPS  H11B  677   0.827   1.316  10.958 -2.0662 -0.9285 -1.7786
    6SAPS     P  678   0.763   1.212  10.695 -0.0150  0.1806  0.3580
    6SAPS   O13  679   0.826   1.121  10.602 -0.0487 -0.1113  0.1406
    6SAPS   O14  680   0.697   1.154  10.813 -0.2157 -0.1186  0.1424
    6SAPS   O12  681   0.868   1.319  10.740  0.0850  0.9409  0.0264
    6SAPS   O11  682   0.657   1.293  10.619  0.1031  0.2732 -0.4014
    6SAPS    C1  683   0.602   1.417  10.655  0.4354 -0.3904 -0.0981
    6SAPS    HA  684   0.498   1.419  10.696  0.9026 -1.7438  1.2802
    6SAPS    HB  685   0.655   1.468  10.739 -0.3577  0.4149 -0.0655
    6SAPS    C2  686   0.622   1.518  10.538 -1.2093 -0.7269  0.5230
    6SAPS    HS  687   0.593   1.614  10.585  3.4532  0.9454  0.4770
    6SAPS   O21  688   0.539   1.490  10.426  0.0419 -0.6396 -0.8036
    6SAPS   C21  689   0.409   1.502  10.452 -0.1376  0.2034 -0.2064
    6SAPS   O22  690   0.356   1.559  10.549  0.9767 -0.1892 -0.1851
    6SAPS   C22  691   0.320   1.455  10.338  0.5711  0.1150 -0.2475
    6SAPS   H2R  692   0.382   1.475  10.248 -1.1904  4.2121 -0.7812
    6SAPS   H2S  693   0.305   1.346  10.352  1.6554 -0.1580 -1.0669
    6SAPS    C3  694   0.775   1.531  10.497  0.0710  0.0253  0.7456
    6SAPS    HX  695   0.820   1.430  10.487  0.8982  0.2071  2.2808
    6SAPS    HY  696   0.829   1.573  10.584 -1.6178  0.8370  1.4641
    6SAPS   O31  697   0.792   1.607  10.373  0.3559  0.0448  0.8584
    6SAPS   C31  698   0.809   1.736  10.384  0.8663 -0.0305 -0.1158
    6SAPS   O32  699   0.789   1.807  10.480  0.1454 -0.2014 -0.5453
    6SAPS   C32  700   0.865   1.788  10.250 -0.7823 -0.5223 -0.3206
    6SAPS   H2X  701   0.799   1.748  10.170 -0.4050  1.2578 -1.5659
    6SAPS   H2Y  702   0.965   1.743  10.234 -0.5933 -0.3197  0.2447
    6SAPS   C23  703   0.181   1.521  10.329  0.1297  0.6479  0.6437
    6SAPS   H3R  704   0.175   1.632  10.322 -3.1733  0.6029  1.1376
    6SAPS   H3S  705   0.118   1.501  10.419 -1.2006  0.0244 -0.3871
    6SAPS   C24  706   0.092   1.460  10.205  0.0643  0.2558 -0.6183
    6SAPS   H4R  707  -0.003   1.517  10.206  0.6751  1.3107  0.1760
    6SAPS   H4S  708   0.084   1.352  10.231  0.8393  0.6780  1.6291
    6SAPS   C25  709   0.157   1.467  10.069 -0.6274 -0.0146 -0.2038
    6SAPS   H5R  710   0.265   1.486  10.080 -0.4452 -1.7450  1.7066
    6SAPS   C26  711   0.093   1.444   9.951 -0.4018 -0.5246 -0.8233
    6SAPS   H6R  712   0.156   1.440   9.861  1.2423  1.1075  0.1955
    6SAPS   C27  713  -0.048   1.407   9.954  0.3140 -0.6901  0.5401
    6SAPS   H7R  714  -0.105   1.477   9.889  0.2230 -2.3215 -1.2234
    6SAPS   H7S  715  -0.088   1.404  10.057  0.3362  1.5874  0.6626
    6SAPS   C28  716  -0.065   1.266   9.900 -0.4430 -0.1872  0.0666
    6SAPS   H8R  717  -0.025   1.189   9.968 -1.1693 -0.7496 -0.1251
    6SAPS   C29  718  -0.097   1.235   9.772 -0.5931  0.3607 -1.0310
    6SAPS   H9R  719  -0.119   1.130   9.750 -2.3336 -0.3491  3.0763
    6SAPS  C210  720  -0.125   1.329   9.658  0.4887  0.3305  0.9002
    6SAPS  H10R  721  -0.190   1.410   9.698 -2.9714 -2.1921  0.8529
    6SAPS  H10S  722  -0.198   1.285   9.587  0.6504  3.5897 -1.4847
    6SAPS  C211  723  -0.004   1.383   9.590 -0.1264  0.0160  0.1105
    6SAPS  H11R  724   0.086   1.401   9.651  2.0610 -0.7328 -2.6762
    6SAPS  C212  725   0.011   1.417   9.458  0.1955 -0.0569 -0.0447
    6SAPS  H12R  726   0.110   1.460   9.434  0.4121 -0.2626  0.4742
    6SAPS  C213  727  -0.091   1.416   9.339  0.4859  0.3173 -0.6122
    6SAPS  H13R  728  -0.083   1.509   9.278 -2.1192  0.1431 -1.3621
    6SAPS  H13S  729  -0.195   1.422   9.377  0.7960  0.1347  0.2725
    6SAPS  C214  730  -0.069   1.293   9.255  0.1722 -0.0875  0.0753
    6SAPS  H14R  731  -0.035   1.200   9.303  0.6793  1.1773  2.2954
    6SAPS  C215  732  -0.104   1.283   9.126  0.6067 -0.0997  0.1942
    6SAPS  H15R  733  -0.097   1.190   9.067 -0.0773 -0.4372  0.6318
    6SAPS  C216  734  -0.173   1.388   9.034 -0.3516 -0.0865  0.4674
    6SAPS  H16R  735  -0.245   1.454   9.088 -2.1884 -1.3444 -0.3683
    6SAPS  H16S  736  -0.242   1.332   8.967  0.8317  0.4385 -1.2505
    6SAPS  C217  737  -0.068   1.451   8.951  0.0126 -0.4766  0.1415
    6SAPS  H17R  738   0.028   1.455   9.006 -1.2937  2.1900  2.4932
    6SAPS  H17S  739  -0.096   1.558   8.938 -2.2025 -0.9189  0.8889
    6SAPS  C218  740  -0.048   1.384   8.812 -0.1990  0.8744 -0.6223
    6SAPS  H18R  741  -0.151   1.378   8.772 -1.1582  1.4962  1.5899
    6SAPS  H18S  742  -0.022   1.277   8.826 -3.1306  0.4296  2.8431
    6SAPS  C219  743   0.022   1.463   8.704 -0.6139 -0.0111  0.0272
    6SAPS  H19R  744   0.121   1.484   8.751 -1.6156 -1.3188  2.9928
    6SAPS  H19S  745  -0.025   1.563   8.694  2.4179  1.3505 -2.3615
    6SAPS  C220  746   0.036   1.411   8.558 -1.3189  0.1015  0.0531
    6SAPS  H20R  747  -0.058   1.363   8.525  0.7743 -2.1662 -3.2117
    6SAPS  H20S  748   0.117   1.334   8.553  0.4582  1.6150  2.6929
    6SAPS  H20T  749   0.065   1.494   8.491 -3.7171  2.1584  1.4121
    6SAPS   C33  750   0.876   1.939  10.238 -0.0434  0.8620 -0.4256
    6SAPS   H3X  751   0.928   1.977  10.328  2.3872  0.4720 -1.5634
    6SAPS   H3Y  752   0.775   1.984  10.242  0.0122  0.8612  1.5320
    6SAPS   C34  753   0.960   1.968  10.114  0.0290 -0.3573  0.6148
    6SAPS   H4X  754   0.920   1.927  10.018  1.8397 -1.8844  0.4524
    6SAPS   H4Y  755   1.058   1.919  10.131 -0.5288 -0.9891  2.2072
    6SAPS   C35  756   0.996   2.114  10.090 -0.5546 -0.1189 -0.4580
    6SAPS   H5X  757   1.019   2.156  10.190  0.6318 -0.0530 -0.7441
    6SAPS   H5Y  758   0.900   2.159  10.057 -2.4725 -3.0769  0.6141
    6SAPS   C36  759   1.112   2.144   9.998 -0.0913 -0.5533 -0.7785
    6SAPS   H6X  760   1.114   2.075   9.911 -0.9728 -0.9611 -0.4824
    6SAPS   H6Y  761   1.197   2.103  10.057  0.0412 -1.5818 -1.6502
    6SAPS   C37  762   1.121   2.297   9.972 -0.5674  0.7473  0.2643
    6SAPS   H7X  763   1.079   2.358  10.055 -2.0234  0.3983 -0.1933
    6SAPS   H7Y  764   1.074   2.313   9.873  0.8622  0.6793 -0.4590
    6SAPS   C38  765   1.264   2.348   9.942  0.0697 -0.0087  0.3452
    6SAPS   H8X  766   1.302   2.291   9.855  2.5225  1.0283  0.6521
    6SAPS   H8Y  767   1.325   2.314  10.028 -0.8598  0.4536  1.2124
    6SAPS   C39  768   1.261   2.494   9.917  0.0647 -0.1920  0.1687
    6SAPS   H9X  769   1.284   2.553  10.008 -0.4669 -0.4000  0.4401
    6SAPS   H9Y  770   1.156   2.519   9.892  0.6160  0.7234 -1.3777
    6SAPS  C310  771   1.342   2.544   9.796  0.0377 -0.0097  0.2421
    6SAPS  H10X  772   1.448   2.523   9.821 -0.0348 -0.4923  0.1411
    6SAPS  H10Y  773   1.334   2.655   9.796  1.2185  0.0842 -0.5521
    6SAPS  C311  774   1.300   2.488   9.660  0.0373  0.1289  0.1948
    6SAPS  H11X  775   1.191   2.495   9.640 -0.0489  2.3009  1.1557
    6SAPS  H11Y  776   1.313   2.378   9.650  0.3885  0.3970 -4.8725
    6SAPS  C312  777   1.380   2.554   9.543 -0.4006 -0.6223 -0.4572
    6SAPS  H12X  778   1.489   2.545   9.561 -0.5529 -2.5285 -0.2789
    6SAPS  H12Y  779   1.343   2.658   9.535  0.4459 -0.3773 -1.4023
    6SAPS  C313  780   1.346   2.471   9.412 -0.0519  0.6837 -0.4587
    6SAPS  H13X  781   1.236   2.472   9.392 -0.4468 -2.7027  0.8903
    6SAPS  H13Y  782   1.370   2.367   9.441  1.2496  0.4030 -2.3763
    6SAPS  C314  783   1.429   2.515   9.290 -0.5224 -0.4715  0.2883
    6SAPS  H14X  784   1.536   2.512   9.323 -0.9258 -1.0543  1.6587
    6SAPS  H14Y  785   1.410   2.621   9.265 -0.1553  0.1900  2.5529
    6SAPS  C315  786   1.399   2.430   9.174 -0.1588  0.0820 -0.9311
    6SAPS  H15X  787   1.291   2.408   9.160 -0.7159  1.2670  1.0194
    6SAPS  H15Y  788   1.449   2.332   9.185 -3.2133 -1.6775 -1.5841
    6SAPS  C316  789   1.452   2.471   9.042  0.8803  0.0924  0.7942
    6SAPS  H16X  790   1.459   2.388   8.969  0.3520 -0.1321  0.9932
    6SAPS  H16Y  791   1.548   2.526   9.051  0.9349 -0.1996  2.3687
    6SAPS  C317  792   1.360   2.570   8.960 -0.1195 -0.1993  0.3078
    6SAPS  H17X  793   1.329   2.654   9.026  2.1900  0.8815  0.0887
    6SAPS  H17Y  794   1.269   2.515   8.926  0.1592 -0.9349  0.7253
    6SAPS  C318  795   1.432   2.627   8.837 -0.0252  0.7106  0.2029
    6SAPS  H18X  796   1.466   2.547   8.768  1.0762  0.6168  0.8411
    6SAPS  H18Y  797   1.521   2.682   8.873  1.4226  0.1912 -2.3489
    6SAPS  H18Z  798   1.375   2.696   8.771  3.2112  1.4847 -1.9975
    7SAPS     N  799   4.317   2.039  10.680 -0.4059 -0.3707 -0.0779
    7SAPS   HN1  800   4.384   1.959  10.673  0.1902 -0.1417  2.2425
    7SAPS   HN2  801   4.250   2.056  10.602  1.1902  0.1791 -1.3910
    7SAPS   HN3  802   4.369   2.129  10.683  0.1791 -0.6609 -0.9585
    7SAPS   C12  803   4.239   2.015  10.807 -0.0796  0.0109 -0.3789
    7SAPS  H12A  804   4.194   1.917  10.801  0.7228 -0.5643  1.9140
    7SAPS   C13  805   4.324   2.009  10.939  0.3390  0.0870 -0.5873
    7SAPS  O13A  806   4.449   2.031  10.934  0.8636  0.0564 -0.4123
    7SAPS  O13B  807   4.261   2.033  11.044  0.2325  0.2533 -0.2135
    7SAPS   C11  808   4.126   2.124  10.818  0.7810 -0.1783 -1.0943
    7SAPS  H11A  809   4.178   2.221  10.807 -1.1007  1.1974  1.1337
    7SAPS  H11B  810   4.080   2.120  10.919  0.7489 -3.0004 -1.1487
    7SAPS     P  811   4.023   2.202  10.591  0.1646  0.2170  0.4546
    7SAPS   O13  812   4.012   2.347  10.619 -0.0941  0.7278 -0.3290
    7SAPS   O14  813   4.138   2.162  10.512  0.3311  0.4573  0.5577
    7SAPS   O12  814   4.022   2.112  10.720  0.1042 -0.1297 -0.4512
    7SAPS   O11  815   3.897   2.152  10.509 -0.2832  0.4850  0.4932
    7SAPS    C1  816   3.862   2.015  10.525 -0.1510  0.5535  1.1093
    7SAPS    HA  817   3.930   1.950  10.584  0.2258 -0.5740 -0.4946
    7SAPS    HB  818   3.761   2.015  10.572 -1.4714 -0.3924 -1.4923
    7SAPS    C2  819   3.834   1.944  10.385  0.1798 -0.6684 -0.2671
    7SAPS    HS  820   3.937   1.915  10.356  0.5103  0.3379 -0.1571
    7SAPS   O21  821   3.787   2.030  10.282 -0.4466  0.1111  0.0263
    7SAPS   C21  822   3.876   2.112  10.229  0.5310 -0.0931 -0.2237
    7SAPS   O22  823   3.999   2.098  10.240 -0.2833  0.0332  0.0821
    7SAPS   C22  824   3.801   2.239  10.167 -0.0561  0.0419 -0.2159
    7SAPS   H2R  825   3.757   2.201  10.072  1.5815 -0.5882 -0.7615
    7SAPS   H2S  826   3.721   2.256  10.243  0.4268  1.2558  0.0470
    7SAPS    C3  827   3.760   1.812  10.406  0.5983 -0.7192 -0.6751
    7SAPS    HX  828   3.815   1.750  10.480  0.1892  0.1010  0.3412
    7SAPS    HY  829   3.750   1.753  10.312  1.3975 -1.7686 -0.1309
    7SAPS   O31  830   3.633   1.839  10.475  0.1348  0.1037 -0.1190
    7SAPS   C31  831   3.523   1.790  10.417 -0.2831  0.1241 -0.9461
    7SAPS   O32  832   3.517   1.724  10.316 -0.0968  0.0408  0.2832
    7SAPS   C32  833   3.404   1.851  10.493  0.4769  0.8389  0.2225
    7SAPS   H2X  834   3.431   1.944  10.547 -1.2137  0.3852  1.9614
    7SAPS   H2Y  835   3.364   1.780  10.568 -0.3427  1.5665  0.4850
    7SAPS   C23  836   3.880   2.379  10.154  0.0566 -0.3844  0.5263
    7SAPS   H3R  837   3.928   2.409  10.249 -0.5575 -0.4320  0.8540
    7SAPS   H3S  838   3.807   2.460  10.132  1.5850  0.6674 -0.8827
    7SAPS   C24  839   3.977   2.379  10.036  0.0386 -0.5735  0.1508
    7SAPS   H4R  840   4.045   2.293  10.051  0.3803 -0.2664  0.3873
    7SAPS   H4S  841   4.037   2.473  10.038 -0.9388  0.0618  1.6230
    7SAPS   C25  842   3.916   2.369   9.900  0.4525  0.8035 -0.1668
    7SAPS   H5R  843   3.881   2.469   9.870 -1.4562 -0.2993 -1.8963
    7SAPS   C26  844   3.922   2.261   9.814 -0.0558 -0.5261  0.2029
    7SAPS   H6R  845   3.889   2.284   9.712  1.5641  1.6086  0.0870
    7SAPS   C27  846   3.991   2.123   9.845 -0.1170  0.3955  0.6105
    7SAPS   H7R  847   3.933   2.043   9.794 -0.5323  1.8819 -1.3984
    7SAPS   H7S  848   3.995   2.091   9.951 -1.0801 -1.7185  0.0722
    7SAPS   C28  849   4.131   2.105   9.794 -0.8050  0.1370  0.5502
    7SAPS   H8R  850   4.209   2.109   9.873 -1.4406  0.4332  1.1725
    7SAPS   C29  851   4.171   2.081   9.669 -1.2291 -0.0610 -0.2421
    7SAPS   H9R  852   4.278   2.091   9.646 -0.8807 -1.1820  0.7795
    7SAPS  C210  853   4.083   2.046   9.547 -0.8824 -0.4685 -0.2602
    7SAPS  H10R  854   4.032   2.138   9.510 -0.0409  0.6629  1.2690
    7SAPS  H10S  855   4.001   1.992   9.598 -0.1236 -0.9938  0.4316
    7SAPS  C211  856   4.149   1.966   9.440  0.2102  0.0826  0.2512
    7SAPS  H11R  857   4.149   1.858   9.460 -1.9900 -0.5923 -2.6084
    7SAPS  C212  858   4.194   2.008   9.323 -0.2674 -1.0097  0.5122
    7SAPS  H12R  859   4.238   1.928   9.261 -1.2805 -3.0408  2.2595
    7SAPS  C213  860   4.192   2.148   9.272  0.5860  1.2823 -0.3277
    7SAPS  H13R  861   4.280   2.181   9.213  0.6322  2.2021  0.2416
    7SAPS  H13S  862   4.213   2.214   9.358 -0.6273  1.2718 -0.0050
    7SAPS  C214  863   4.063   2.199   9.205  0.0171 -0.0984 -0.3163
    7SAPS  H14R  864   3.980   2.220   9.274 -1.3106  0.1527 -1.9410
    7SAPS  C215  865   4.039   2.240   9.079 -0.4050  0.9236 -0.1879
    7SAPS  H15R  866   3.938   2.268   9.045 -0.0339  0.0603 -2.1057
    7SAPS  C216  867   4.135   2.239   8.967 -0.5887 -0.2524  0.6433
    7SAPS  H16R  868   4.234   2.212   9.012 -0.1354 -1.1148 -0.7918
    7SAPS  H16S  869   4.131   2.340   8.923  0.2175 -1.2087 -1.7731
    7SAPS  C217  870   4.096   2.131   8.863  1.1522  0.0256  0.5886
    7SAPS  H17R  871   4.164   2.152   8.778  0.6119  1.8573  0.5767
    7SAPS  H17S  872   3.992   2.127   8.823  0.0643  0.9768  3.1509
    7SAPS  C218  873   4.120   1.986   8.910 -0.3821  0.6407 -0.1783
    7SAPS  H18R  874   4.032   1.958   8.971 -0.9960  1.2433 -0.7809
    7SAPS  H18S  875   4.216   1.993   8.967 -1.1670  1.8837  1.0499
    7SAPS  C219  876   4.130   1.890   8.789 -0.3497 -0.2309  0.4155
    7SAPS  H19R  877   4.228   1.898   8.737 -1.7065 -1.9133 -2.6845
    7SAPS  H19S  878   4.042   1.913   8.725 -1.5144 -0.6775  1.7996
    7SAPS  C220  879   4.112   1.741   8.813 -0.9918  0.3615  0.5155
    7SAPS  H20R  880   4.012   1.720   8.856 -0.3289 -0.8278  1.5377
    7SAPS  H20S  881   4.190   1.720   8.889  0.0752 -0.4613 -0.7654
    7SAPS  H20T  882   4.114   1.678   8.721 -1.5994  0.4880  0.4089
    7SAPS   C33  883   3.285   1.885  10.408 -0.0047  1.0238  0.6083
    7SAPS   H3X  884   3.196   1.868  10.473 -0.4663  1.7444  0.1778
    7SAPS   H3Y  885   3.271   1.805  10.332  1.2683  0.5524  0.8511
    7SAPS   C34  886   3.269   2.035  10.375 -0.2615 -0.0863 -0.4458
    7SAPS   H4X  887   3.254   2.094  10.468  2.1490  1.8750 -1.1799
    7SAPS   H4Y  888   3.174   2.058  10.322 -1.5259 -1.9107  0.8929
    7SAPS   C35  889   3.387   2.086  10.293 -0.1214 -0.2191  0.1049
    7SAPS   H5X  890   3.483   2.061  10.342 -0.4911 -0.1234  0.8865
    7SAPS   H5Y  891   3.379   2.196  10.281  2.9429  0.3758  2.3879
    7SAPS   C36  892   3.407   2.021  10.157  0.4916 -0.4664 -0.3336
    7SAPS   H6X  893   3.308   2.026  10.106  0.5181  2.6492 -0.2725
    7SAPS   H6Y  894   3.445   1.918  10.169  1.5814  0.0408  0.7898
    7SAPS   C37  895   3.504   2.096  10.068  0.2441  1.0750  0.2731
    7SAPS   H7X  896   3.529   2.017   9.995  0.5818  1.2940  0.1513
    7SAPS   H7Y  897   3.594   2.107  10.133  0.7998 -0.6007 -0.1721
    7SAPS   C38  898   3.450   2.228  10.011 -0.3815  0.3691 -0.4797
    7SAPS   H8X  899   3.417   2.284  10.101  4.3491 -0.9829  2.4684
    7SAPS   H8Y  900   3.372   2.195   9.939 -2.8327 -0.4051  2.3283
    7SAPS   C39  901   3.550   2.322   9.943 -0.4827 -0.7181  0.0197
    7SAPS   H9X  902   3.611   2.254   9.879  0.5298  0.0954  0.1017
    7SAPS   H9Y  903   3.613   2.362  10.025 -3.2861 -1.1748  2.5928
    7SAPS  C310  904   3.472   2.441   9.875  0.3968 -0.5847 -0.7528
    7SAPS  H10X  905   3.443   2.506   9.960 -0.1591 -2.1774  0.3073
    7SAPS  H10Y  906   3.376   2.397   9.838  0.2188 -1.1951  0.4018
    7SAPS  C311  907   3.550   2.509   9.762  0.7236 -0.0533  0.3556
    7SAPS  H11X  908   3.655   2.517   9.798  1.2701  0.9915 -1.3449
    7SAPS  H11Y  909   3.510   2.612   9.752 -0.0661  0.0533  3.3717
    7SAPS  C312  910   3.542   2.432   9.632  0.0648  0.1711  0.2602
    7SAPS  H12X  911   3.441   2.448   9.588  0.0727  2.1658  0.8471
    7SAPS  H12Y  912   3.557   2.324   9.652 -0.2234  0.1268  0.2454
    7SAPS  C313  913   3.640   2.491   9.531 -0.5690 -0.4507 -0.4953
    7SAPS  H13X  914   3.739   2.470   9.576 -0.9406  1.1115  1.1994
    7SAPS  H13Y  915   3.628   2.601   9.522  0.0987 -0.0116  2.7117
    7SAPS  C314  916   3.628   2.425   9.399  0.8116 -0.3040  0.6381
    7SAPS  H14X  917   3.521   2.417   9.369  0.9433 -1.4839  0.4310
    7SAPS  H14Y  918   3.670   2.323   9.415 -1.2803 -1.1724  0.9127
    7SAPS  C315  919   3.692   2.508   9.286  0.0598  0.3812  0.2257
    7SAPS  H15X  920   3.800   2.496   9.306  0.1789 -0.1191 -0.6868
    7SAPS  H15Y  921   3.657   2.613   9.297  1.4353  0.9619 -0.7232
    7SAPS  C316  922   3.657   2.460   9.144 -0.2758  0.2796 -1.2249
    7SAPS  H16X  923   3.551   2.483   9.122 -0.6547  1.1859  1.1945
    7SAPS  H16Y  924   3.667   2.350   9.153 -0.8987  0.2920 -0.1239
    7SAPS  C317  925   3.756   2.500   9.042  0.0458 -0.2447  0.3803
    7SAPS  H17X  926   3.858   2.461   9.064  0.8659  0.4567 -1.8412
    7SAPS  H17Y  927   3.762   2.610   9.051  1.8780 -0.1219 -1.3419
    7SAPS  C318  928   3.711   2.465   8.899 -0.0282 -0.2610 -0.0993
    7SAPS  H18X  929   3.709   2.355   8.887 -0.8164 -0.2909  0.2505
    7SAPS  H18Y  930   3.787   2.502   8.827 -0.4116 -2.3083 -1.6259
    7SAPS  H18Z  931   3.609   2.501   8.873  0.6898  1.3757 -0.7847
    8SAPS     N  932   2.619   2.313  11.322  0.4976  0.0661 -0.0954
    8SAPS   HN1  933   2.722   2.318  11.331  0.8068  2.4700 -3.1716
    8SAPS   HN2  934   2.586   2.221  11.358  2.0743 -1.6139 -2.6081
    8SAPS   HN3  935   2.579   2.324  11.226 -0.8030 -0.9362  0.3036
    8SAPS   C12  936   2.552   2.418  11.397  0.3820  0.3481 -0.6134
    8SAPS  H12A  937   2.449   2.388  11.397  0.3233  0.5476 -0.5682
    8SAPS   C13  938   2.597   2.441  11.543  0.4286 -0.2272  0.8578
    8SAPS  O13A  939   2.690   2.367  11.585  0.4799 -0.3770 -0.1244
    8SAPS  O13B  940   2.560   2.543  11.604 -0.0262  0.3425 -0.2441
    8SAPS   C11  941   2.576   2.548  11.309 -0.3598 -0.7222 -0.0624
    8SAPS  H11A  942   2.687   2.562  11.306 -0.6153  1.6907 -0.7691
    8SAPS  H11B  943   2.541   2.640  11.360 -2.5197 -1.3502 -0.3171
    8SAPS     P  944   2.524   2.646  11.074 -0.0310 -0.2120 -0.2675
    8SAPS   O13  945   2.423   2.622  10.968 -0.1210  0.4242 -0.0060
    8SAPS   O14  946   2.524   2.784  11.139  0.1176  0.5620 -0.2291
    8SAPS   O12  947   2.513   2.531  11.182  0.0944 -0.4561  0.1195
    8SAPS   O11  948   2.669   2.612  11.021 -0.0091  0.4566 -0.4373
    8SAPS    C1  949   2.704   2.496  10.950 -0.2377  0.0584  0.2706
    8SAPS    HA  950   2.760   2.433  11.022 -0.1245  1.1292  1.1546
    8SAPS    HB  951   2.615   2.439  10.919 -0.6053  0.6027  0.3081
    8SAPS    C2  952   2.798   2.526  10.826  0.3824 -0.3253 -0.5360
    8SAPS    HS  953   2.871   2.604  10.858 -0.1691  0.2088 -0.5502
    8SAPS   O21  954   2.724   2.554  10.713 -0.4555  0.2719  0.7461
    8SAPS   C21  955   2.692   2.682  10.691  0.2032 -0.0092 -0.0608
    8SAPS   O22  956   2.738   2.774  10.753 -0.0067  0.4397 -0.0219
    8SAPS   C22  957   2.619   2.699  10.560 -0.9989 -0.2785  0.1859
    8SAPS   H2R  958   2.688   2.643  10.492 -0.1305  0.0594  0.7767
    8SAPS   H2S  959   2.515   2.662  10.570 -0.7359 -1.2441 -0.4239
    8SAPS    C3  960   2.878   2.404  10.791 -0.3338 -0.5671 -0.4599
    8SAPS    HX  961   2.810   2.318  10.774 -3.3967  1.7160 -0.5775
    8SAPS    HY  962   2.935   2.381  10.884  1.0783 -0.7354 -1.3471
    8SAPS   O31  963   2.978   2.440  10.688 -0.0283 -0.5731 -0.2439
    8SAPS   C31  964   2.953   2.382  10.568  0.4139  0.4025 -0.3536
    8SAPS   O32  965   2.842   2.343  10.539 -0.1015 -0.1207 -0.0154
    8SAPS   C32  966   3.073   2.398  10.486 -0.2280  0.0315  0.9188
    8SAPS   H2X  967   3.167   2.368  10.537  2.6587 -1.6964 -4.6744
    8SAPS   H2Y  968   3.064   2.507  10.469 -1.5162 -0.2779 -0.6427
    8SAPS   C23  969   2.607   2.853  10.532  0.0179  0.7224  0.0629
    8SAPS   H3R  970   2.704   2.904  10.515 -0.2047  1.5288  1.1521
    8SAPS   H3S  971   2.553   2.909  10.611  0.3011  1.4373 -0.2426
    8SAPS   C24  972   2.539   2.865  10.391  0.2392 -0.5884 -0.4589
    8SAPS   H4R  973   2.432   2.842  10.411  0.1595 -1.1789 -1.5009
    8SAPS   H4S  974   2.575   2.797  10.311  0.6707 -1.3453  0.3653
    8SAPS   C25  975   2.545   3.004  10.340  0.3185 -0.0190  0.2414
    8SAPS   H5R  976   2.622   3.061  10.394  2.4568 -2.7322  0.2804
    8SAPS   C26  977   2.486   3.062  10.233  0.5657  0.5312  0.0327
    8SAPS   H6R  978   2.506   3.168  10.212 -1.3688  1.4782  2.4520
    8SAPS   C27  979   2.376   2.991  10.149 -0.1367  0.8093 -0.1609
    8SAPS   H7R  980   2.410   2.891  10.115  1.3076  0.1587  2.8499
    8SAPS   H7S  981   2.369   3.050  10.055 -1.2758 -0.3338 -0.8201
    8SAPS   C28  982   2.244   2.975  10.220 -0.0575 -0.3029 -0.6778
    8SAPS   H8R  983   2.238   2.980  10.330 -2.7740 -0.5089 -0.7504
    8SAPS   C29  984   2.134   2.936  10.164  0.6317 -0.6459  0.0451
    8SAPS   H9R  985   2.049   2.936  10.234 -0.6489  1.2222 -1.3739
    8SAPS  C210  986   2.102   2.908  10.024 -1.2410 -0.5294 -0.4647
    8SAPS  H10R  987   2.043   2.814  10.025 -0.3202 -1.1443 -1.3674
    8SAPS  H10S  988   2.194   2.867   9.976 -1.6961 -2.2462  0.0516
    8SAPS  C211  989   2.021   3.010   9.941 -0.1471 -0.2022  0.4003
    8SAPS  H11R  990   1.971   3.090   9.997 -1.3293  0.7338 -1.8802
    8SAPS  C212  991   2.014   3.013   9.808 -0.0605 -0.1354 -0.4225
    8SAPS  H12R  992   1.956   3.090   9.755  4.1258  2.4268 -1.7491
    8SAPS  C213  993   2.084   2.910   9.729  0.4935  0.5068 -0.4302
    8SAPS  H13R  994   2.035   2.910   9.629 -1.1703  0.0737  0.3560
    8SAPS  H13S  995   2.067   2.811   9.777  0.8642  0.1730 -0.9727
    8SAPS  C214  996   2.233   2.946   9.709 -0.2658  0.3281 -0.0235
    8SAPS  H14R  997   2.303   2.914   9.788  0.6533 -1.2344 -1.4054
    8SAPS  C215  998   2.287   3.029   9.614 -0.2620  0.2453 -0.1803
    8SAPS  H15R  999   2.388   3.073   9.616 -0.8148  1.5799  1.7667
    8SAPS  C216 1000   2.196   3.087   9.504  0.1733 -1.3704 -0.4256
    8SAPS  H16R 1001   2.221   3.195   9.493 -1.6339 -0.9056 -0.3100
    8SAPS  H16S 1002   2.090   3.079   9.537 -0.7722  2.0978 -2.1079
    8SAPS  C217 1003   2.206   3.042   9.357  0.4938  0.2721  0.2241
    8SAPS  H17R 1004   2.119   3.086   9.304 -0.3790 -1.4258  0.1503
    8SAPS  H17S 1005   2.177   2.934   9.362  0.2756  0.3085 -0.1846
    8SAPS  C218 1006   2.348   3.060   9.307 -0.2256 -0.0225  0.2873
    8SAPS  H18R 1007   2.406   2.972   9.343 -2.1493 -1.3494  0.2975
    8SAPS  H18S 1008   2.392   3.151   9.352 -0.1286 -0.1740  0.5047
    8SAPS  C219 1009   2.366   3.079   9.155 -0.0200  0.1660 -0.0456
    8SAPS  H19R 1010   2.329   3.181   9.131 -0.3777 -0.0146 -0.2707
    8SAPS  H19S 1011   2.300   3.000   9.112 -0.1710 -0.0557  0.5794
    8SAPS  C220 1012   2.502   3.065   9.096 -0.0274 -0.5690  0.4449
    8SAPS  H20R 1013   2.489   3.067   8.986  2.7784  0.0912  0.0490
    8SAPS  H20S 1014   2.548   2.968   9.123 -0.2368 -1.0325 -0.7786
    8SAPS  H20T 1015   2.569   3.147   9.130 -1.9112  2.3601 -2.2837
    8SAPS   C33 1016   3.059   2.325  10.349  0.6447 -0.4373  0.0241
    8SAPS   H3X 1017   3.005   2.229  10.347 -2.7217  1.2551 -4.0296
    8SAPS   H3Y 1018   3.162   2.287  10.331  0.5218 -0.2082 -1.2932
    8SAPS   C34 1019   3.016   2.417  10.236 -0.5019  0.2950  0.2005
    8SAPS   H4X 1020   3.099   2.491  10.223  0.0253 -0.1672  0.9006
    8SAPS   H4Y 1021   2.923   2.471  10.265 -1.5595 -1.5837  0.4587
    8SAPS   C35 1022   2.995   2.335  10.104  0.4656 -0.6743  0.4509
    8SAPS   H5X 1023   2.904   2.278  10.132 -1.0490  1.9741  1.3280
    8SAPS   H5Y 1024   3.084   2.274  10.077 -0.4026 -1.0904 -1.6715
    8SAPS   C36 1025   2.950   2.424   9.987 -0.5581  0.4098  0.0203
    8SAPS   H6X 1026   2.878   2.505  10.013  2.7408  3.6013  0.0182
    8SAPS   H6Y 1027   2.918   2.367   9.897 -0.4246  0.6717 -0.1945
    8SAPS   C37 1028   3.073   2.502   9.935  0.4939 -0.0649 -0.1796
    8SAPS   H7X 1029   3.157   2.436   9.903  0.9513 -0.3011  1.4056
    8SAPS   H7Y 1030   3.118   2.563  10.017 -1.5445  0.1105  0.8615
    8SAPS   C38 1031   3.043   2.605   9.823  0.5170 -0.0245 -0.1643
    8SAPS   H8X 1032   2.980   2.684   9.869 -0.4896 -0.8752 -0.0496
    8SAPS   H8Y 1033   2.974   2.548   9.758 -2.6944  1.1643  1.9583
    8SAPS   C39 1034   3.161   2.670   9.754  0.4252 -0.2363  0.2767
    8SAPS   H9X 1035   3.210   2.591   9.693  3.0437  1.2966  0.2594
    8SAPS   H9Y 1036   3.234   2.719   9.822  0.3814 -1.0317  0.9157
    8SAPS  C310 1037   3.102   2.780   9.660  0.4342  0.4842  0.4749
    8SAPS  H10X 1038   3.115   2.874   9.719 -0.1693  1.5402 -1.0350
    8SAPS  H10Y 1039   2.994   2.760   9.672  0.8687 -1.2600  2.1142
    8SAPS  C311 1040   3.170   2.792   9.523  0.0894 -0.4384 -0.7348
    8SAPS  H11X 1041   3.279   2.798   9.545 -0.5629  2.7231  2.8077
    8SAPS  H11Y 1042   3.141   2.891   9.483 -2.3389 -0.7062  0.2188
    8SAPS  C312 1043   3.127   2.676   9.433 -0.1006  0.2659  0.5469
    8SAPS  H12X 1044   3.016   2.664   9.441 -0.0734 -1.9604 -1.2435
    8SAPS  H12Y 1045   3.169   2.578   9.465 -2.2290 -0.6229  0.8553
    8SAPS  C313 1046   3.160   2.706   9.280  0.6308  0.3103  0.4706
    8SAPS  H13X 1047   3.270   2.717   9.269  0.5540  1.8464  1.0574
    8SAPS  H13Y 1048   3.110   2.801   9.254  1.9922  1.4935  1.9149
    8SAPS  C314 1049   3.107   2.594   9.188  0.0272 -0.5511 -0.3794
    8SAPS  H14X 1050   3.002   2.569   9.215 -0.2564  0.0566 -0.8850
    8SAPS  H14Y 1051   3.172   2.504   9.193  1.6237  0.3278 -3.0584
    8SAPS  C315 1052   3.112   2.638   9.040  0.6869  0.1646 -0.0136
    8SAPS  H15X 1053   3.044   2.726   9.035 -0.3780 -0.5594  0.9993
    8SAPS  H15Y 1054   3.076   2.556   8.976 -0.2933  0.7632 -0.2431
    8SAPS  C316 1055   3.248   2.708   9.003  0.2822  0.3346 -0.1053
    8SAPS  H16X 1056   3.328   2.662   9.065 -0.0300  1.9037  1.5335
    8SAPS  H16Y 1057   3.254   2.815   9.032  3.3661  0.7315 -1.7622
    8SAPS  C317 1058   3.269   2.718   8.854 -0.1394 -0.4309 -0.0673
    8SAPS  H17X 1059   3.204   2.791   8.803 -1.0744  0.0624  1.7619
    8SAPS  H17Y 1060   3.255   2.612   8.822 -2.2093 -0.1746 -0.1028
    8SAPS  C318 1061   3.419   2.761   8.823 -0.5451  0.6027 -0.1135
    8SAPS  H18X 1062   3.418   2.865   8.861  1.5316  1.3315 -1.8647
    8SAPS  H18Y 1063   3.430   2.756   8.713 -1.0192  2.1829 -0.2567
    8SAPS  H18Z 1064   3.492   2.692   8.870 -1.6560 -0.2846  0.3888
    9SAPS     N 1065   4.794   5.751   6.335  0.1513  0.0746 -0.0822
    9SAPS   HN1 1066   4.853   5.826   6.295 -0.5280 -0.2157 -1.7226
    9SAPS   HN2 1067   4.707   5.789   6.376  1.1413  0.8270  1.4167
    9SAPS   HN3 1068   4.841   5.705   6.416 -1.6061  0.9345  1.5105
    9SAPS   C12 1069   4.769   5.645   6.237 -0.7003  0.0379  0.0517
    9SAPS  H12A 1070   4.708   5.565   6.276 -1.9002 -0.9066 -3.4064
    9SAPS   C13 1071   4.685   5.684   6.110  0.1062 -0.1741  0.4533
    9SAPS  O13A 1072   4.615   5.787   6.120 -0.1734 -0.5850 -0.0754
    9SAPS  O13B 1073   4.653   5.591   6.036 -0.2083  0.0112 -0.4578
    9SAPS   C11 1074   4.908   5.592   6.191 -0.6662 -0.1001  0.2434
    9SAPS  H11A 1075   4.984   5.674   6.196 -0.9945  0.1657  3.7906
    9SAPS  H11B 1076   4.906   5.549   6.089 -0.1304 -2.6441  1.2260
    9SAPS     P 1077   5.036   5.495   6.400 -0.3062  0.1921 -0.1784
    9SAPS   O13 1078   4.993   5.393   6.499 -0.4500  0.3154 -0.5162
    9SAPS   O14 1079   5.178   5.485   6.366  0.4070 -0.2639  0.5230
    9SAPS   O12 1080   4.949   5.478   6.263  0.2579 -0.8615 -0.2800
    9SAPS   O11 1081   5.002   5.644   6.456  0.1012  0.6822 -0.4557
    9SAPS    C1 1082   5.111   5.695   6.530 -0.7288  0.0574  0.4493
    9SAPS    HA 1083   5.197   5.726   6.466 -0.2506  0.6218  1.3268
    9SAPS    HB 1084   5.076   5.792   6.571  1.2180  1.1149 -0.2307
    9SAPS    C2 1085   5.175   5.613   6.655  0.2297  0.1667  0.5160
    9SAPS    HS 1086   5.248   5.542   6.611  0.5390  1.7781 -1.7204
    9SAPS   O21 1087   5.064   5.557   6.720 -0.5369 -0.1563 -0.1920
    9SAPS   C21 1088   5.096   5.443   6.788 -0.2729  0.0689  0.9845
    9SAPS   O22 1089   5.203   5.388   6.780 -0.8728  0.3674 -0.1345
    9SAPS   C22 1090   4.977   5.393   6.873 -0.2068 -0.1412  0.4477
    9SAPS   H2R 1091   4.998   5.419   6.979  2.0243 -1.3613  0.3681
    9SAPS   H2S 1092   4.881   5.432   6.832  1.0133  4.1284  1.2039
    9SAPS    C3 1093   5.246   5.713   6.751  0.6938  0.3693 -0.1061
    9SAPS    HX 1094   5.166   5.784   6.780  0.6630  0.0782  0.5502
    9SAPS    HY 1095   5.331   5.771   6.707 -0.2733  1.0526 -1.1248
    9SAPS   O31 1096   5.290   5.649   6.866  0.0087  0.5131 -0.5963
    9SAPS   C31 1097   5.414   5.619   6.911  0.5127  0.2456 -0.5369
    9SAPS   O32 1098   5.515   5.658   6.857 -0.5227  0.4876  0.2810
    9SAPS   C32 1099   5.400   5.517   7.025 -0.8459  0.9099 -0.9643
    9SAPS   H2X 1100   5.504   5.482   7.044 -1.5015 -0.3503  0.5020
    9SAPS   H2Y 1101   5.346   5.426   6.993 -0.9195  1.1700 -1.5933
    9SAPS   C23 1102   4.959   5.239   6.864 -0.9273 -0.5626 -0.1781
    9SAPS   H3R 1103   4.982   5.197   6.764 -1.9213  1.4645 -1.3120
    9SAPS   H3S 1104   4.854   5.212   6.889 -1.1697  0.9759  0.5837
    9SAPS   C24 1105   5.058   5.154   6.954  0.6564 -0.0856  0.7466
    9SAPS   H4R 1106   5.073   5.222   7.041  1.1105  0.1469  0.4878
    9SAPS   H4S 1107   5.154   5.151   6.897 -1.1058  0.8828 -2.5131
    9SAPS   C25 1108   4.999   5.017   6.989 -0.3448 -0.6022 -0.2024
    9SAPS   H5R 1109   4.942   4.958   6.915 -0.8360 -0.5544  0.1362
    9SAPS   C26 1110   5.033   4.957   7.102  0.3147 -0.1386  0.2203
    9SAPS   H6R 1111   4.985   4.863   7.134  2.6137 -1.2717  0.5597
    9SAPS   C27 1112   5.120   5.003   7.221 -0.3198  0.4365  0.0343
    9SAPS   H7R 1113   5.053   5.019   7.308  1.4173  2.4579  1.0901
    9SAPS   H7S 1114   5.171   5.101   7.207  1.3288 -0.1070  1.8155
    9SAPS   C28 1115   5.227   4.908   7.257  0.2748  0.5478  0.0460
    9SAPS   H8R 1116   5.317   4.929   7.197 -0.4922 -1.2861 -1.8772
    9SAPS   C29 1117   5.222   4.801   7.345  0.0043 -0.1806 -0.1013
    9SAPS   H9R 1118   5.313   4.746   7.375 -1.8821 -2.3839  2.1202
    9SAPS  C210 1119   5.097   4.757   7.417  0.0424 -0.1839  0.5099
    9SAPS  H10R 1120   5.103   4.648   7.441  0.0269  0.3718  3.4848
    9SAPS  H10S 1121   5.004   4.787   7.365  0.5156 -0.0780 -0.2832
    9SAPS  C211 1122   5.089   4.830   7.550 -0.5009  0.0278  0.3686
    9SAPS  H11R 1123   5.160   4.910   7.577 -0.6778 -0.4848  2.6110
    9SAPS  C212 1124   4.986   4.817   7.640  0.7111 -0.6132  0.1831
    9SAPS  H12R 1125   4.994   4.861   7.741  1.2120  0.4212 -0.3015
    9SAPS  C213 1126   4.865   4.719   7.634  0.9146 -0.1004  0.0878
    9SAPS  H13R 1127   4.896   4.617   7.602  0.0423 -0.8697  1.6102
    9SAPS  H13S 1128   4.798   4.763   7.557  0.2586  0.4001  0.9304
    9SAPS  C214 1129   4.787   4.709   7.765  0.1894 -0.4193  0.1307
    9SAPS  H14R 1130   4.713   4.790   7.767  2.5929  1.9209  0.2569
    9SAPS  C215 1131   4.786   4.605   7.847  0.1136  0.1998 -0.7566
    9SAPS  H15R 1132   4.728   4.606   7.941 -0.3990  0.8387 -1.0760
    9SAPS  C216 1133   4.864   4.479   7.836  0.6506  0.5423 -0.2294
    9SAPS  H16R 1134   4.967   4.487   7.795 -0.1779  0.2500 -2.5045
    9SAPS  H16S 1135   4.800   4.413   7.774 -0.6602  2.5362 -1.1279
    9SAPS  C217 1136   4.889   4.423   7.985 -0.0940  0.0398 -0.0281
    9SAPS  H17R 1137   4.934   4.505   8.044  0.0365 -0.0085 -0.0626
    9SAPS  H17S 1138   4.951   4.332   7.976 -1.4869 -0.9791  0.3297
    9SAPS  C218 1139   4.756   4.375   8.060 -0.3240  0.5047  0.1532
    9SAPS  H18R 1140   4.707   4.290   8.008  0.6427 -0.5416  0.8819
    9SAPS  H18S 1141   4.679   4.452   8.079 -0.3051  0.3976  0.6890
    9SAPS  C219 1142   4.798   4.315   8.196 -0.1679  0.4433  0.2908
    9SAPS  H19R 1143   4.859   4.387   8.254  1.1772 -0.0113 -0.5123
    9SAPS  H19S 1144   4.874   4.237   8.176 -0.0468  0.4027  0.8933
    9SAPS  C220 1145   4.677   4.257   8.281 -0.0500 -0.6673 -0.2587
    9SAPS  H20R 1146   4.619   4.351   8.292  2.1238  0.8414 -1.0911
    9SAPS  H20S 1147   4.715   4.215   8.376  1.5912 -0.1851 -0.6748
    9SAPS  H20T 1148   4.627   4.174   8.226  2.6600 -2.7857  0.2631
    9SAPS   C33 1149   5.351   5.576   7.153 -0.2428 -0.0881  0.3189
    9SAPS   H3X 1150   5.273   5.653   7.134 -1.0093 -0.8574  0.2331
    9SAPS   H3Y 1151   5.445   5.616   7.195 -0.2352  0.9136 -0.6078
    9SAPS   C34 1152   5.270   5.487   7.245  0.5573  0.7744 -0.6742
    9SAPS   H4X 1153   5.173   5.461   7.197  0.0189  1.3488  0.0810
    9SAPS   H4Y 1154   5.249   5.545   7.337  1.3486  0.3128 -0.1957
    9SAPS   C35 1155   5.349   5.363   7.299 -0.6511  0.5701  0.6583
    9SAPS   H5X 1156   5.448   5.412   7.306 -0.7073  0.5950  1.2903
    9SAPS   H5Y 1157   5.359   5.282   7.223 -0.9329  0.5925  0.5979
    9SAPS   C36 1158   5.296   5.315   7.436  0.1086  0.0166  0.3573
    9SAPS   H6X 1159   5.324   5.207   7.436 -1.6512 -0.5156 -1.3884
    9SAPS   H6Y 1160   5.185   5.313   7.429  0.1448 -0.6760 -0.2038
    9SAPS   C37 1161   5.353   5.392   7.555 -0.6329 -0.0129 -0.3440
    9SAPS   H7X 1162   5.316   5.497   7.559 -0.3474  0.1697 -1.9013
    9SAPS   H7Y 1163   5.464   5.386   7.550 -0.6330 -1.7794  0.8799
    9SAPS   C38 1164   5.307   5.324   7.689 -0.4558 -0.3337  0.0905
    9SAPS   H8X 1165   5.343   5.222   7.717 -0.5116  0.4682  3.5072
    9SAPS   H8Y 1166   5.197   5.327   7.702 -0.4197  1.6484  0.2551
    9SAPS   C39 1167   5.356   5.394   7.824  0.1771 -0.8685  1.0781
    9SAPS   H9X 1168   5.337   5.503   7.817  0.7918 -0.7911  0.5472
    9SAPS   H9Y 1169   5.467   5.392   7.834  0.1662 -0.7296  1.2376
    9SAPS  C310 1170   5.296   5.339   7.956 -0.3809 -0.0070  0.5105
    9SAPS  H10X 1171   5.312   5.229   7.956  0.9485  0.1626  0.1806
    9SAPS  H10Y 1172   5.187   5.356   7.950 -0.3875  1.7184  3.4304
    9SAPS  C311 1173   5.359   5.408   8.083 -0.3133  0.4385  0.2732
    9SAPS  H11X 1174   5.464   5.375   8.096 -0.9262 -0.8141  2.8601
    9SAPS  H11Y 1175   5.303   5.382   8.176  0.1582  0.6368  0.6140
    9SAPS  C312 1176   5.380   5.554   8.065  0.3838 -0.2404 -0.3517
    9SAPS  H12X 1177   5.283   5.608   8.056 -0.0693 -1.1046 -0.7203
    9SAPS  H12Y 1178   5.435   5.586   7.974 -2.8733  0.2790 -2.3226
    9SAPS  C313 1179   5.442   5.623   8.184 -0.0053  0.6965 -0.4326
    9SAPS  H13X 1180   5.469   5.726   8.151  0.0182  1.1377  0.9085
    9SAPS  H13Y 1181   5.538   5.580   8.219 -1.4587 -0.1404  2.9505
    9SAPS  C314 1182   5.348   5.623   8.308  0.2473  0.0404  0.5371
    9SAPS  H14X 1183   5.346   5.520   8.350 -0.1386 -0.7213 -1.2260
    9SAPS  H14Y 1184   5.247   5.644   8.267 -0.0817  1.4287  1.9598
    9SAPS  C315 1185   5.378   5.744   8.401  0.0624  0.0910  0.6806
    9SAPS  H15X 1186   5.405   5.831   8.338 -0.0458  0.0809  0.6202
    9SAPS  H15Y 1187   5.468   5.728   8.465 -1.0537  1.0582  2.5896
    9SAPS  C316 1188   5.260   5.785   8.492 -0.0369 -0.5689 -0.2643
    9SAPS  H16X 1189   5.228   5.688   8.536  2.3614 -1.8175 -1.0743
    9SAPS  H16Y 1190   5.182   5.835   8.431  0.5416  0.2598 -0.3368
    9SAPS  C317 1191   5.300   5.873   8.604  0.2259  0.4039 -0.9015
    9SAPS  H17X 1192   5.215   5.889   8.674  0.1606 -0.6403 -0.7385
    9SAPS  H17Y 1193   5.331   5.971   8.562  0.1904 -0.2373 -2.4577
    9SAPS  C318 1194   5.411   5.815   8.699 -0.8765  0.6836  0.5886
    9SAPS  H18X 1195   5.416   5.704   8.704  2.7472  0.3495 -3.9760
    9SAPS  H18Y 1196   5.408   5.839   8.808 -1.0138 -0.6354  0.8923
    9SAPS  H18Z 1197   5.508   5.859   8.667  0.6973 -0.9885  2.7928
   10SAPS     N 1198   6.634   5.268   6.206 -0.1665  0.2990 -0.0041
   10SAPS   HN1 1199   6.696   5.267   6.122 -1.9843 -1.1722 -1.4111
   10SAPS   HN2 1200   6.682   5.329   6.274  0.2643 -0.3167  0.2579
   10SAPS   HN3 1201   6.632   5.176   6.255 -1.6516  1.4311  2.2040
   10SAPS   C12 1202   6.494   5.309   6.180 -0.1280 -0.3426 -0.0103
   10SAPS  H12A 1203   6.509   5.414   6.162  0.4679 -0.1176  1.6583
   10SAPS   C13 1204   6.414   5.243   6.062  0.1808  0.0123  0.2083
   10SAPS  O13A 1205   6.471   5.151   5.996 -0.3057 -0.8292  0.1145
   10SAPS  O13B 1206   6.296   5.279   6.046 -0.4369  0.1821  0.7553
   10SAPS   C11 1207   6.417   5.285   6.310 -0.7831  0.0930 -0.0205
   10SAPS  H11A 1208   6.371   5.183   6.307 -0.7095 -0.0699  2.2887
   10SAPS  H11B 1209   6.332   5.357   6.311 -0.3666  0.6304  1.9212
   10SAPS     P 1210   6.448   5.229   6.561 -0.0525 -0.2638 -0.0928
   10SAPS   O13 1211   6.446   5.087   6.523 -0.5035 -0.6306 -0.0199
   10SAPS   O14 1212   6.541   5.265   6.670  0.5085 -0.0665 -0.5282
   10SAPS   O12 1213   6.504   5.306   6.426  0.1952  0.4272  0.1546
   10SAPS   O11 1214   6.307   5.285   6.576 -0.4116  0.5204 -0.1409
   10SAPS    C1 1215   6.278   5.427   6.578 -0.5892 -0.1830 -0.1856
   10SAPS    HA 1216   6.367   5.489   6.555  0.9571 -2.4626 -0.7821
   10SAPS    HB 1217   6.198   5.455   6.506 -2.6683  1.5105  2.5916
   10SAPS    C2 1218   6.210   5.459   6.718  0.3249  0.4461 -0.8295
   10SAPS    HS 1219   6.189   5.568   6.724 -0.7263  0.2251 -0.2969
   10SAPS   O21 1220   6.296   5.413   6.829  0.2522 -0.0387 -0.1008
   10SAPS   C21 1221   6.413   5.479   6.840 -0.3013 -0.2690  0.1304
   10SAPS   O22 1222   6.447   5.577   6.774  0.8198  0.0393  0.4380
   10SAPS   C22 1223   6.503   5.424   6.946  0.1281  0.2832 -1.0762
   10SAPS   H2R 1224   6.440   5.357   7.010  2.3720  0.2811  1.2934
   10SAPS   H2S 1225   6.576   5.357   6.896 -2.7079 -1.3337 -3.4022
   10SAPS    C3 1226   6.070   5.393   6.733 -0.6552  0.1621  0.7406
   10SAPS    HX 1227   6.095   5.286   6.751 -0.7853  0.4417  2.8173
   10SAPS    HY 1228   6.016   5.404   6.636  2.7665  2.9633 -1.0732
   10SAPS   O31 1229   6.006   5.447   6.852  0.4469 -0.8268 -0.2589
   10SAPS   C31 1230   5.885   5.396   6.868  0.2712 -1.1135  1.2994
   10SAPS   O32 1231   5.827   5.316   6.791 -0.1395 -0.3797  0.7198
   10SAPS   C32 1232   5.833   5.459   6.998  0.0070  0.3151 -0.0196
   10SAPS   H2X 1233   5.725   5.430   7.001  0.0953 -0.0313 -0.1551
   10SAPS   H2Y 1234   5.832   5.570   6.998 -0.8529  0.3421 -1.6463
   10SAPS   C23 1235   6.577   5.535   7.029  0.3351  0.0615  0.3608
   10SAPS   H3R 1236   6.507   5.616   7.060 -1.1592 -0.2350 -1.9577
   10SAPS   H3S 1237   6.649   5.582   6.958 -0.9821 -0.9772 -1.7888
   10SAPS   C24 1238   6.626   5.472   7.162 -0.8553 -0.3137 -0.0883
   10SAPS   H4R 1239   6.543   5.420   7.215 -1.1829 -0.0091 -0.2922
   10SAPS   H4S 1240   6.652   5.562   7.222 -2.7755  0.7853 -0.8153
   10SAPS   C25 1241   6.736   5.374   7.149  0.3872  0.4737 -0.3945
   10SAPS   H5R 1242   6.725   5.295   7.073  0.7858  0.9638 -0.9653
   10SAPS   C26 1243   6.862   5.395   7.198 -0.5612  0.2946 -0.4700
   10SAPS   H6R 1244   6.938   5.317   7.186  0.7764  0.9726  2.6662
   10SAPS   C27 1245   6.906   5.507   7.290  0.0797  0.1231  0.3222
   10SAPS   H7R 1246   6.854   5.604   7.277  3.4578  1.9000 -1.3065
   10SAPS   H7S 1247   7.011   5.533   7.265 -0.1979  0.9309 -0.0471
   10SAPS   C28 1248   6.892   5.468   7.434 -0.7969  0.1188  0.5918
   10SAPS   H8R 1249   6.913   5.362   7.455 -2.5699 -0.5357 -0.6856
   10SAPS   C29 1250   6.868   5.552   7.540 -0.1383  0.1266  0.4663
   10SAPS   H9R 1251   6.866   5.506   7.639  0.6931  0.4454  0.6438
   10SAPS  C210 1252   6.851   5.704   7.535 -0.4780  0.2751  1.1355
   10SAPS  H10R 1253   6.917   5.739   7.453 -0.2511 -2.1737  0.1884
   10SAPS  H10S 1254   6.890   5.731   7.636  0.9004 -0.3008  0.7721
   10SAPS  C211 1255   6.709   5.741   7.513  0.0960 -0.1276  0.3612
   10SAPS  H11R 1256   6.655   5.687   7.433 -1.4728  1.2773  0.4162
   10SAPS  C212 1257   6.628   5.825   7.580  0.7081 -0.9365 -0.3225
   10SAPS  H12R 1258   6.529   5.853   7.544  0.5799  2.1298  1.9740
   10SAPS  C213 1259   6.678   5.914   7.698  0.6322 -0.5053 -0.1747
   10SAPS  H13R 1260   6.677   6.018   7.659 -1.8648 -1.3358 -2.6587
   10SAPS  H13S 1261   6.785   5.895   7.724  0.6183 -0.5664 -0.1618
   10SAPS  C214 1262   6.589   5.902   7.820 -0.4105 -0.0020 -0.0495
   10SAPS  H14R 1263   6.508   5.977   7.827 -0.5850  0.0982 -2.2723
   10SAPS  C215 1264   6.591   5.802   7.906 -0.4838 -0.2087  0.2145
   10SAPS  H15R 1265   6.513   5.802   7.984 -0.6583  0.1643  0.0413
   10SAPS  C216 1266   6.697   5.690   7.912  0.3638 -0.4321  0.2247
   10SAPS  H16R 1267   6.758   5.691   7.819 -2.1747  1.0452 -1.5535
   10SAPS  H16S 1268   6.655   5.588   7.920  1.6311 -1.0461 -0.6493
   10SAPS  C217 1269   6.793   5.707   8.028 -0.6047 -0.0983 -1.5838
   10SAPS  H17R 1270   6.854   5.800   8.021  2.6424 -1.8339  0.9731
   10SAPS  H17S 1271   6.862   5.620   8.031  1.1077  1.1150  3.0587
   10SAPS  C218 1272   6.721   5.711   8.169 -0.4288 -0.0235  0.3063
   10SAPS  H18R 1273   6.674   5.612   8.182  1.1981 -1.0786 -1.3802
   10SAPS  H18S 1274   6.641   5.788   8.172 -0.9969 -0.4250 -2.3841
   10SAPS  C219 1275   6.813   5.730   8.297 -0.2176  0.1806  0.4963
   10SAPS  H19R 1276   6.753   5.741   8.389 -0.3907 -0.8326  0.5102
   10SAPS  H19S 1277   6.865   5.826   8.276  1.0923 -0.9620 -1.9150
   10SAPS  C220 1278   6.918   5.620   8.307 -0.4537  0.3090 -0.0322
   10SAPS  H20R 1279   7.001   5.641   8.378 -0.3515 -2.2650  0.7031
   10SAPS  H20S 1280   6.953   5.582   8.209 -1.2565 -2.1568  0.5690
   10SAPS  H20T 1281   6.875   5.524   8.342 -1.1631  0.1625 -1.2842
   10SAPS   C33 1282   5.902   5.391   7.115 -0.3155  0.0305  0.7124
   10SAPS   H3X 1283   6.008   5.427   7.119 -0.2971  0.9003 -3.0969
   10SAPS   H3Y 1284   5.905   5.282   7.098 -0.5753  0.2444 -0.8900
   10SAPS   C34 1285   5.824   5.417   7.242  0.3112 -0.0599 -0.0717
   10SAPS   H4X 1286   5.730   5.359   7.246  0.9636 -1.1073  0.3255
   10SAPS   H4Y 1287   5.802   5.526   7.238  1.3523  0.2197  1.2170
   10SAPS   C35 1288   5.889   5.368   7.374 -0.9682  0.0267  0.7286
   10SAPS   H5X 1289   5.994   5.403   7.379 -1.2645  1.2258 -0.8421
   10SAPS   H5Y 1290   5.891   5.256   7.373 -0.8178  0.0243  1.0130
   10SAPS   C36 1291   5.805   5.402   7.500  0.3301  0.6785 -0.9727
   10SAPS   H6X 1292   5.701   5.367   7.482  0.7414 -0.6908 -0.7905
   10SAPS   H6Y 1293   5.809   5.512   7.516 -1.2407  0.6289 -0.0601
   10SAPS   C37 1294   5.875   5.342   7.626 -0.1706 -0.5655 -0.3638
   10SAPS   H7X 1295   5.972   5.393   7.644  0.3885 -1.9129  0.6015
   10SAPS   H7Y 1296   5.893   5.235   7.601  1.4325 -0.3399 -0.2827
   10SAPS   C38 1297   5.794   5.338   7.755  0.5771  0.0574  0.5779
   10SAPS   H8X 1298   5.722   5.254   7.753  0.6965 -0.0481  0.6732
   10SAPS   H8Y 1299   5.734   5.432   7.760 -1.1741 -0.9326 -0.6540
   10SAPS   C39 1300   5.874   5.327   7.886 -1.4258 -0.0573 -0.5207
   10SAPS   H9X 1301   5.953   5.405   7.887 -1.5712  0.1353 -1.9689
   10SAPS   H9Y 1302   5.920   5.226   7.880  1.9330  1.3253 -0.4948
   10SAPS  C310 1303   5.797   5.353   8.017  0.2677  0.3413  0.5125
   10SAPS  H10X 1304   5.705   5.292   8.012  0.9970 -1.0203  2.7230
   10SAPS  H10Y 1305   5.756   5.456   8.028 -1.4261 -0.4870  2.4761
   10SAPS  C311 1306   5.879   5.327   8.143 -1.0337 -1.0707 -0.5575
   10SAPS  H11X 1307   5.814   5.349   8.231  1.1576 -2.2069  1.4835
   10SAPS  H11Y 1308   5.966   5.395   8.153 -1.1759 -1.0547  0.7128
   10SAPS  C312 1309   5.928   5.180   8.146  0.2781 -0.2400  0.7610
   10SAPS  H12X 1310   5.984   5.173   8.242  0.3412 -1.0236  0.6683
   10SAPS  H12Y 1311   6.000   5.175   8.062  0.4624 -0.4289  0.9321
   10SAPS  C313 1312   5.822   5.067   8.149  0.1693 -0.1334  0.7017
   10SAPS  H13X 1313   5.765   5.078   8.055  0.8717 -1.5553  0.0784
   10SAPS  H13Y 1314   5.748   5.077   8.231  0.6010 -0.8558  1.2044
   10SAPS  C314 1315   5.873   4.928   8.167 -0.2413  0.7108  0.6583
   10SAPS  H14X 1316   5.948   4.924   8.249  1.0556 -1.8851 -0.5539
   10SAPS  H14Y 1317   5.921   4.891   8.074 -1.4914  0.4087  0.1073
   10SAPS  C315 1318   5.755   4.831   8.193  0.2475 -0.5901  0.5574
   10SAPS  H15X 1319   5.678   4.854   8.117 -0.1818  1.6425  1.5850
   10SAPS  H15Y 1320   5.712   4.860   8.292  0.4943  1.6939  0.0421
   10SAPS  C316 1321   5.788   4.679   8.202  0.3107 -0.6203  0.4027
   10SAPS  H16X 1322   5.823   4.640   8.300 -2.4741  1.0186  2.1624
   10SAPS  H16Y 1323   5.866   4.647   8.129 -0.1216  1.5608 -1.0902
   10SAPS  C317 1324   5.663   4.603   8.167 -0.2823 -0.6395 -0.2592
   10SAPS  H17X 1325   5.682   4.495   8.152 -1.1308 -0.8012 -0.2181
   10SAPS  H17Y 1326   5.618   4.644   8.074 -0.5255  0.3233  0.2656
   10SAPS  C318 1327   5.538   4.618   8.265 -0.5984 -1.0146  0.0760
   10SAPS  H18X 1328   5.561   4.563   8.359  1.8916 -2.1639 -1.0960
   10SAPS  H18Y 1329   5.453   4.570   8.212 -1.6015  0.6498  0.0901
   10SAPS  H18Z 1330   5.505   4.722   8.286 -1.4196 -1.9421  4.4435
   11SAPS     N 1331   0.961   1.897   5.856  0.2311 -0.5249 -0.0091
   11SAPS   HN1 1332   1.028   1.818   5.865 -0.7004 -1.1837  1.6181
   11SAPS   HN2 1333   0.905   1.898   5.769 -1.0586 -0.9443  0.7785
   11SAPS   HN3 1334   1.016   1.984   5.874 -1.4158  0.3368  1.2273
   11SAPS   C12 1335   0.851   1.886   5.964 -0.1374  0.2340  0.6056
   11SAPS  H12A 1336   0.892   1.876   6.063  2.3142  0.1236 -0.3349
   11SAPS   C13 1337   0.758   2.006   5.972  0.0564  0.0752 -0.2544
   11SAPS  O13A 1338   0.783   2.119   5.908  0.5137 -0.0509 -0.2162
   11SAPS  O13B 1339   0.665   1.997   6.056  0.2633 -0.2925  0.2968
   11SAPS   C11 1340   0.752   1.763   5.945  0.0306 -0.1527  0.5967
   11SAPS  H11A 1341   0.660   1.788   5.887  0.4163 -0.6810 -0.2481
   11SAPS  H11B 1342   0.721   1.739   6.049  1.9615  0.7033  1.4211
   11SAPS     P 1343   0.758   1.507   5.895 -0.5303 -0.0931  0.2648
   11SAPS   O13 1344   0.636   1.499   5.809 -0.3985 -0.2899 -0.2910
   11SAPS   O14 1345   0.866   1.408   5.874 -0.5190 -0.1522  0.3055
   11SAPS   O12 1346   0.820   1.655   5.883  0.8743  0.7915 -0.4127
   11SAPS   O11 1347   0.719   1.487   6.047  0.1322 -0.8145  0.0633
   11SAPS    C1 1348   0.824   1.461   6.149 -0.1306 -0.2048  0.2413
   11SAPS    HA 1349   0.852   1.354   6.139 -1.4871 -0.6853  1.2628
   11SAPS    HB 1350   0.913   1.527   6.147  0.0718 -0.4720  0.3291
   11SAPS    C2 1351   0.771   1.484   6.293 -0.4410 -0.0355 -0.4584
   11SAPS    HS 1352   0.691   1.410   6.313  0.9909 -1.1985  1.3815
   11SAPS   O21 1353   0.718   1.619   6.301 -0.8031  0.0647 -0.7210
   11SAPS   C21 1354   0.621   1.631   6.389  0.3244 -0.5828  0.0829
   11SAPS   O22 1355   0.568   1.540   6.444  0.2785  0.7524 -0.4779
   11SAPS   C22 1356   0.561   1.769   6.387 -0.5761 -0.0989 -0.0883
   11SAPS   H2R 1357   0.623   1.821   6.311 -1.3338 -1.6452 -1.8239
   11SAPS   H2S 1358   0.454   1.762   6.359  0.0719 -3.0428 -2.2911
   11SAPS    C3 1359   0.879   1.471   6.401  0.7901  0.3804  0.5323
   11SAPS    HX 1360   0.964   1.541   6.385  2.1320 -1.1392  0.6378
   11SAPS    HY 1361   0.919   1.371   6.371  0.8380  1.5193 -3.8226
   11SAPS   O31 1362   0.824   1.481   6.534 -0.2677  0.4261  0.0569
   11SAPS   C31 1363   0.785   1.365   6.585  0.8537  0.2462  0.3416
   11SAPS   O32 1364   0.775   1.262   6.523  0.0181 -0.1608  0.3327
   11SAPS   C32 1365   0.763   1.380   6.737 -0.2771 -0.3034  0.3202
   11SAPS   H2X 1366   0.655   1.399   6.753 -0.4494 -1.9868  1.4443
   11SAPS   H2Y 1367   0.817   1.471   6.772 -0.6448  0.6058 -1.3804
   11SAPS   C23 1368   0.573   1.816   6.542 -0.4233 -0.3240  0.1368
   11SAPS   H3R 1369   0.492   1.774   6.605 -1.3164  0.6946 -0.3130
   11SAPS   H3S 1370   0.549   1.924   6.529  0.6275 -0.2389 -1.3800
   11SAPS   C24 1371   0.711   1.799   6.606  0.4549  0.6016  0.4593
   11SAPS   H4R 1372   0.790   1.816   6.530 -0.5004  2.4658 -0.1834
   11SAPS   H4S 1373   0.720   1.696   6.646  0.2464 -0.4292 -1.9967
   11SAPS   C25 1374   0.736   1.895   6.719 -0.0606 -0.1821 -0.5117
   11SAPS   H5R 1375   0.785   1.990   6.694 -0.0184  0.9212  3.0778
   11SAPS   C26 1376   0.729   1.870   6.851  0.4202 -0.0873 -0.0418
   11SAPS   H6R 1377   0.762   1.955   6.913  2.4571 -1.7324  1.2360
   11SAPS   C27 1378   0.690   1.745   6.929 -0.2247  0.3849 -0.6797
   11SAPS   H7R 1379   0.667   1.670   6.850  2.7146 -2.2009  0.7159
   11SAPS   H7S 1380   0.599   1.758   6.991 -1.6504 -0.2604 -2.5334
   11SAPS   C28 1381   0.806   1.698   7.011 -0.4172 -0.9555 -0.1920
   11SAPS   H8R 1382   0.909   1.707   6.974  0.0443  0.1002  1.2696
   11SAPS   C29 1383   0.808   1.681   7.144  0.0143  0.5246 -0.1810
   11SAPS   H9R 1384   0.904   1.657   7.191 -0.9496 -0.1144  1.5776
   11SAPS  C210 1385   0.696   1.689   7.244  0.2956 -0.6096  0.0085
   11SAPS  H10R 1386   0.683   1.591   7.294  1.2822 -1.8525 -2.0442
   11SAPS  H10S 1387   0.603   1.702   7.185  1.1050 -0.6429 -1.3277
   11SAPS  C211 1388   0.720   1.802   7.340 -0.1433 -0.8577  0.6731
   11SAPS  H11R 1389   0.693   1.906   7.313  0.4017 -1.5190 -2.9856
   11SAPS  C212 1390   0.769   1.777   7.464  0.8950 -0.1306 -0.0715
   11SAPS  H12R 1391   0.778   1.859   7.536 -0.5128 -1.3234  1.5565
   11SAPS  C213 1392   0.800   1.644   7.519 -0.0403 -0.0457 -0.2843
   11SAPS  H13R 1393   0.892   1.661   7.580 -1.6212 -0.8981  2.5395
   11SAPS  H13S 1394   0.839   1.574   7.443  3.6465  1.3104  0.1281
   11SAPS  C214 1395   0.689   1.582   7.607  0.3716 -0.0034  0.0057
   11SAPS  H14R 1396   0.609   1.532   7.551  0.4044 -0.6569  0.5314
   11SAPS  C215 1397   0.675   1.604   7.742 -0.3356  0.1687  0.7423
   11SAPS  H15R 1398   0.602   1.543   7.799 -0.3075 -0.5007  0.0847
   11SAPS  C216 1399   0.763   1.685   7.829 -0.2031  0.4684 -0.8572
   11SAPS  H16R 1400   0.704   1.757   7.891  0.0400  0.6068 -0.7854
   11SAPS  H16S 1401   0.841   1.746   7.779  0.6317 -1.7165 -2.3333
   11SAPS  C217 1402   0.822   1.590   7.936 -0.0606  0.0080  0.0749
   11SAPS  H17R 1403   0.874   1.508   7.883 -1.8040  0.6036 -2.7807
   11SAPS  H17S 1404   0.740   1.559   8.004 -1.0318  2.7818  0.2860
   11SAPS  C218 1405   0.905   1.672   8.031 -0.1211 -0.3304  0.1784
   11SAPS  H18R 1406   0.835   1.738   8.085  1.2810  0.0215  1.6518
   11SAPS  H18S 1407   0.961   1.730   7.954 -0.4903  0.7061  0.6802
   11SAPS  C219 1408   1.006   1.603   8.123 -0.2881 -0.0856 -0.3779
   11SAPS  H19R 1409   1.073   1.681   8.166 -0.0130 -0.3191 -0.3785
   11SAPS  H19S 1410   1.067   1.530   8.065  2.3482  1.3184  0.4885
   11SAPS  C220 1411   0.941   1.529   8.238 -0.1477 -0.6622 -0.0721
   11SAPS  H20R 1412   0.857   1.471   8.195 -1.8976  0.1582  2.0345
   11SAPS  H20S 1413   0.879   1.594   8.304 -2.1195 -2.3575 -0.1765
   11SAPS  H20T 1414   1.009   1.459   8.291  0.3866  1.2803  1.9607
   11SAPS   C33 1415   0.811   1.260   6.823  0.0871 -0.3071  0.3240
   11SAPS   H3X 1416   0.920   1.243   6.811  0.0025 -1.6062  1.2197
   11SAPS   H3Y 1417   0.752   1.171   6.794  0.2844 -0.1172 -0.6814
   11SAPS   C34 1418   0.771   1.294   6.969 -0.3135 -0.2914  0.1573
   11SAPS   H4X 1419   0.660   1.290   6.974 -0.2647 -0.9040  1.1711
   11SAPS   H4Y 1420   0.801   1.398   6.997  0.9325  0.1227 -2.3831
   11SAPS   C35 1421   0.840   1.211   7.075  0.0027 -0.0090 -0.3190
   11SAPS   H5X 1422   0.951   1.220   7.068  0.0169 -0.3879 -0.6280
   11SAPS   H5Y 1423   0.810   1.105   7.065 -1.7109  0.1816  1.8620
   11SAPS   C36 1424   0.799   1.265   7.216  0.0097 -0.2752 -0.0627
   11SAPS   H6X 1425   0.689   1.253   7.203  0.0229 -0.0564 -0.3796
   11SAPS   H6Y 1426   0.810   1.374   7.231  0.0736 -0.0801 -1.4205
   11SAPS   C37 1427   0.850   1.186   7.338  0.2257 -0.7915 -0.5325
   11SAPS   H7X 1428   0.960   1.196   7.351  0.0674  2.3212 -0.9569
   11SAPS   H7Y 1429   0.836   1.080   7.306 -0.5057 -0.9873  0.4009
   11SAPS   C38 1430   0.782   1.217   7.469 -0.7584  0.4576 -0.1714
   11SAPS   H8X 1431   0.674   1.191   7.464 -0.6469  0.0116 -0.3280
   11SAPS   H8Y 1432   0.785   1.326   7.490 -1.1884  0.3306  0.5593
   11SAPS   C39 1433   0.842   1.141   7.590 -0.3488  0.0381  0.2691
   11SAPS   H9X 1434   0.953   1.141   7.587 -0.3334  0.8806 -3.1843
   11SAPS   H9Y 1435   0.813   1.036   7.566  1.2871  0.1442 -2.6499
   11SAPS  C310 1436   0.789   1.186   7.737  0.4992  0.3118 -0.3719
   11SAPS  H10X 1437   0.682   1.214   7.730  0.5430  0.4242 -0.6081
   11SAPS  H10Y 1438   0.845   1.281   7.751 -0.0390  0.3556  1.6868
   11SAPS  C311 1439   0.825   1.073   7.836  0.2173 -0.5096  0.2780
   11SAPS  H11X 1440   0.935   1.061   7.825  0.3994  0.4729  0.9057
   11SAPS  H11Y 1441   0.772   0.982   7.801 -2.0922  0.7380  0.3357
   11SAPS  C312 1442   0.783   1.108   7.984  1.4340  0.0439  0.5748
   11SAPS  H12X 1443   0.672   1.111   7.986  1.3806 -0.6503 -0.6862
   11SAPS  H12Y 1444   0.820   1.207   8.020  0.0562 -0.0978  2.5840
   11SAPS  C313 1445   0.844   1.002   8.077 -0.1385 -0.5214  0.3184
   11SAPS  H13X 1446   0.952   0.999   8.051  0.2852  1.9422  1.5240
   11SAPS  H13Y 1447   0.787   0.907   8.065 -2.1377  0.4377  1.6957
   11SAPS  C314 1448   0.826   1.052   8.220 -0.4614 -0.0308  0.8678
   11SAPS  H14X 1449   0.717   1.037   8.230 -0.3379 -0.2981  1.9781
   11SAPS  H14Y 1450   0.845   1.161   8.213  0.1832 -0.0627  1.8840
   11SAPS  C315 1451   0.908   0.976   8.327 -0.4023 -0.0829  0.0415
   11SAPS  H15X 1452   1.014   0.963   8.299 -0.5617 -1.5789  0.0550
   11SAPS  H15Y 1453   0.863   0.875   8.337 -0.4223 -0.5076 -3.3182
   11SAPS  C316 1454   0.893   1.047   8.465  0.0189  0.7921  0.1435
   11SAPS  H16X 1455   0.926   0.977   8.544  0.7517  0.6047 -0.3148
   11SAPS  H16Y 1456   0.785   1.071   8.475 -0.7966 -2.1336 -0.6221
   11SAPS  C317 1457   0.965   1.178   8.491  0.1890  0.7812  1.0799
   11SAPS  H17X 1458   0.946   1.242   8.402 -4.3816 -0.6790  0.7326
   11SAPS  H17Y 1459   1.074   1.161   8.505 -0.0757 -0.5932  1.6292
   11SAPS  C318 1460   0.906   1.258   8.612 -0.4320 -0.2680  0.9383
   11SAPS  H18X 1461   0.888   1.188   8.696  0.6101  1.3535  2.5715
   11SAPS  H18Y 1462   0.802   1.288   8.583 -0.1576 -2.0794 -2.5338
   11SAPS  H18Z 1463   0.966   1.349   8.631 -1.2339  0.5531 -0.2780
   12SAPS     N 1464   0.057   1.483   5.777  0.1775 -0.0104 -0.1809
   12SAPS   HN1 1465  -0.038   1.522   5.790 -0.6306 -2.4836  2.3496
   12SAPS   HN2 1466   0.113   1.508   5.862  0.9532  2.9409 -1.4340
   12SAPS   HN3 1467   0.103   1.524   5.693 -0.4222 -1.6728 -1.3794
   12SAPS   C12 1468   0.037   1.333   5.765  0.5779 -0.6387  0.0466
   12SAPS  H12A 1469  -0.019   1.327   5.672 -0.6441 -0.7225  0.7574
   12SAPS   C13 1470   0.169   1.263   5.755 -0.2171  0.5464  0.0112
   12SAPS  O13A 1471   0.273   1.332   5.743 -0.5104  0.1001 -0.4999
   12SAPS  O13B 1472   0.167   1.138   5.735 -0.6600 -0.3563  0.4592
   12SAPS   C11 1473  -0.059   1.281   5.873 -0.1205 -0.5488  0.6925
   12SAPS  H11A 1474  -0.091   1.177   5.849 -0.6754  0.0001 -1.1100
   12SAPS  H11B 1475  -0.145   1.350   5.882  2.2936  3.0067 -0.8427
   12SAPS     P 1476  -0.051   1.212   6.116 -0.1421  0.2173 -0.1831
   12SAPS   O13 1477  -0.046   1.065   6.085 -0.8022  0.1170 -0.2187
   12SAPS   O14 1478   0.018   1.249   6.240  0.1626 -0.7081 -0.0057
   12SAPS   O12 1479   0.008   1.288   5.998 -0.2338  0.2507  0.2111
   12SAPS   O11 1480  -0.206   1.249   6.130 -0.1386 -0.0414 -0.0893
   12SAPS    C1 1481  -0.250   1.382   6.159 -0.1840 -1.5319 -0.9380
   12SAPS    HA 1482  -0.201   1.458   6.094 -1.8538 -2.0278 -2.8918
   12SAPS    HB 1483  -0.360   1.380   6.146 -0.1312  1.0250 -2.3973
   12SAPS    C2 1484  -0.242   1.414   6.311  0.7270 -0.1319  0.1901
   12SAPS    HS 1485  -0.142   1.462   6.319 -0.1201  2.4069 -2.5112
   12SAPS   O21 1486  -0.245   1.290   6.387 -0.1910 -0.2661 -0.4466
   12SAPS   C21 1487  -0.185   1.290   6.498  0.2951  0.1508  0.1342
   12SAPS   O22 1488  -0.138   1.378   6.565  0.0033  0.0785 -0.1704
   12SAPS   C22 1489  -0.195   1.139   6.551 -0.6192 -0.0938  0.3210
   12SAPS   H2R 1490  -0.214   1.069   6.467  1.8600 -3.7914  2.5206
   12SAPS   H2S 1491  -0.096   1.107   6.590 -1.3089 -2.6281  0.2194
   12SAPS    C3 1492  -0.350   1.519   6.349  0.1267  0.2847 -0.5472
   12SAPS    HX 1493  -0.449   1.470   6.360 -0.5352  1.8067  0.7150
   12SAPS    HY 1494  -0.347   1.587   6.262 -1.4921 -0.5076 -1.2492
   12SAPS   O31 1495  -0.316   1.592   6.473 -0.1294 -0.5605  0.7548
   12SAPS   C31 1496  -0.369   1.554   6.584  0.6317 -0.2277  0.7276
   12SAPS   O32 1497  -0.450   1.467   6.609  0.0013 -0.4344  0.4339
   12SAPS   C32 1498  -0.322   1.654   6.690 -0.4806  0.2126  0.6613
   12SAPS   H2X 1499  -0.376   1.746   6.659 -0.7438 -0.1581  0.0193
   12SAPS   H2Y 1500  -0.215   1.676   6.669 -0.3482 -0.2335  0.8546
   12SAPS   C23 1501  -0.286   1.114   6.663  0.5533 -0.0550 -0.1666
   12SAPS   H3R 1502  -0.290   1.004   6.676 -0.2104 -0.1524 -1.1684
   12SAPS   H3S 1503  -0.384   1.155   6.629  1.1159  0.5417 -1.0903
   12SAPS   C24 1504  -0.257   1.172   6.801 -0.0695 -0.4027  0.2205
   12SAPS   H4R 1505  -0.212   1.274   6.793 -0.0035 -0.4775 -0.4047
   12SAPS   H4S 1506  -0.173   1.109   6.836 -0.5617 -1.0043  0.3314
   12SAPS   C25 1507  -0.371   1.159   6.894 -0.7409  0.8151  0.2524
   12SAPS   H5R 1508  -0.471   1.175   6.852 -1.2931  2.3514  2.0169
   12SAPS   C26 1509  -0.373   1.135   7.029 -0.5400  0.8077  0.4126
   12SAPS   H6R 1510  -0.467   1.123   7.084 -0.1404  1.5256  1.2918
   12SAPS   C27 1511  -0.247   1.123   7.113  0.0929 -0.2785  0.1669
   12SAPS   H7R 1512  -0.245   1.195   7.197 -1.4525 -1.3402  1.1715
   12SAPS   H7S 1513  -0.158   1.163   7.060  0.9670  1.0658  2.5036
   12SAPS   C28 1514  -0.217   0.981   7.153 -0.2513 -0.5298 -0.3601
   12SAPS   H8R 1515  -0.152   0.923   7.086 -0.0166 -0.8154  0.1083
   12SAPS   C29 1516  -0.274   0.925   7.260  0.4124  0.5877  1.2095
   12SAPS   H9R 1517  -0.266   0.816   7.273 -2.4521 -0.1935 -2.1181
   12SAPS  C210 1518  -0.382   0.995   7.343  0.2026  0.1866  0.5158
   12SAPS  H10R 1519  -0.478   0.983   7.289  1.8685  0.2141 -2.7134
   12SAPS  H10S 1520  -0.371   1.106   7.346  0.2363  0.1988  0.0017
   12SAPS  C211 1521  -0.397   0.922   7.478 -0.0407  0.6302 -1.0873
   12SAPS  H11R 1522  -0.382   0.813   7.476 -1.6648  0.2922  1.3511
   12SAPS  C212 1523  -0.426   0.984   7.593  0.2158  0.6736  0.5415
   12SAPS  H12R 1524  -0.404   0.923   7.682  2.1870  0.5993  0.0549
   12SAPS  C213 1525  -0.450   1.139   7.600 -0.4353 -0.6259  0.5028
   12SAPS  H13R 1526  -0.508   1.155   7.693 -0.6810  0.3672  0.1926
   12SAPS  H13S 1527  -0.503   1.171   7.508 -0.7834  1.9967  1.5210
   12SAPS  C214 1528  -0.327   1.224   7.600 -0.6387  0.3869 -0.9125
   12SAPS  H14R 1529  -0.245   1.165   7.642 -1.6547  0.9619  2.1658
   12SAPS  C215 1530  -0.307   1.353   7.570  0.4768 -0.6231 -0.0434
   12SAPS  H15R 1531  -0.210   1.404   7.573  0.7898 -1.2702  1.5202
   12SAPS  C216 1532  -0.415   1.446   7.519 -0.1606  0.0474 -0.2837
   12SAPS  H16R 1533  -0.456   1.389   7.433  0.9446 -0.2451 -0.6276
   12SAPS  H16S 1534  -0.362   1.533   7.477  0.7761 -0.5104 -0.2718
   12SAPS  C217 1535  -0.518   1.508   7.614 -0.3237 -0.5165 -0.2599
   12SAPS  H17R 1536  -0.479   1.588   7.680 -1.9561  1.0720 -1.1524
   12SAPS  H17S 1537  -0.540   1.421   7.681  0.2195 -1.6674 -1.5276
   12SAPS  C218 1538  -0.643   1.557   7.546  0.4693 -0.2458 -0.2116
   12SAPS  H18R 1539  -0.718   1.477   7.562 -0.4945  0.6127 -0.2958
   12SAPS  H18S 1540  -0.642   1.556   7.435 -1.7619  0.5633 -0.3049
   12SAPS  C219 1541  -0.704   1.685   7.599  0.1259  0.2317 -0.1615
   12SAPS  H19R 1542  -0.785   1.718   7.531  0.8872  1.3350 -0.5724
   12SAPS  H19S 1543  -0.634   1.771   7.605  0.9634 -0.2419 -2.1928
   12SAPS  C220 1544  -0.771   1.665   7.736  0.3184 -0.5321 -0.5004
   12SAPS  H20R 1545  -0.866   1.609   7.724 -1.3491  2.2431 -0.9540
   12SAPS  H20S 1546  -0.793   1.759   7.791 -0.2311 -0.6789 -0.4616
   12SAPS  H20T 1547  -0.705   1.606   7.804  0.9941 -0.2324 -0.8839
   12SAPS   C33 1548  -0.342   1.609   6.833  0.3755 -0.4815  0.2378
   12SAPS   H3X 1549  -0.291   1.511   6.848  1.0979 -0.0511  0.6806
   12SAPS   H3Y 1550  -0.452   1.597   6.845  0.2241  0.6533  0.0708
   12SAPS   C34 1551  -0.275   1.702   6.944 -0.2491  0.1979 -0.2005
   12SAPS   H4X 1552  -0.350   1.781   6.965  0.5774  0.6832  1.0388
   12SAPS   H4Y 1553  -0.181   1.753   6.912 -0.5903  0.6979 -0.4395
   12SAPS   C35 1554  -0.246   1.620   7.070  0.6075  0.8093  0.4889
   12SAPS   H5X 1555  -0.155   1.557   7.058  0.5002  0.6472  0.5200
   12SAPS   H5Y 1556  -0.332   1.552   7.087  2.0640 -0.6555  2.4737
   12SAPS   C36 1557  -0.233   1.700   7.196  0.3369  0.8370 -0.5854
   12SAPS   H6X 1558  -0.241   1.627   7.278  1.3984  2.2563  0.8401
   12SAPS   H6Y 1559  -0.315   1.776   7.202 -1.2609 -0.8849  0.3463
   12SAPS   C37 1560  -0.103   1.759   7.213  0.5205  0.6513 -0.0192
   12SAPS   H7X 1561  -0.085   1.838   7.137 -2.1731 -0.4852 -1.9983
   12SAPS   H7Y 1562  -0.027   1.679   7.196 -1.5293 -1.2436 -0.7647
   12SAPS   C38 1563  -0.079   1.825   7.352 -0.0560  1.4224  0.2528
   12SAPS   H8X 1564  -0.158   1.902   7.370  0.6311  2.0427  0.6601
   12SAPS   H8Y 1565   0.010   1.890   7.361  0.8833  0.2722 -0.4756
   12SAPS   C39 1566  -0.080   1.724   7.462 -0.4504 -0.0405 -1.0484
   12SAPS   H9X 1567   0.012   1.663   7.451  0.5502  1.1406  0.2573
   12SAPS   H9Y 1568  -0.172   1.664   7.476 -1.3189  1.2723 -0.9243
   12SAPS  C310 1569  -0.053   1.792   7.604 -0.1331  0.0953 -0.3869
   12SAPS  H10X 1570  -0.116   1.884   7.606  0.7795  0.7318 -0.1578
   12SAPS  H10Y 1571   0.053   1.822   7.617  0.3846 -2.2871  1.5533
   12SAPS  C311 1572  -0.099   1.711   7.727 -0.4989 -0.1640  0.1921
   12SAPS  H11X 1573  -0.043   1.615   7.728 -1.8655 -1.0700 -1.9011
   12SAPS  H11Y 1574  -0.207   1.687   7.715 -1.0525  1.2377  2.0067
   12SAPS  C312 1575  -0.088   1.769   7.868 -0.4637  0.2740 -0.1939
   12SAPS  H12X 1576  -0.132   1.870   7.884 -0.4197  0.5585 -1.7601
   12SAPS  H12Y 1577   0.020   1.768   7.896 -0.4554  0.8085 -0.2025
   12SAPS  C313 1578  -0.162   1.680   7.971  1.6044  0.0209 -0.1016
   12SAPS  H13X 1579  -0.140   1.572   7.954 -1.0619 -0.4145 -1.3761
   12SAPS  H13Y 1580  -0.269   1.698   7.944  1.7433  1.1895  0.0826
   12SAPS  C314 1581  -0.130   1.721   8.116  0.3532 -0.3580 -0.0810
   12SAPS  H14X 1582  -0.020   1.735   8.125  0.4154 -0.1253 -1.0412
   12SAPS  H14Y 1583  -0.178   1.650   8.187 -0.6123  0.7106  0.3662
   12SAPS  C315 1584  -0.190   1.869   8.139 -0.6469  0.0159 -0.4162
   12SAPS  H15X 1585  -0.290   1.868   8.091 -1.7638 -0.9140  1.7870
   12SAPS  H15Y 1586  -0.118   1.941   8.094 -0.5297  1.3943  1.8708
   12SAPS  C316 1587  -0.222   1.907   8.290 -0.2920 -0.0019  0.3051
   12SAPS  H16X 1588  -0.127   1.920   8.346 -1.3887 -1.3279  2.6347
   12SAPS  H16Y 1589  -0.285   1.828   8.336  0.9054 -1.2743 -0.1704
   12SAPS  C317 1590  -0.305   2.040   8.305 -0.6439 -0.2548  0.2780
   12SAPS  H17X 1591  -0.310   2.056   8.415  0.8822 -3.7084  0.9642
   12SAPS  H17Y 1592  -0.407   2.013   8.271 -0.0705  0.7913 -2.6478
   12SAPS  C318 1593  -0.255   2.159   8.222  0.7069  0.1782 -0.2371
   12SAPS  H18X 1594  -0.150   2.181   8.250  0.0878  3.1361  0.2011
   12SAPS  H18Y 1595  -0.319   2.248   8.243  1.5504  1.3369 -2.2225
   12SAPS  H18Z 1596  -0.264   2.136   8.114  2.6553  0.5921 -0.5285
   13SAPS     N 1597   1.142   1.405   5.875 -0.4233  0.3955 -0.5132
   13SAPS   HN1 1598   1.040   1.414   5.897 -0.7211  3.1157 -2.5861
   13SAPS   HN2 1599   1.146   1.456   5.785 -1.4137 -0.4501 -1.0631
   13SAPS   HN3 1600   1.174   1.307   5.858  0.3830  0.0549  2.4407
   13SAPS   C12 1601   1.233   1.472   5.965 -0.2810  0.5744 -0.5927
   13SAPS  H12A 1602   1.333   1.444   5.936  0.5027  2.5651  0.0260
   13SAPS   C13 1603   1.227   1.619   5.974 -0.2743  0.0753  0.5444
   13SAPS  O13A 1604   1.137   1.685   5.913  0.0064  0.3655  0.0063
   13SAPS  O13B 1605   1.320   1.678   6.035 -0.4674  0.0803  0.1033
   13SAPS   C11 1606   1.204   1.420   6.112  0.2175  0.3453  0.4615
   13SAPS  H11A 1607   1.100   1.448   6.140 -0.0808 -0.8311  0.5896
   13SAPS  H11B 1608   1.265   1.478   6.184 -1.4936  2.2809  0.4478
   13SAPS     P 1609   1.366   1.223   6.169 -0.0197 -0.4171 -0.2591
   13SAPS   O13 1610   1.364   1.079   6.205 -0.8873 -0.5096  0.1736
   13SAPS   O14 1611   1.464   1.272   6.074 -0.2857 -0.0275 -0.2652
   13SAPS   O12 1612   1.229   1.278   6.121 -0.0175 -0.4238  0.3051
   13SAPS   O11 1613   1.377   1.306   6.302 -0.0187  0.3143  0.4604
   13SAPS    C1 1614   1.436   1.250   6.422  0.4294 -0.0479 -0.6420
   13SAPS    HA 1615   1.472   1.146   6.408  0.1670 -0.1090 -0.8764
   13SAPS    HB 1616   1.523   1.306   6.461 -1.1570  2.3139 -0.2849
   13SAPS    C2 1617   1.327   1.249   6.536 -0.4806 -0.4098  0.2451
   13SAPS    HS 1618   1.241   1.194   6.493 -2.6919  3.1208 -0.2187
   13SAPS   O21 1619   1.287   1.386   6.570 -0.6887  0.2965  0.0934
   13SAPS   C21 1620   1.169   1.405   6.622  0.1783 -0.4535  1.0702
   13SAPS   O22 1621   1.091   1.316   6.639 -0.2139  0.1531  0.0778
   13SAPS   C22 1622   1.135   1.557   6.632 -0.1782 -0.7154 -0.3578
   13SAPS   H2R 1623   1.222   1.619   6.601 -1.3255  0.6440 -0.9940
   13SAPS   H2S 1624   1.052   1.571   6.559 -0.2955  0.3902 -0.0333
   13SAPS    C3 1625   1.386   1.176   6.661 -0.1598 -0.2303 -0.8608
   13SAPS    HX 1626   1.413   1.073   6.631  1.2942 -0.5835  1.4324
   13SAPS    HY 1627   1.298   1.166   6.727 -1.2798  1.2644 -2.0537
   13SAPS   O31 1628   1.506   1.239   6.722  0.3869  0.0562  0.2980
   13SAPS   C31 1629   1.545   1.187   6.840 -0.1789  0.0592  0.4001
   13SAPS   O32 1630   1.482   1.105   6.903  0.1910 -0.1365  0.0902
   13SAPS   C32 1631   1.676   1.244   6.886  0.5941 -0.7841  0.0762
   13SAPS   H2X 1632   1.706   1.315   6.806 -0.8829 -0.1850  0.0220
   13SAPS   H2Y 1633   1.762   1.176   6.903  0.4029 -0.6708  1.5829
   13SAPS   C23 1634   1.093   1.614   6.776 -0.7558  0.2590  0.1395
   13SAPS   H3R 1635   1.030   1.532   6.818 -0.8013 -0.2673 -0.9337
   13SAPS   H3S 1636   1.040   1.711   6.775  1.1508  1.3662  0.6104
   13SAPS   C24 1637   1.217   1.648   6.864 -0.5220 -0.2024  0.0765
   13SAPS   H4R 1638   1.187   1.711   6.950 -0.6781  1.8015 -1.3528
   13SAPS   H4S 1639   1.280   1.712   6.798 -0.9673 -2.4524 -2.7231
   13SAPS   C25 1640   1.300   1.528   6.910  0.0091 -0.5386  0.0455
   13SAPS   H5R 1641   1.400   1.509   6.867  0.6208 -1.2966  1.7288
   13SAPS   C26 1642   1.273   1.447   7.014  0.2788 -0.3980  0.1590
   13SAPS   H6R 1643   1.334   1.360   7.043  1.0210 -0.1894 -0.7209
   13SAPS   C27 1644   1.160   1.476   7.113  0.1551 -0.0661  1.0039
   13SAPS   H7R 1645   1.123   1.387   7.169  0.4390 -0.0030  1.2903
   13SAPS   H7S 1646   1.071   1.500   7.051 -0.9458  0.1815  2.6444
   13SAPS   C28 1647   1.193   1.586   7.207 -0.1274  0.8367  0.0760
   13SAPS   H8R 1648   1.208   1.681   7.155 -2.1607  1.2387  0.1250
   13SAPS   C29 1649   1.179   1.581   7.341 -0.2839 -0.2756 -0.5118
   13SAPS   H9R 1650   1.218   1.666   7.399  0.5395 -0.6153 -0.5565
   13SAPS  C210 1651   1.138   1.468   7.429  1.0433  0.3123  0.1109
   13SAPS  H10R 1652   1.101   1.373   7.384  0.1186 -0.6662  2.7275
   13SAPS  H10S 1653   1.050   1.508   7.484  1.2116 -0.5079  0.9943
   13SAPS  C211 1654   1.251   1.426   7.512 -1.2109  0.1595  0.1402
   13SAPS  H11R 1655   1.325   1.365   7.458 -0.3280 -0.0866  1.5709
   13SAPS  C212 1656   1.276   1.444   7.640 -0.2157 -0.8062  0.0320
   13SAPS  H12R 1657   1.365   1.391   7.677  0.9423 -0.5664 -2.2071
   13SAPS  C213 1658   1.190   1.523   7.738 -0.6286 -0.2102  0.3925
   13SAPS  H13R 1659   1.112   1.456   7.780  1.0412 -1.0360  2.3482
   13SAPS  H13S 1660   1.138   1.603   7.682 -1.7676 -1.1843  0.0184
   13SAPS  C214 1661   1.274   1.588   7.843  0.1232 -0.3220 -0.3673
   13SAPS  H14R 1662   1.245   1.692   7.863 -2.7650 -1.1832  0.5177
   13SAPS  C215 1663   1.344   1.521   7.941  0.2651 -0.8185 -0.3575
   13SAPS  H15R 1664   1.387   1.583   8.021 -0.7471 -1.4674  0.7077
   13SAPS  C216 1665   1.364   1.376   7.965 -0.5780 -0.0959  0.3567
   13SAPS  H16R 1666   1.473   1.363   7.984 -0.3429 -1.0240 -1.4490
   13SAPS  H16S 1667   1.345   1.320   7.871 -1.3478 -0.9476  0.9991
   13SAPS  C217 1668   1.298   1.330   8.094 -0.1728 -0.3280  0.9240
   13SAPS  H17R 1669   1.193   1.358   8.074  0.9950  2.6015 -2.0507
   13SAPS  H17S 1670   1.330   1.385   8.185  1.0671  0.7500 -0.1163
   13SAPS  C218 1671   1.314   1.181   8.123 -0.2658  0.3441 -0.2161
   13SAPS  H18R 1672   1.421   1.153   8.117 -0.8502 -2.3548  0.7339
   13SAPS  H18S 1673   1.267   1.130   8.036 -2.6992  3.1554 -0.7140
   13SAPS  C219 1674   1.253   1.136   8.259  0.1976 -0.3280  0.4530
   13SAPS  H19R 1675   1.148   1.172   8.251  0.1067 -0.5762  0.5406
   13SAPS  H19S 1676   1.295   1.186   8.349 -0.3570  0.7760  0.1169
   13SAPS  C220 1677   1.275   0.983   8.294 -0.1238 -0.2405 -0.2207
   13SAPS  H20R 1678   1.200   0.927   8.234 -0.2058 -0.1539 -0.1985
   13SAPS  H20S 1679   1.274   0.962   8.403 -0.5464  0.4849 -0.0792
   13SAPS  H20T 1680   1.367   0.949   8.241  0.7001 -0.3553  1.2327
   13SAPS   C33 1681   1.646   1.323   7.018  0.0176  0.8398 -0.7022
   13SAPS   H3X 1682   1.549   1.376   7.018 -0.8506 -0.6934  0.1227
   13SAPS   H3Y 1683   1.729   1.395   7.036  0.8553 -0.2176 -0.2346
   13SAPS   C34 1684   1.645   1.220   7.140 -0.2496  0.1627  0.2478
   13SAPS   H4X 1685   1.713   1.134   7.124  0.2937  0.5679  0.3234
   13SAPS   H4Y 1686   1.540   1.183   7.145 -0.2838  0.3953  2.0030
   13SAPS   C35 1687   1.683   1.285   7.271 -0.1313 -0.5923 -0.0164
   13SAPS   H5X 1688   1.604   1.357   7.301  0.7928  0.0354  0.9976
   13SAPS   H5Y 1689   1.778   1.342   7.266  0.5256 -1.5401  1.1663
   13SAPS   C36 1690   1.662   1.197   7.399 -0.0049  0.1244  0.3605
   13SAPS   H6X 1691   1.734   1.112   7.392  2.2597  1.9682  0.0443
   13SAPS   H6Y 1692   1.564   1.145   7.400 -0.8625  1.6388 -1.2135
   13SAPS   C37 1693   1.691   1.273   7.532 -0.1330  0.3697  0.2593
   13SAPS   H7X 1694   1.627   1.363   7.518 -0.5965  0.1800  1.1115
   13SAPS   H7Y 1695   1.802   1.284   7.536  0.1833 -1.1589 -2.2382
   13SAPS   C38 1696   1.658   1.183   7.646  0.3942 -0.1579 -0.0339
   13SAPS   H8X 1697   1.700   1.080   7.639  0.2279 -0.2549  0.3793
   13SAPS   H8Y 1698   1.548   1.165   7.643  0.8063 -3.9219  1.4058
   13SAPS   C39 1699   1.688   1.241   7.776 -0.5812  0.2030 -0.0279
   13SAPS   H9X 1700   1.618   1.315   7.821  0.6135  0.1874  2.0343
   13SAPS   H9Y 1701   1.779   1.305   7.771 -0.4725  0.0529  0.0226
   13SAPS  C310 1702   1.735   1.147   7.886  0.1131  0.1205 -0.0959
   13SAPS  H10X 1703   1.770   1.210   7.970 -3.1766  1.9176  0.1032
   13SAPS  H10Y 1704   1.813   1.083   7.840 -2.0525 -2.4327 -0.4542
   13SAPS  C311 1705   1.627   1.047   7.928 -0.4836 -0.0611 -0.5923
   13SAPS  H11X 1706   1.591   0.989   7.840  1.4255 -2.6982  0.2265
   13SAPS  H11Y 1707   1.558   1.126   7.965 -0.9726 -1.5964  2.0161
   13SAPS  C312 1708   1.677   0.946   8.033 -0.7091 -0.3826 -0.3963
   13SAPS  H12X 1709   1.775   0.903   8.003  0.5456  0.2793  2.4256
   13SAPS  H12Y 1710   1.602   0.865   8.041 -0.3808 -0.7277 -0.8187
   13SAPS  C313 1711   1.693   1.011   8.169 -0.1028 -0.8369 -0.7166
   13SAPS  H13X 1712   1.612   1.083   8.194 -1.9276 -2.7334 -0.8811
   13SAPS  H13Y 1713   1.790   1.064   8.158  0.3735 -1.4075  0.5074
   13SAPS  C314 1714   1.711   0.915   8.290 -0.0014  0.7311  0.2398
   13SAPS  H14X 1715   1.799   0.850   8.274 -0.5701  0.0130  0.0118
   13SAPS  H14Y 1716   1.622   0.849   8.289 -0.3308  1.1391  1.0440
   13SAPS  C315 1717   1.729   0.978   8.435  0.4437  0.3641  0.6513
   13SAPS  H15X 1718   1.812   1.051   8.448  1.5987 -0.3669 -2.0114
   13SAPS  H15Y 1719   1.721   0.905   8.519 -1.3482  0.3562  0.4965
   13SAPS  C316 1720   1.595   1.057   8.472  0.0289 -0.0741 -0.3485
   13SAPS  H16X 1721   1.516   0.979   8.465 -0.8664  0.8937 -1.4562
   13SAPS  H16Y 1722   1.554   1.137   8.406 -0.0243 -1.1018 -1.5756
   13SAPS  C317 1723   1.616   1.121   8.615  0.9119  0.5042  0.8490
   13SAPS  H17X 1724   1.705   1.186   8.599  1.1899 -0.3710 -1.6795
   13SAPS  H17Y 1725   1.631   1.033   8.680 -1.9957 -1.1077 -0.4679
   13SAPS  C318 1726   1.494   1.204   8.668 -1.0657  0.1994 -0.0868
   13SAPS  H18X 1727   1.496   1.312   8.642  3.0754  0.5612  1.0385
   13SAPS  H18Y 1728   1.486   1.196   8.779  1.3244 -0.3586  0.0979
   13SAPS  H18Z 1729   1.401   1.161   8.625 -0.5931 -0.2544 -0.6810
   14SAPS     N 1730   0.137   3.232   5.642 -0.1028  0.6489 -0.4521
   14SAPS   HN1 1731   0.130   3.200   5.741  0.0553 -0.2656 -0.7207
   14SAPS   HN2 1732   0.043   3.209   5.604  0.0981 -1.2961  0.1245
   14SAPS   HN3 1733   0.199   3.163   5.594 -2.2181 -1.2227 -0.6670
   14SAPS   C12 1734   0.171   3.376   5.643 -0.3668  0.1666 -0.5203
   14SAPS  H12A 1735   0.238   3.391   5.726 -0.9185  1.8287 -0.3349
   14SAPS   C13 1736   0.229   3.428   5.514  1.0640 -0.0458  0.3949
   14SAPS  O13A 1737   0.221   3.356   5.408 -0.4039 -0.0089  0.2173
   14SAPS  O13B 1738   0.278   3.542   5.511 -0.8348 -0.5069 -0.1646
   14SAPS   C11 1739   0.039   3.459   5.671 -0.3114  0.3555  0.1909
   14SAPS  H11A 1740  -0.029   3.452   5.584  1.3879  1.7842 -1.3442
   14SAPS  H11B 1741   0.061   3.568   5.670 -0.2629  0.3450 -0.5049
   14SAPS     P 1742  -0.084   3.496   5.906  0.2220  0.2861 -0.4484
   14SAPS   O13 1743  -0.152   3.617   5.850  0.1259  0.5169  0.0153
   14SAPS   O14 1744  -0.167   3.406   5.993 -0.3896 -0.3939 -0.2642
   14SAPS   O12 1745  -0.029   3.413   5.788 -0.2062  0.5074  0.0068
   14SAPS   O11 1746   0.043   3.536   5.991  0.4207 -0.1706 -0.2174
   14SAPS    C1 1747   0.142   3.451   6.053  0.4066  0.4260  0.2296
   14SAPS    HA 1748   0.136   3.340   6.049 -0.3502  0.4451  0.7143
   14SAPS    HB 1749   0.240   3.472   6.005 -0.3354 -1.0407 -2.1016
   14SAPS    C2 1750   0.162   3.499   6.197 -0.0229 -0.4585 -0.3866
   14SAPS    HS 1751   0.152   3.609   6.204 -1.5889 -0.6620  2.1642
   14SAPS   O21 1752   0.296   3.453   6.243 -0.1930  0.1110 -0.2508
   14SAPS   C21 1753   0.372   3.534   6.307 -0.5511  0.4338  0.3254
   14SAPS   O22 1754   0.347   3.649   6.334  0.4204  0.3821  0.3671
   14SAPS   C22 1755   0.499   3.457   6.334  0.4914 -0.5703  0.5410
   14SAPS   H2R 1756   0.482   3.351   6.365  1.1107 -0.7762  0.2123
   14SAPS   H2S 1757   0.557   3.444   6.240  0.5034  0.6300  0.3758
   14SAPS    C3 1758   0.053   3.448   6.303 -0.0417  0.1282  0.1154
   14SAPS    HX 1759   0.064   3.338   6.304  2.5031  0.2913  2.6894
   14SAPS    HY 1760  -0.047   3.466   6.257 -0.0254 -2.1366 -0.9164
   14SAPS   O31 1761   0.062   3.504   6.437  0.5434  0.0032 -0.1809
   14SAPS   C31 1762   0.020   3.627   6.451 -0.0624  0.0809 -0.5649
   14SAPS   O32 1763  -0.031   3.693   6.363  0.3829 -0.0308 -0.3096
   14SAPS   C32 1764   0.024   3.664   6.594  0.3424  0.4296  0.2146
   14SAPS   H2X 1765   0.131   3.683   6.616  0.4455  1.5413 -1.1445
   14SAPS   H2Y 1766  -0.009   3.575   6.653 -0.3249  1.2127  1.0420
   14SAPS   C23 1767   0.582   3.535   6.434 -0.9791  0.7719 -0.3884
   14SAPS   H3R 1768   0.532   3.529   6.534 -2.5342  0.9800 -1.1207
   14SAPS   H3S 1769   0.591   3.641   6.404 -0.5995  0.6043 -0.8645
   14SAPS   C24 1770   0.729   3.486   6.454 -0.8938  0.0283  0.0027
   14SAPS   H4R 1771   0.777   3.488   6.354  1.3472  0.0180  1.0356
   14SAPS   H4S 1772   0.741   3.376   6.468  0.2857  0.1613  0.1507
   14SAPS   C25 1773   0.806   3.570   6.552  0.1620 -0.5033  0.6536
   14SAPS   H5R 1774   0.846   3.665   6.512  1.2803 -1.4058 -0.4533
   14SAPS   C26 1775   0.836   3.525   6.680  0.0322  0.6713  0.7455
   14SAPS   H6R 1776   0.893   3.588   6.750  1.4490 -0.4323  0.6313
   14SAPS   C27 1777   0.778   3.397   6.741  0.1067  0.0788  0.2727
   14SAPS   H7R 1778   0.843   3.310   6.718  0.4267  0.5321 -0.6296
   14SAPS   H7S 1779   0.683   3.376   6.688  0.0376 -1.4102  0.9445
   14SAPS   C28 1780   0.740   3.414   6.884  0.0980 -0.0325 -0.3551
   14SAPS   H8R 1781   0.773   3.507   6.933 -1.1287  0.1809  0.1026
   14SAPS   C29 1782   0.650   3.342   6.954  0.0161 -0.0097 -1.0506
   14SAPS   H9R 1783   0.636   3.362   7.061  1.0174 -0.5387 -0.8114
   14SAPS  C210 1784   0.573   3.225   6.905 -0.4865 -0.0335  0.4593
   14SAPS  H10R 1785   0.625   3.181   6.817 -0.2205 -0.5093  0.8486
   14SAPS  H10S 1786   0.471   3.263   6.881 -1.2200 -0.9833  1.8954
   14SAPS  C211 1787   0.565   3.112   7.003 -0.1452 -0.3642  0.5211
   14SAPS  H11R 1788   0.647   3.042   6.979  0.2864  0.3030  0.0165
   14SAPS  C212 1789   0.482   3.094   7.110 -0.4055  0.5653  0.5940
   14SAPS  H12R 1790   0.497   3.000   7.166  0.6274 -0.9345 -2.0020
   14SAPS  C213 1791   0.370   3.172   7.175 -0.8680 -0.3935  0.5728
   14SAPS  H13R 1792   0.309   3.098   7.232 -1.1560 -0.6619 -0.0686
   14SAPS  H13S 1793   0.295   3.199   7.097  0.0950  0.3677 -0.1221
   14SAPS  C214 1794   0.419   3.284   7.249  0.6179  0.0121  0.2114
   14SAPS  H14R 1795   0.474   3.361   7.193  0.6306 -0.5311 -0.5382
   14SAPS  C215 1796   0.414   3.295   7.386 -0.1829 -0.2188  0.3321
   14SAPS  H15R 1797   0.465   3.385   7.423  0.0828  0.4724 -1.6065
   14SAPS  C216 1798   0.358   3.198   7.489 -0.2550  0.2447 -0.5932
   14SAPS  H16R 1799   0.305   3.117   7.435 -1.1691  0.0152  0.5866
   14SAPS  H16S 1800   0.286   3.253   7.554  0.2922  0.8835 -0.5155
   14SAPS  C217 1801   0.458   3.139   7.589  0.4461  0.1902  0.0292
   14SAPS  H17R 1802   0.526   3.075   7.529 -0.4198  0.0678 -0.8455
   14SAPS  H17S 1803   0.408   3.073   7.663  0.2605  0.9800  0.6189
   14SAPS  C218 1804   0.528   3.245   7.669  0.2786 -0.2847 -0.7508
   14SAPS  H18R 1805   0.568   3.327   7.606 -0.7223  1.7076  1.0739
   14SAPS  H18S 1806   0.604   3.190   7.730  0.4336  0.9160  0.1726
   14SAPS  C219 1807   0.437   3.325   7.762 -0.4347  0.8941 -0.3067
   14SAPS  H19R 1808   0.336   3.350   7.724 -1.5202 -0.6519  1.3935
   14SAPS  H19S 1809   0.489   3.423   7.772  1.6009 -0.1309 -0.3257
   14SAPS  C220 1810   0.404   3.254   7.889 -0.0936 -1.1975 -0.6922
   14SAPS  H20R 1811   0.375   3.147   7.881 -0.2872 -1.0678 -1.8873
   14SAPS  H20S 1812   0.315   3.295   7.942 -0.3780 -1.1329 -1.2134
   14SAPS  H20T 1813   0.494   3.273   7.952  1.1000  0.1927 -2.6768
   14SAPS   C33 1814  -0.049   3.793   6.636 -0.4000  0.5860 -0.4873
   14SAPS   H3X 1815  -0.156   3.766   6.619 -0.2688 -0.3625  0.1078
   14SAPS   H3Y 1816  -0.008   3.877   6.576  1.3144 -0.1235 -0.3630
   14SAPS   C34 1817  -0.036   3.834   6.781  0.1502  0.3092 -0.4529
   14SAPS   H4X 1818   0.064   3.876   6.803 -0.6897  1.4633  1.4292
   14SAPS   H4Y 1819  -0.060   3.757   6.858  0.9854  2.1700  1.7928
   14SAPS   C35 1820  -0.131   3.949   6.811  0.5815 -0.5203  0.0016
   14SAPS   H5X 1821  -0.231   3.912   6.782  0.2727  1.0497 -1.0203
   14SAPS   H5Y 1822  -0.109   4.032   6.741 -1.4003 -1.1402 -1.4361
   14SAPS   C36 1823  -0.143   3.989   6.961 -0.1165 -0.0520  0.4947
   14SAPS   H6X 1824  -0.060   4.056   6.993 -0.7952 -0.4040  3.2756
   14SAPS   H6Y 1825  -0.135   3.903   7.030 -0.8543  0.1062  0.7946
   14SAPS   C37 1826  -0.264   4.082   6.987 -0.2045 -0.8339 -0.1392
   14SAPS   H7X 1827  -0.353   4.027   6.950  0.6370 -0.8956 -2.2616
   14SAPS   H7Y 1828  -0.258   4.177   6.930 -1.3044 -0.0104  1.0730
   14SAPS   C38 1829  -0.271   4.123   7.139  0.7033  0.3084 -0.8040
   14SAPS   H8X 1830  -0.326   4.220   7.144  0.3370  0.0424  0.9062
   14SAPS   H8Y 1831  -0.176   4.133   7.195 -0.8167 -0.1405  2.0163
   14SAPS   C39 1832  -0.349   4.025   7.223  1.4540  0.6125  0.6016
   14SAPS   H9X 1833  -0.305   3.924   7.209 -2.2933 -1.0041 -0.6763
   14SAPS   H9Y 1834  -0.457   4.017   7.196  1.7177 -2.5828  0.1590
   14SAPS  C310 1835  -0.355   4.045   7.381 -0.4221  0.4871  0.2412
   14SAPS  H10X 1836  -0.428   3.966   7.409  0.7791 -2.6322 -4.3702
   14SAPS  H10Y 1837  -0.380   4.150   7.410  0.5853  0.9668 -0.5862
   14SAPS  C311 1838  -0.216   4.024   7.447 -0.6058 -0.4598  0.1779
   14SAPS  H11X 1839  -0.160   4.116   7.420 -2.4188  0.3251 -1.1475
   14SAPS  H11Y 1840  -0.161   3.947   7.389 -2.4150 -0.9331 -1.0302
   14SAPS  C312 1841  -0.221   3.986   7.588  1.0481  0.3316 -0.0899
   14SAPS  H12X 1842  -0.134   3.920   7.610 -0.6000 -1.4827  1.5244
   14SAPS  H12Y 1843  -0.307   3.916   7.589  0.3281  1.1933  1.0736
   14SAPS  C313 1844  -0.233   4.099   7.693 -0.6491  0.9559 -0.2150
   14SAPS  H13X 1845  -0.317   4.171   7.680 -0.9319  0.4274 -1.3797
   14SAPS  H13Y 1846  -0.140   4.160   7.682  0.9175 -1.1698  0.4846
   14SAPS  C314 1847  -0.228   4.056   7.840  1.2021 -0.1551 -0.0637
   14SAPS  H14X 1848  -0.150   3.978   7.844  2.0171  0.5507 -1.3284
   14SAPS  H14Y 1849  -0.315   4.007   7.889  1.2407  0.9796  1.1852
   14SAPS  C315 1850  -0.212   4.182   7.934  0.5354 -0.4471  0.6802
   14SAPS  H15X 1851  -0.302   4.245   7.919  1.5925  0.6632 -1.6755
   14SAPS  H15Y 1852  -0.121   4.241   7.907  0.1784  1.2560  2.9398
   14SAPS  C316 1853  -0.209   4.142   8.085 -0.3906 -0.5978  0.6391
   14SAPS  H16X 1854  -0.122   4.077   8.110  0.2280  0.7348  2.1740
   14SAPS  H16Y 1855  -0.299   4.079   8.100  0.7621 -2.2683  0.7887
   14SAPS  C317 1856  -0.213   4.257   8.178 -0.5805  0.0526 -0.5626
   14SAPS  H17X 1857  -0.309   4.248   8.232 -1.3142 -0.0785 -1.8473
   14SAPS  H17Y 1858  -0.217   4.353   8.122 -0.5128 -0.9142 -2.3022
   14SAPS  C318 1859  -0.100   4.270   8.277  0.1194 -0.4597 -0.1558
   14SAPS  H18X 1860  -0.009   4.267   8.214 -1.3532  3.7329 -2.8830
   14SAPS  H18Y 1861  -0.099   4.188   8.352  0.3705  0.8616  1.3513
   14SAPS  H18Z 1862  -0.102   4.359   8.345 -1.6039 -0.6232  0.0581
   15SAPS     N 1863   0.194   2.589   5.912  0.2407 -0.2461 -0.1459
   15SAPS   HN1 1864   0.257   2.671   5.899 -0.7927  1.0100  2.1928
   15SAPS   HN2 1865   0.230   2.540   5.997  0.0007  0.3274  0.2973
   15SAPS   HN3 1866   0.213   2.519   5.837  0.8947  0.7075 -0.8848
   15SAPS   C12 1867   0.051   2.630   5.922  0.3923 -0.1129 -0.0069
   15SAPS  H12A 1868   0.017   2.651   5.822  0.4028 -1.7069 -0.3685
   15SAPS   C13 1869  -0.042   2.518   5.975 -0.0690  0.6287 -0.2394
   15SAPS  O13A 1870   0.013   2.422   6.035  0.5614  0.0391  0.2079
   15SAPS  O13B 1871  -0.168   2.526   5.964 -0.1936  0.3797  0.5019
   15SAPS   C11 1872   0.043   2.757   6.021 -0.3179  1.1505  0.1597
   15SAPS  H11A 1873   0.089   2.741   6.121  1.7340 -1.6214 -1.1069
   15SAPS  H11B 1874  -0.067   2.766   6.035 -0.5312 -1.4730  0.6486
   15SAPS     P 1875   0.037   3.012   5.962 -0.4916  0.2478  0.2988
   15SAPS   O13 1876   0.118   3.104   5.882  0.1468  0.1733  0.0785
   15SAPS   O14 1877  -0.102   2.984   5.922 -0.8342  0.3157 -0.0201
   15SAPS   O12 1878   0.102   2.870   5.958  0.3845 -0.3655  0.0049
   15SAPS   O11 1879   0.044   3.034   6.114  0.3990 -0.6496  0.1662
   15SAPS    C1 1880   0.161   3.068   6.179 -0.1558 -0.3205 -0.1222
   15SAPS    HA 1881   0.253   3.016   6.145 -0.5088 -2.7781  2.3224
   15SAPS    HB 1882   0.171   3.178   6.187 -2.5225 -0.1367  1.1929
   15SAPS    C2 1883   0.149   3.013   6.321  0.4755 -0.3332 -0.2809
   15SAPS    HS 1884   0.124   2.905   6.313 -2.4518  0.2535 -0.1958
   15SAPS   O21 1885   0.033   3.080   6.372 -0.3108 -0.3035  0.3171
   15SAPS   C21 1886  -0.032   3.017   6.470 -0.0416 -1.1011  0.1351
   15SAPS   O22 1887  -0.005   2.904   6.506 -0.2951  0.8979  0.1421
   15SAPS   C22 1888  -0.128   3.106   6.535  0.1512  1.0422 -0.6933
   15SAPS   H2R 1889  -0.084   3.208   6.544  0.4430  0.8586  0.0614
   15SAPS   H2S 1890  -0.224   3.101   6.479 -0.7118  0.3354  0.7801
   15SAPS    C3 1891   0.269   3.018   6.422  0.3417  0.8967  0.6556
   15SAPS    HX 1892   0.366   2.984   6.379 -0.9675 -0.9198 -1.0792
   15SAPS    HY 1893   0.244   2.942   6.499 -0.1147 -0.6775 -0.9557
   15SAPS   O31 1894   0.292   3.154   6.462 -0.6266 -0.2437  0.0205
   15SAPS   C31 1895   0.250   3.191   6.582 -0.0495 -0.4139 -0.1406
   15SAPS   O32 1896   0.195   3.113   6.661 -0.3438  0.4174  0.8024
   15SAPS   C32 1897   0.303   3.329   6.613 -0.6099  0.2375 -0.1178
   15SAPS   H2X 1898   0.260   3.407   6.546 -0.7545  0.4002  0.1607
   15SAPS   H2Y 1899   0.414   3.328   6.606 -0.5748  1.7776 -0.1688
   15SAPS   C23 1900  -0.179   3.054   6.667  0.2036  0.0333  0.7126
   15SAPS   H3R 1901  -0.206   2.947   6.674  0.1088 -0.0272 -0.4284
   15SAPS   H3S 1902  -0.278   3.103   6.665 -0.1392 -0.5556  2.1509
   15SAPS   C24 1903  -0.103   3.101   6.788  0.4699  0.1821  0.3113
   15SAPS   H4R 1904  -0.076   3.208   6.776 -1.6323  0.6498 -0.5604
   15SAPS   H4S 1905  -0.004   3.050   6.786 -0.1650 -1.2375 -3.5129
   15SAPS   C25 1906  -0.171   3.083   6.923  0.2781  0.0898  0.1965
   15SAPS   H5R 1907  -0.278   3.058   6.923  0.6088 -1.4187 -0.3405
   15SAPS   C26 1908  -0.115   3.101   7.043  0.0222 -0.6264 -0.5745
   15SAPS   H6R 1909  -0.188   3.092   7.125 -1.4864 -1.6019 -1.9532
   15SAPS   C27 1910   0.028   3.142   7.090  0.3736 -0.2282  0.1485
   15SAPS   H7R 1911   0.105   3.159   7.011  0.0547  0.9229  0.0546
   15SAPS   H7S 1912   0.072   3.066   7.157 -0.3815 -0.5377  0.2953
   15SAPS   C28 1913   0.009   3.266   7.169  0.2056 -0.4405 -0.1019
   15SAPS   H8R 1914   0.029   3.360   7.114  0.3087 -0.9651 -0.9867
   15SAPS   C29 1915  -0.014   3.278   7.303  0.5511  0.9547  0.2335
   15SAPS   H9R 1916  -0.027   3.378   7.347  0.8299  1.2339 -0.3081
   15SAPS  C210 1917  -0.029   3.165   7.401  0.5549  0.6544 -0.5626
   15SAPS  H10R 1918   0.056   3.185   7.469  0.9488 -0.0547 -0.8401
   15SAPS  H10S 1919  -0.005   3.064   7.362  0.1608 -0.0591  0.9904
   15SAPS  C211 1920  -0.156   3.167   7.490 -0.5788 -0.0221 -0.2010
   15SAPS  H11R 1921  -0.255   3.152   7.445 -0.6057 -2.2247  0.4742
   15SAPS  C212 1922  -0.158   3.189   7.623 -1.2414  0.9523  0.4439
   15SAPS  H12R 1923  -0.257   3.180   7.670 -0.5580 -2.9809  1.5000
   15SAPS  C213 1924  -0.040   3.225   7.715  0.0225  0.0178 -0.1669
   15SAPS  H13R 1925  -0.095   3.278   7.795 -0.7795 -0.4876 -0.3677
   15SAPS  H13S 1926   0.036   3.289   7.665 -0.6218  1.1293  0.2526
   15SAPS  C214 1927   0.013   3.096   7.773  0.1711 -0.4722  0.3446
   15SAPS  H14R 1928   0.089   3.044   7.714  1.1456  0.2350  0.9279
   15SAPS  C215 1929  -0.015   3.046   7.896 -0.0224 -0.1042 -0.4640
   15SAPS  H15R 1930   0.035   2.952   7.923  1.2660  0.1256 -1.8829
   15SAPS  C216 1931  -0.109   3.104   8.002  0.3092  0.1870  0.1467
   15SAPS  H16R 1932  -0.138   3.016   8.064  0.7706  1.9298  3.0631
   15SAPS  H16S 1933  -0.200   3.135   7.947  0.2802 -0.3726 -0.1259
   15SAPS  C217 1934  -0.056   3.213   8.093 -0.5526  0.0811 -0.1739
   15SAPS  H17R 1935  -0.034   3.305   8.035 -2.8811  0.1167 -1.1045
   15SAPS  H17S 1936   0.031   3.168   8.147  0.1235 -1.7478 -2.5939
   15SAPS  C218 1937  -0.155   3.240   8.207 -0.6058  0.0649  0.0421
   15SAPS  H18R 1938  -0.118   3.312   8.283  1.2939 -0.3985 -0.3973
   15SAPS  H18S 1939  -0.156   3.141   8.256  3.0591  0.2945  0.8248
   15SAPS  C219 1940  -0.290   3.291   8.163  0.4140 -0.4772  0.5693
   15SAPS  H19R 1941  -0.322   3.210   8.094  0.7303 -0.7781  0.7694
   15SAPS  H19S 1942  -0.291   3.384   8.102 -2.7506 -0.5693  0.3402
   15SAPS  C220 1943  -0.393   3.311   8.279  0.0517 -0.2341  0.9487
   15SAPS  H20R 1944  -0.414   3.213   8.325  0.3287 -1.1206 -0.7470
   15SAPS  H20S 1945  -0.486   3.349   8.231  0.2260 -2.6749 -1.5792
   15SAPS  H20T 1946  -0.354   3.383   8.354 -0.3646  0.5909  0.3982
   15SAPS   C33 1947   0.248   3.369   6.752 -0.7646  0.2310 -0.0237
   15SAPS   H3X 1948   0.251   3.282   6.821  3.2697 -0.9473 -1.3589
   15SAPS   H3Y 1949   0.141   3.397   6.744 -0.3306  2.3109  0.5861
   15SAPS   C34 1950   0.315   3.487   6.822 -0.4254  0.1699 -0.1306
   15SAPS   H4X 1951   0.304   3.575   6.754  0.1890  0.6213  0.3417
   15SAPS   H4Y 1952   0.423   3.468   6.837 -0.3240  1.8049  1.5970
   15SAPS   C35 1953   0.248   3.519   6.958  0.1306  0.0386 -0.0797
   15SAPS   H5X 1954   0.270   3.443   7.036 -0.9856  0.3241  0.5327
   15SAPS   H5Y 1955   0.138   3.525   6.941  0.2375  1.7128 -0.4183
   15SAPS   C36 1956   0.286   3.663   6.994 -0.7607 -0.2850  0.0161
   15SAPS   H6X 1957   0.264   3.729   6.908 -0.2870 -1.6936 -1.2258
   15SAPS   H6Y 1958   0.396   3.655   6.998 -0.4497  2.2486 -1.4788
   15SAPS   C37 1959   0.200   3.716   7.111  0.5871  0.3301  0.0745
   15SAPS   H7X 1960   0.095   3.718   7.074  1.0664 -0.8990 -1.4655
   15SAPS   H7Y 1961   0.224   3.818   7.146 -0.1604  1.1690 -1.7585
   15SAPS   C38 1962   0.200   3.629   7.232  0.4066  0.5179 -0.2060
   15SAPS   H8X 1963   0.306   3.605   7.253 -0.1705 -0.1907  2.3792
   15SAPS   H8Y 1964   0.155   3.528   7.221 -0.8869  0.9952  0.4082
   15SAPS   C39 1965   0.136   3.707   7.349 -0.6182  0.1732  0.0050
   15SAPS   H9X 1966   0.035   3.739   7.317 -1.1210  0.3840  1.6846
   15SAPS   H9Y 1967   0.201   3.793   7.374  0.6681 -1.2986  2.0908
   15SAPS  C310 1968   0.132   3.620   7.471  0.0049  0.4637  0.6431
   15SAPS  H10X 1969   0.233   3.578   7.485  0.0260 -0.8927 -2.5736
   15SAPS  H10Y 1970   0.067   3.533   7.448  1.2606 -0.6065  1.0301
   15SAPS  C311 1971   0.090   3.697   7.599  0.5945 -0.0504 -0.4245
   15SAPS  H11X 1972  -0.017   3.723   7.589  0.4827 -0.2361  0.2645
   15SAPS  H11Y 1973   0.150   3.791   7.604  1.4873 -0.5872 -0.8565
   15SAPS  C312 1974   0.119   3.611   7.724  0.8858  0.2371  0.8132
   15SAPS  H12X 1975   0.224   3.575   7.730  0.2955 -1.5464  0.9148
   15SAPS  H12Y 1976   0.054   3.522   7.714 -0.1317  1.2320 -3.3855
   15SAPS  C313 1977   0.088   3.700   7.845 -0.1980  0.2366 -0.3794
   15SAPS  H13X 1978   0.006   3.771   7.821 -0.1970 -0.1338 -1.5976
   15SAPS  H13Y 1979   0.179   3.759   7.868 -0.7283  0.3335  1.6773
   15SAPS  C314 1980   0.054   3.632   7.971 -0.1455  0.4796 -0.4868
   15SAPS  H14X 1981   0.140   3.575   8.013  0.4994  1.8580  0.1225
   15SAPS  H14Y 1982  -0.023   3.555   7.947  0.2393 -0.3225  0.7485
   15SAPS  C315 1983   0.006   3.723   8.082  0.2317  0.1017 -0.2752
   15SAPS  H15X 1984  -0.082   3.775   8.038 -0.5360 -0.4093  0.5908
   15SAPS  H15Y 1985   0.079   3.804   8.102 -0.2454  0.2109  1.1464
   15SAPS  C316 1986  -0.030   3.648   8.213  0.6873  0.5583  0.2002
   15SAPS  H16X 1987   0.070   3.629   8.257  0.8063 -1.2137 -0.7476
   15SAPS  H16Y 1988  -0.083   3.554   8.188 -1.8828  2.2726 -1.2083
   15SAPS  C317 1989  -0.115   3.726   8.314  0.2520 -0.9558  0.0688
   15SAPS  H17X 1990  -0.202   3.766   8.257  1.3504 -1.0796 -1.7711
   15SAPS  H17Y 1991  -0.060   3.820   8.334 -0.8558  0.0329 -1.3131
   15SAPS  C318 1992  -0.145   3.636   8.428 -0.2746  0.0534 -0.0283
   15SAPS  H18X 1993  -0.195   3.702   8.502 -0.6139  1.1696 -1.2334
   15SAPS  H18Y 1994  -0.055   3.590   8.475 -0.2842 -0.6758 -0.7037
   15SAPS  H18Z 1995  -0.223   3.559   8.412 -0.5328  0.1762  0.6046
   16SAPS     N 1996   1.871   5.672   6.296 -0.6018 -0.3706  0.4227
   16SAPS   HN1 1997   1.805   5.641   6.222  0.4068  2.5321 -1.8976
   16SAPS   HN2 1998   1.852   5.620   6.384  2.5428  1.5532  2.4422
   16SAPS   HN3 1999   1.841   5.769   6.319  0.8368  0.6866 -1.7700
   16SAPS   C12 2000   2.007   5.657   6.241 -0.2882 -0.2603  0.2080
   16SAPS  H12A 2001   2.040   5.555   6.253 -1.5481 -0.3792  3.8283
   16SAPS   C13 2002   2.026   5.687   6.088 -0.2568 -0.8635  0.5015
   16SAPS  O13A 2003   1.933   5.736   6.020  0.3662  0.0697 -0.1901
   16SAPS  O13B 2004   2.138   5.665   6.032 -0.1111 -0.3373 -0.0231
   16SAPS   C11 2005   2.089   5.757   6.322  0.4032 -0.4270 -0.5072
   16SAPS  H11A 2006   2.084   5.857   6.272  0.5628 -0.1316  0.0604
   16SAPS  H11B 2007   2.194   5.722   6.312  0.8907  0.5545  0.8312
   16SAPS     P 2008   2.098   5.865   6.563 -0.4583 -0.2026 -0.1837
   16SAPS   O13 2009   2.231   5.843   6.623  0.1215 -0.2931 -0.0213
   16SAPS   O14 2010   2.071   5.996   6.505  0.2634  0.4647 -0.2206
   16SAPS   O12 2011   2.062   5.755   6.462 -0.2758 -0.1407 -0.3516
   16SAPS   O11 2012   1.992   5.859   6.682 -0.0616  0.5721  0.3428
   16SAPS    C1 2013   1.863   5.796   6.666  0.3028  0.2804 -0.0018
   16SAPS    HA 2014   1.810   5.852   6.586  0.6681  0.6986  0.0435
   16SAPS    HB 2015   1.878   5.690   6.637 -1.4355  0.1379 -0.5206
   16SAPS    C2 2016   1.772   5.813   6.791  0.1572 -0.1396 -0.8205
   16SAPS    HS 2017   1.754   5.922   6.806 -0.9952 -0.6238  2.0240
   16SAPS   O21 2018   1.835   5.743   6.903 -0.2097 -0.2945  0.0921
   16SAPS   C21 2019   1.816   5.794   7.023 -0.0662 -0.0416 -0.2638
   16SAPS   O22 2020   1.765   5.903   7.040  0.0767 -0.2939 -0.6300
   16SAPS   C22 2021   1.875   5.708   7.132  0.3153 -0.2879 -0.9408
   16SAPS   H2R 2022   1.834   5.606   7.121  0.4886 -0.5043  0.2606
   16SAPS   H2S 2023   1.984   5.694   7.113  0.2852  0.8279 -2.0424
   16SAPS    C3 2024   1.633   5.756   6.763  0.1902 -0.0199 -0.0021
   16SAPS    HX 2025   1.654   5.647   6.763  2.3690  0.3326  1.5764
   16SAPS    HY 2026   1.606   5.777   6.657 -0.0486 -0.7083 -0.0827
   16SAPS   O31 2027   1.525   5.790   6.854  0.4247 -0.0875 -0.0596
   16SAPS   C31 2028   1.414   5.714   6.833 -0.6122  0.4884 -0.4891
   16SAPS   O32 2029   1.409   5.625   6.746  0.0635 -0.5111 -0.2453
   16SAPS   C32 2030   1.290   5.756   6.917 -0.1947 -0.6853  0.8427
   16SAPS   H2X 2031   1.209   5.686   6.890  2.0574 -2.2896 -2.2726
   16SAPS   H2Y 2032   1.261   5.858   6.881 -1.2543 -1.0469  0.6289
   16SAPS   C23 2033   1.835   5.752   7.275  0.5056 -0.3284 -0.6862
   16SAPS   H3R 2034   1.893   5.687   7.344  1.6787 -1.3413 -2.5477
   16SAPS   H3S 2035   1.725   5.748   7.287  0.6076 -0.3309  0.3531
   16SAPS   C24 2036   1.872   5.899   7.319 -0.2071  0.4161  0.3205
   16SAPS   H4R 2037   1.824   5.908   7.419  2.1525  0.5985  1.4990
   16SAPS   H4S 2038   1.815   5.975   7.261  0.0002  0.1116 -0.2852
   16SAPS   C25 2039   2.015   5.948   7.312  0.7110  0.3647  1.2173
   16SAPS   H5R 2040   2.040   5.975   7.209 -0.3640  0.1690  0.8944
   16SAPS   C26 2041   2.107   5.953   7.409  1.3811 -0.7018  0.3820
   16SAPS   H6R 2042   2.206   5.989   7.379  0.9569  2.6748  2.4428
   16SAPS   C27 2043   2.089   5.910   7.557  0.8534  0.2678 -0.5261
   16SAPS   H7R 2044   1.988   5.935   7.596  0.7733 -1.1711  0.2856
   16SAPS   H7S 2045   2.157   5.955   7.633 -0.5500  0.0820  0.8913
   16SAPS   C28 2046   2.092   5.756   7.576 -0.4405 -0.5167  0.2132
   16SAPS   H8R 2047   2.094   5.694   7.485  0.1700  1.0089 -0.8521
   16SAPS   C29 2048   2.103   5.692   7.691  0.0880 -0.6761 -0.3407
   16SAPS   H9R 2049   2.098   5.582   7.697  0.4831 -0.8576 -2.6023
   16SAPS  C210 2050   2.099   5.746   7.831 -0.2520 -0.2713  0.2874
   16SAPS  H10R 2051   2.039   5.840   7.831  0.2384  0.0978 -1.8156
   16SAPS  H10S 2052   2.203   5.774   7.859  0.1679 -1.0615 -0.4513
   16SAPS  C211 2053   2.050   5.656   7.941 -0.0187  0.7120  0.0572
   16SAPS  H11R 2054   1.948   5.616   7.927  1.0364 -3.2295  2.1273
   16SAPS  C212 2055   2.117   5.599   8.045 -0.0145 -1.2226 -0.0919
   16SAPS  H12R 2056   2.059   5.535   8.114 -1.8592  0.0008 -0.4250
   16SAPS  C213 2057   2.260   5.619   8.096 -0.0854  0.3663  0.0823
   16SAPS  H13R 2058   2.324   5.623   8.005  0.2219  0.0018  0.2755
   16SAPS  H13S 2059   2.297   5.530   8.152 -0.0500  1.1070  1.2747
   16SAPS  C214 2060   2.275   5.751   8.173 -0.1068 -0.0479  0.3302
   16SAPS  H14R 2061   2.199   5.826   8.145  1.0485 -0.0207 -3.3676
   16SAPS  C215 2062   2.382   5.778   8.254  0.1513  0.0750  0.2318
   16SAPS  H15R 2063   2.389   5.873   8.309 -0.1092  0.3282 -0.1618
   16SAPS  C216 2064   2.498   5.680   8.279  0.1215 -0.0297  0.4815
   16SAPS  H16R 2065   2.585   5.748   8.269 -1.4280  1.7474 -2.1372
   16SAPS  H16S 2066   2.513   5.606   8.197 -0.0643  0.0769  0.3504
   16SAPS  C217 2067   2.502   5.610   8.413  0.3275 -0.4504 -0.6405
   16SAPS  H17R 2068   2.499   5.689   8.491 -3.9971 -1.2814  0.2964
   16SAPS  H17S 2069   2.600   5.559   8.409 -0.5346 -2.3948  1.2400
   16SAPS  C218 2070   2.393   5.510   8.442 -0.0783  0.5010 -0.2223
   16SAPS  H18R 2071   2.418   5.423   8.378  0.1891  0.0811  0.4428
   16SAPS  H18S 2072   2.289   5.541   8.418 -0.2631  0.6713  0.7303
   16SAPS  C219 2073   2.390   5.439   8.579  0.0179 -0.3718  0.5128
   16SAPS  H19R 2074   2.487   5.389   8.598  0.5179  0.0021 -0.8773
   16SAPS  H19S 2075   2.314   5.358   8.580  0.9438 -1.4144 -2.3097
   16SAPS  C220 2076   2.350   5.535   8.691 -0.5139  0.0787  0.5075
   16SAPS  H20R 2077   2.281   5.613   8.652  0.7859  0.5618 -0.8905
   16SAPS  H20S 2078   2.443   5.585   8.726  1.2329  0.3232 -3.8697
   16SAPS  H20T 2079   2.297   5.474   8.768  0.1203  0.6055  1.3865
   16SAPS   C33 2080   1.314   5.762   7.069  0.5198  0.1581  0.4984
   16SAPS   H3X 2081   1.238   5.830   7.113 -0.0465  0.4105 -0.8384
   16SAPS   H3Y 2082   1.403   5.825   7.090 -1.0770  2.4097  0.8986
   16SAPS   C34 2083   1.306   5.623   7.143 -0.0247 -0.0478  0.0205
   16SAPS   H4X 2084   1.374   5.551   7.093  3.1057  2.4518  0.3014
   16SAPS   H4Y 2085   1.203   5.583   7.134 -0.2232  0.4511 -0.0017
   16SAPS   C35 2086   1.367   5.632   7.286  0.1451 -0.4757 -0.4054
   16SAPS   H5X 2087   1.327   5.726   7.330  2.4757  0.4104 -0.0729
   16SAPS   H5Y 2088   1.477   5.641   7.285  0.1389 -0.3248  0.1417
   16SAPS   C36 2089   1.308   5.519   7.378  0.1697 -0.2946  0.1789
   16SAPS   H6X 2090   1.338   5.422   7.331 -0.7356 -0.6632  0.3375
   16SAPS   H6Y 2091   1.198   5.533   7.374 -0.4826 -4.2547 -0.4922
   16SAPS   C37 2092   1.349   5.525   7.526  0.6536  0.4660  0.3778
   16SAPS   H7X 2093   1.357   5.628   7.568  1.2616  0.3482  0.5579
   16SAPS   H7Y 2094   1.456   5.496   7.520  0.3556 -2.1874  4.2627
   16SAPS   C38 2095   1.275   5.434   7.619  0.4113  0.2669  0.2695
   16SAPS   H8X 2096   1.306   5.331   7.592 -2.3351 -0.3570 -0.8262
   16SAPS   H8Y 2097   1.167   5.453   7.629  0.3864 -0.5872  1.9135
   16SAPS   C39 2098   1.332   5.471   7.760  0.0370  0.5865 -0.2342
   16SAPS   H9X 2099   1.341   5.581   7.770  2.0466  0.2988  1.8929
   16SAPS   H9Y 2100   1.440   5.445   7.768 -0.1770 -0.2778 -0.0978
   16SAPS  C310 2101   1.252   5.408   7.874  0.6383 -0.0465  0.5620
   16SAPS  H10X 2102   1.247   5.299   7.858  0.6418  0.1638 -1.0462
   16SAPS  H10Y 2103   1.151   5.453   7.882  0.9517  0.4820  1.8586
   16SAPS  C311 2104   1.308   5.452   8.015  0.7884 -0.1644 -0.4026
   16SAPS  H11X 2105   1.283   5.558   8.037 -1.4466 -0.9171  1.0146
   16SAPS  H11Y 2106   1.418   5.449   8.003  0.6283  1.8233 -3.5001
   16SAPS  C312 2107   1.255   5.357   8.118 -0.0514  0.2786  0.2203
   16SAPS  H12X 2108   1.316   5.265   8.120 -0.1591  0.1698 -0.9522
   16SAPS  H12Y 2109   1.150   5.328   8.099  0.8741 -4.0564  0.8013
   16SAPS  C313 2110   1.260   5.404   8.268 -0.2470 -0.1049  0.3198
   16SAPS  H13X 2111   1.209   5.502   8.273  0.7082  0.3699  0.8610
   16SAPS  H13Y 2112   1.366   5.426   8.290 -0.5705  2.7733 -0.5888
   16SAPS  C314 2113   1.204   5.304   8.374 -1.1918  0.0184  0.4041
   16SAPS  H14X 2114   1.245   5.200   8.372 -1.6041 -0.1419 -0.4521
   16SAPS  H14Y 2115   1.097   5.290   8.345 -0.9479  0.6648 -0.8931
   16SAPS  C315 2116   1.202   5.368   8.507 -0.4295  0.0342 -0.2641
   16SAPS  H15X 2117   1.184   5.477   8.491  1.2690  0.3291 -0.4077
   16SAPS  H15Y 2118   1.295   5.357   8.566 -0.4317  0.2065 -0.2267
   16SAPS  C316 2119   1.097   5.308   8.606 -0.3237 -0.1913  0.0064
   16SAPS  H16X 2120   1.138   5.212   8.642  2.0895  0.4546 -0.8094
   16SAPS  H16Y 2121   0.994   5.305   8.563 -0.2770 -0.6395 -0.0801
   16SAPS  C317 2122   1.085   5.398   8.728 -0.3686 -0.4796 -0.0702
   16SAPS  H17X 2123   1.099   5.506   8.707 -0.5476 -0.0976  1.6893
   16SAPS  H17Y 2124   1.170   5.375   8.796  1.0681  2.6341 -0.6217
   16SAPS  C318 2125   0.950   5.401   8.803 -0.0180  1.5527 -0.4845
   16SAPS  H18X 2126   0.864   5.452   8.754 -0.1895  1.7868  0.0458
   16SAPS  H18Y 2127   0.977   5.442   8.903  1.5845  0.5334 -0.4655
   16SAPS  H18Z 2128   0.917   5.297   8.824 -0.9993  2.0984  0.8519
   17SAPC     N 2129   5.662   0.303  10.790 -0.0035  0.3082 -0.3468
   17SAPC   C12 2130   5.791   0.377  10.749  0.6638  0.7684  0.0243
   17SAPC  H12A 2131   5.870   0.304  10.744 -1.4144 -1.6546  0.3165
   17SAPC  H12B 2132   5.810   0.451  10.826 -0.5292 -0.3708  1.4882
   17SAPC   C13 2133   5.689   0.195  10.893  0.0205  0.1997 -0.2154
   17SAPC  H13A 2134   5.764   0.126  10.856  1.1635  2.4725 -2.5226
   17SAPC  H13B 2135   5.728   0.246  10.980 -1.7604  0.1959  0.6252
   17SAPC  H13C 2136   5.603   0.138  10.922 -0.4596  0.9788 -0.0784
   17SAPC   C14 2137   5.560   0.393  10.847  0.0791  0.1489  0.0809
   17SAPC  H14A 2138   5.583   0.443  10.940  1.7691 -1.2490  0.4687
   17SAPC  H14B 2139   5.549   0.465  10.767  2.8273 -0.6088 -1.1057
   17SAPC  H14C 2140   5.472   0.336  10.871  1.1288 -1.2973  0.6438
   17SAPC   C15 2141   5.605   0.226  10.670  0.6211 -0.0567  0.2900
   17SAPC  H15A 2142   5.681   0.163  10.627  1.0457 -0.1283  1.1276
   17SAPC  H15B 2143   5.511   0.180  10.699  1.5613 -2.1485  0.2138
   17SAPC  H15C 2144   5.581   0.306  10.602  3.9007  0.5829 -0.2792
   17SAPC   C11 2145   5.795   0.444  10.604  0.4078 -0.4957  0.3278
   17SAPC  H11A 2146   5.801   0.353  10.540 -0.1452 -0.1019 -0.2946
   17SAPC  H11B 2147   5.888   0.502  10.585  0.1357  0.1234  0.8837
   17SAPC     P 2148   5.645   0.660  10.627 -0.0993  0.4149 -0.2344
   17SAPC   O13 2149   5.521   0.652  10.707 -0.2079 -0.1053 -0.1052
   17SAPC   O14 2150   5.761   0.720  10.693  0.0004  0.6616  0.0736
   17SAPC   O12 2151   5.675   0.518  10.571 -0.0946  0.5360  0.1919
   17SAPC   O11 2152   5.594   0.737  10.493  0.0708  0.3375 -0.9139
   17SAPC    C1 2153   5.571   0.656  10.375  0.0100  0.0429 -0.6480
   17SAPC    HA 2154   5.529   0.558  10.406  0.2195  0.6359  1.6853
   17SAPC    HB 2155   5.496   0.696  10.304  0.0151  1.8958  0.3282
   17SAPC    C2 2156   5.697   0.628  10.292 -0.2120  0.3567  0.6233
   17SAPC    HS 2157   5.750   0.568  10.369 -2.5073 -2.3133  0.2901
   17SAPC   O21 2158   5.753   0.758  10.249  0.2402  0.2746 -0.2861
   17SAPC   C21 2159   5.877   0.752  10.194 -0.0534  0.3202 -0.1916
   17SAPC   O22 2160   5.942   0.652  10.190  0.1510 -0.0167  0.4670
   17SAPC   C22 2161   5.934   0.892  10.182 -0.1665 -0.0714 -0.5443
   17SAPC   H2R 2162   5.864   0.973  10.211 -1.4520 -0.4704 -2.3734
   17SAPC   H2S 2163   6.016   0.897  10.257 -0.8071 -2.2649  0.3938
   17SAPC    C3 2164   5.665   0.523  10.177  0.0787  0.0574 -0.3081
   17SAPC    HX 2165   5.606   0.442  10.225  2.4947 -0.7167  1.5276
   17SAPC    HY 2166   5.760   0.477  10.143  1.8423  1.1302  2.7646
   17SAPC   O31 2167   5.590   0.589  10.074 -0.2930  0.7068 -0.1334
   17SAPC   C31 2168   5.472   0.533  10.038 -0.8974 -0.0958  0.1649
   17SAPC   O32 2169   5.424   0.429  10.075  0.1197 -0.1136 -0.5730
   17SAPC   C32 2170   5.407   0.623   9.939  0.1912 -0.0145 -0.1771
   17SAPC   H2X 2171   5.459   0.720   9.929 -0.8232  0.6687  0.9183
   17SAPC   H2Y 2172   5.308   0.649   9.980 -0.7215  0.3914 -2.4561
   17SAPC   C23 2173   5.999   0.914  10.046 -0.4896 -0.5963  0.4746
   17SAPC   H3R 2174   6.078   0.844  10.009  0.7159  1.1814 -0.4525
   17SAPC   H3S 2175   6.051   1.009  10.070  0.7680 -1.4820  1.4026
   17SAPC   C24 2176   5.897   0.944   9.935  0.1495 -0.2464 -0.1045
   17SAPC   H4R 2177   5.959   0.992   9.857 -1.8926 -0.8919 -2.2305
   17SAPC   H4S 2178   5.817   1.014   9.965 -0.2099 -0.5550 -0.3276
   17SAPC   C25 2179   5.839   0.826   9.865 -0.1400  0.7227 -0.1603
   17SAPC   H5R 2180   5.822   0.740   9.932 -0.3700  0.4540 -0.5582
   17SAPC   C26 2181   5.820   0.820   9.727 -0.2248  0.5576 -0.1255
   17SAPC   H6R 2182   5.772   0.728   9.692 -2.6663  0.6795  2.5532
   17SAPC   C27 2183   5.841   0.922   9.617  0.4427 -0.0706  0.3735
   17SAPC   H7R 2184   5.805   1.024   9.643 -2.1651 -0.2218 -2.1636
   17SAPC   H7S 2185   5.760   0.916   9.542  0.7554  1.6668 -0.1620
   17SAPC   C28 2186   5.978   0.925   9.552  0.3994 -0.6693 -0.0254
   17SAPC   H8R 2187   6.056   0.911   9.628 -0.2907  3.0666  1.5698
   17SAPC   C29 2188   6.004   0.936   9.417 -0.6462 -0.0358 -0.3142
   17SAPC   H9R 2189   6.109   0.951   9.390 -0.9985  1.5287 -0.9265
   17SAPC  C210 2190   5.908   0.966   9.307 -0.9432 -0.1651 -0.9823
   17SAPC  H10R 2191   5.955   1.020   9.222 -0.5593 -0.0159 -0.6783
   17SAPC  H10S 2192   5.834   1.043   9.338 -1.8805 -2.0800  2.0102
   17SAPC  C211 2193   5.829   0.848   9.256  0.4072 -0.4087  0.3188
   17SAPC  H11R 2194   5.767   0.788   9.324  0.7417  0.1404  1.1247
   17SAPC  C212 2195   5.818   0.812   9.127 -0.0278  0.2036  0.6097
   17SAPC  H12R 2196   5.746   0.732   9.105  0.1462 -0.2279  1.5538
   17SAPC  C213 2197   5.876   0.886   9.006 -0.5202 -0.5423 -0.1205
   17SAPC  H13R 2198   5.868   0.814   8.923 -0.7468  0.3698 -0.9145
   17SAPC  H13S 2199   5.987   0.891   9.018 -0.4691 -0.2704 -0.6999
   17SAPC  C214 2200   5.822   1.016   8.953  0.3934 -0.6278  0.5934
   17SAPC  H14R 2201   5.796   1.090   9.030  0.2992  1.7420 -1.5739
   17SAPC  C215 2202   5.797   1.057   8.831  0.0427 -0.6468 -0.5122
   17SAPC  H15R 2203   5.769   1.162   8.815  2.3042  0.3591  1.4929
   17SAPC  C216 2204   5.827   0.976   8.708 -0.1636 -0.1713  0.1917
   17SAPC  H16R 2205   5.731   0.952   8.659 -0.4178 -1.6885  1.3612
   17SAPC  H16S 2206   5.874   0.877   8.726  1.6854  0.8097  1.1211
   17SAPC  C217 2207   5.914   1.054   8.608  0.1299  0.3421  0.8863
   17SAPC  H17R 2208   5.943   0.993   8.519 -0.8958 -0.1163  0.8499
   17SAPC  H17S 2209   6.017   1.067   8.647  0.2900  0.4229  0.4407
   17SAPC  C218 2210   5.851   1.194   8.559  0.6030 -0.5779  0.3686
   17SAPC  H18R 2211   5.886   1.267   8.635  1.0133  0.9518 -1.2548
   17SAPC  H18S 2212   5.741   1.182   8.573  0.9976 -1.8649  2.9414
   17SAPC  C219 2213   5.893   1.239   8.420  0.2204 -0.1240  0.0340
   17SAPC  H19R 2214   5.868   1.161   8.345 -0.4735  1.9378 -2.0009
   17SAPC  H19S 2215   6.004   1.237   8.417  0.2200 -2.6490 -1.6530
   17SAPC  C220 2216   5.842   1.382   8.385 -0.6640 -0.2731 -0.1833
   17SAPC  H20R 2217   5.898   1.454   8.449  1.4374 -0.9711 -1.1287
   17SAPC  H20S 2218   5.733   1.388   8.407 -0.9399 -0.5603 -1.4262
   17SAPC  H20T 2219   5.853   1.414   8.279 -0.3084  0.9967  0.2124
   17SAPC   C33 2220   5.381   0.565   9.800 -0.8016  0.3415  0.4867
   17SAPC   H3X 2221   5.332   0.466   9.809 -0.5084  0.2464  1.1522
   17SAPC   H3Y 2222   5.482   0.562   9.754  0.6640  0.8542  3.4088
   17SAPC   C34 2223   5.292   0.652   9.712  0.5354  0.4123  0.3365
   17SAPC   H4X 2224   5.327   0.756   9.732 -0.1062  0.4011  1.6464
   17SAPC   H4Y 2225   5.185   0.644   9.744 -0.0563  0.1040 -1.5971
   17SAPC   C35 2226   5.304   0.617   9.563 -0.0138  0.3083 -0.2726
   17SAPC   H5X 2227   5.278   0.509   9.555  0.7373  0.1233 -0.2678
   17SAPC   H5Y 2228   5.410   0.638   9.538 -0.2892  0.5451 -1.2752
   17SAPC   C36 2229   5.231   0.706   9.457  0.1696  0.7615 -0.5401
   17SAPC   H6X 2230   5.225   0.811   9.491 -4.9794  0.9690 -1.3089
   17SAPC   H6Y 2231   5.124   0.677   9.448 -0.6995  3.0004  1.5949
   17SAPC   C37 2232   5.296   0.716   9.317 -0.5588  0.7251  0.1153
   17SAPC   H7X 2233   5.403   0.743   9.329 -0.3103 -0.7403  1.5160
   17SAPC   H7Y 2234   5.252   0.804   9.265 -1.9389 -0.2564 -0.4183
   17SAPC   C38 2235   5.311   0.584   9.222 -0.0584  0.2195 -0.1622
   17SAPC   H8X 2236   5.211   0.550   9.188 -2.1282  4.5376  0.9586
   17SAPC   H8Y 2237   5.363   0.507   9.282 -1.8073 -1.1407 -0.3062
   17SAPC   C39 2238   5.401   0.590   9.095  0.0246 -0.0831  0.1359
   17SAPC   H9X 2239   5.415   0.490   9.050  2.7139 -0.6009  1.8531
   17SAPC   H9Y 2240   5.499   0.629   9.131  0.0882 -0.8325  0.7991
   17SAPC  C310 2241   5.358   0.684   8.981 -0.3837  0.0803  0.6870
   17SAPC  H10X 2242   5.358   0.784   9.028 -0.1039  1.0967 -1.3327
   17SAPC  H10Y 2243   5.254   0.655   8.956  0.2591 -0.9151 -1.0268
   17SAPC  C311 2244   5.452   0.679   8.855 -0.8741  0.3271 -0.0334
   17SAPC  H11X 2245   5.452   0.572   8.826  0.8721 -0.2083  1.6920
   17SAPC  H11Y 2246   5.552   0.696   8.901 -0.4503 -2.3853  0.1989
   17SAPC  C312 2247   5.427   0.767   8.738 -0.1638  0.5872 -0.0495
   17SAPC  H12X 2248   5.510   0.750   8.666  0.6680 -0.1471  1.0659
   17SAPC  H12Y 2249   5.425   0.873   8.773 -4.1954  1.2484 -1.6294
   17SAPC  C313 2250   5.290   0.735   8.671 -0.5657 -0.2431  0.4174
   17SAPC  H13X 2251   5.203   0.767   8.731 -0.6465 -0.9147  0.6702
   17SAPC  H13Y 2252   5.288   0.627   8.645 -1.2779 -0.6138  1.9101
   17SAPC  C314 2253   5.269   0.811   8.530  0.2971 -0.0302  0.2621
   17SAPC  H14X 2254   5.283   0.740   8.445  2.8768 -0.1488  0.6848
   17SAPC  H14Y 2255   5.358   0.876   8.518  0.2965  0.0628  0.7246
   17SAPC  C315 2256   5.139   0.885   8.519  0.4127  0.0816 -0.4251
   17SAPC  H15X 2257   5.125   0.958   8.602  0.1379  0.9579 -1.2224
   17SAPC  H15Y 2258   5.055   0.812   8.513  2.0230 -1.8520 -0.7682
   17SAPC  C316 2259   5.133   0.943   8.381  0.1301 -0.5664 -0.0079
   17SAPC  H16X 2260   5.160   0.860   8.313  1.3264 -1.0675  1.0359
   17SAPC  H16Y 2261   5.212   1.021   8.372 -2.0188  1.7079 -0.4886
   17SAPC  C317 2262   4.998   1.010   8.355 -0.2527 -0.0495  0.6579
   17SAPC  H17X 2263   4.984   1.073   8.445  2.0648  0.8340  0.4559
   17SAPC  H17Y 2264   4.926   0.925   8.361  2.0772 -2.0518  2.3411
   17SAPC  C318 2265   4.986   1.103   8.233 -0.6169  0.0983  0.8405
   17SAPC  H18X 2266   4.996   1.053   8.135  0.9229 -0.3023  1.1795
   17SAPC  H18Y 2267   4.887   1.154   8.224 -0.1900  1.3500  2.6508
   17SAPC  H18Z 2268   5.064   1.182   8.230  1.2226 -1.5584 -4.0735
   18SAPC     N 2269   6.262   1.069  10.812 -0.5707 -0.1854 -0.1262
   18SAPC   C12 2270   6.385   0.994  10.770 -0.2419  0.4277  0.5970
   18SAPC  H12A 2271   6.383   0.899  10.822  1.7645  0.8435  1.5208
   18SAPC  H12B 2272   6.471   1.043  10.812 -0.6749  0.8742  0.9673
   18SAPC   C13 2273   6.148   0.975  10.820  0.4434 -0.9048 -0.5978
   18SAPC  H13A 2274   6.150   0.921  10.913  2.3431  1.3784  0.8126
   18SAPC  H13B 2275   6.056   1.031  10.812 -0.1413 -1.3546  2.1248
   18SAPC  H13C 2276   6.153   0.907  10.736 -1.6786  0.3080 -1.7826
   18SAPC   C14 2277   6.274   1.126  10.952  1.1732 -0.2597  0.6325
   18SAPC  H14A 2278   6.180   1.177  10.970 -0.9087 -3.7430  0.4667
   18SAPC  H14B 2279   6.275   1.043  11.021  3.1062 -0.6824  0.1456
   18SAPC  H14C 2280   6.353   1.198  10.969 -0.1531  0.8628  2.5089
   18SAPC   C15 2281   6.232   1.178  10.716 -0.3376  0.7548  0.5328
   18SAPC  H15A 2282   6.311   1.252  10.710  0.3371 -0.0419 -0.7690
   18SAPC  H15B 2283   6.214   1.135  10.619  0.6258  2.3997 -0.4260
   18SAPC  H15C 2284   6.140   1.227  10.744 -0.4323  1.1566 -0.4373
   18SAPC   C11 2285   6.398   0.963  10.619 -0.3570  0.5894 -0.5836
   18SAPC  H11A 2286   6.504   0.945  10.592  0.0769  2.4290 -0.2725
   18SAPC  H11B 2287   6.374   1.056  10.563 -0.8648  1.7087  1.3644
   18SAPC     P 2288   6.347   0.709  10.633 -0.2717 -0.0499  0.1052
   18SAPC   O13 2289   6.458   0.702  10.725  0.2997  0.3593 -0.1380
   18SAPC   O14 2290   6.217   0.650  10.676 -0.7347 -0.1481  0.2605
   18SAPC   O12 2291   6.317   0.850  10.579  0.1000 -0.5594  0.2434
   18SAPC   O11 2292   6.392   0.639  10.493  0.1669  0.2494 -0.3494
   18SAPC    C1 2293   6.532   0.607  10.479 -0.0331  0.2621 -0.3676
   18SAPC    HA 2294   6.605   0.690  10.469 -0.4096  0.8023  1.1122
   18SAPC    HB 2295   6.573   0.553  10.567  2.3501 -1.2539 -2.2716
   18SAPC    C2 2296   6.565   0.494  10.379 -0.5549 -0.3122  0.6355
   18SAPC    HS 2297   6.665   0.454  10.407 -0.3784 -0.6903 -0.4597
   18SAPC   O21 2298   6.567   0.546  10.240  0.3392  0.1800 -0.6237
   18SAPC   C21 2299   6.651   0.651  10.207  0.8652 -0.5432  0.6263
   18SAPC   O22 2300   6.733   0.698  10.278  0.2306 -0.0253 -0.0512
   18SAPC   C22 2301   6.626   0.699  10.063  0.3057 -0.1144 -0.2982
   18SAPC   H2R 2302   6.591   0.618   9.995 -1.6457  0.6172 -0.2437
   18SAPC   H2S 2303   6.546   0.776  10.056  1.0293  0.9442  1.9132
   18SAPC    C3 2304   6.468   0.380  10.404  0.0780  0.0876 -0.6191
   18SAPC    HX 2305   6.366   0.412  10.371 -0.5406 -0.9895  0.2128
   18SAPC    HY 2306   6.477   0.359  10.512  0.4314 -1.8680 -1.0053
   18SAPC   O31 2307   6.501   0.260  10.342 -0.0232  0.1506  0.1618
   18SAPC   C31 2308   6.399   0.181  10.319 -0.1738 -0.1052  0.1409
   18SAPC   O32 2309   6.299   0.167  10.383  0.3056 -0.4953  0.1241
   18SAPC   C32 2310   6.445   0.100  10.195 -0.0907 -0.0003  0.2104
   18SAPC   H2X 2311   6.527   0.036  10.236 -0.9073 -0.9308  0.4471
   18SAPC   H2Y 2312   6.473   0.170  10.114  1.8906  0.2118  1.0132
   18SAPC   C23 2313   6.752   0.752   9.982  0.1041  0.5296  0.5083
   18SAPC   H3R 2314   6.847   0.710  10.022 -0.2607 -1.4326 -0.5182
   18SAPC   H3S 2315   6.757   0.863   9.988  0.1826  0.5261  0.5110
   18SAPC   C24 2316   6.750   0.696   9.834 -0.8589  0.5681  0.7775
   18SAPC   H4R 2317   6.734   0.586   9.838  1.9113  0.1111  1.2483
   18SAPC   H4S 2318   6.855   0.719   9.804 -1.4261  0.8841 -1.1240
   18SAPC   C25 2319   6.643   0.768   9.749 -0.3096  0.1468 -0.9343
   18SAPC   H5R 2320   6.538   0.743   9.770  0.1825 -0.6388  0.7869
   18SAPC   C26 2321   6.679   0.863   9.659  0.3835 -0.2501  0.4438
   18SAPC   H6R 2322   6.598   0.920   9.610  0.9363  0.7957  0.7283
   18SAPC   C27 2323   6.818   0.912   9.619  0.2374 -0.8809  0.4532
   18SAPC   H7R 2324   6.883   0.821   9.626 -0.2656 -1.2060  0.9620
   18SAPC   H7S 2325   6.868   0.981   9.690 -0.8897  1.0872 -0.6009
   18SAPC   C28 2326   6.816   0.986   9.486 -0.0616 -0.2991  0.0473
   18SAPC   H8R 2327   6.810   1.094   9.503  1.5689 -0.7342  4.5836
   18SAPC   C29 2328   6.823   0.934   9.363  0.4395 -0.1018  0.8844
   18SAPC   H9R 2329   6.822   1.007   9.280 -2.6827 -2.2637 -1.1881
   18SAPC  C210 2330   6.831   0.791   9.325 -0.0050 -0.0657  0.2260
   18SAPC  H10R 2331   6.781   0.719   9.393 -1.7893  1.2173  0.3404
   18SAPC  H10S 2332   6.939   0.764   9.331  0.0445  0.2251  0.7236
   18SAPC  C211 2333   6.782   0.768   9.186  0.3244  0.1440 -0.4840
   18SAPC  H11R 2334   6.681   0.725   9.181 -0.1509  1.2741 -1.0619
   18SAPC  C212 2335   6.851   0.786   9.066 -0.3934  0.0180  0.5193
   18SAPC  H12R 2336   6.803   0.763   8.969  0.2293  0.9004 -0.0183
   18SAPC  C213 2337   6.987   0.841   9.059  0.2083 -0.2961 -0.6383
   18SAPC  H13R 2338   7.043   0.828   9.154  1.5784  0.0796 -1.3685
   18SAPC  H13S 2339   6.972   0.951   9.053  0.7121 -0.2333 -0.8069
   18SAPC  C214 2340   7.069   0.800   8.942 -0.2119  0.0340 -0.2577
   18SAPC  H14R 2341   7.155   0.736   8.966  1.0907  0.6932 -2.7591
   18SAPC  C215 2342   7.057   0.829   8.810 -1.1561 -0.5931 -0.9517
   18SAPC  H15R 2343   7.125   0.786   8.736  1.7230 -0.3682  1.3955
   18SAPC  C216 2344   6.947   0.927   8.750  0.4838 -0.8162  0.9501
   18SAPC  H16R 2345   6.996   1.022   8.721  1.0727 -1.3358  0.1763
   18SAPC  H16S 2346   6.871   0.960   8.824 -0.1484  1.8337 -0.7314
   18SAPC  C217 2347   6.887   0.862   8.621  1.0904  0.3227  0.5947
   18SAPC  H17R 2348   6.965   0.805   8.565  1.3054  0.1848  1.0269
   18SAPC  H17S 2349   6.854   0.944   8.554  0.6144  0.5613  1.1199
   18SAPC  C218 2350   6.764   0.770   8.662  0.2162 -0.3126  0.6759
   18SAPC  H18R 2351   6.712   0.811   8.751  0.1238 -0.8949  0.8982
   18SAPC  H18S 2352   6.799   0.669   8.694 -1.0038 -1.5491 -1.6119
   18SAPC  C219 2353   6.661   0.742   8.552  0.1195 -0.1499  0.8344
   18SAPC  H19R 2354   6.589   0.827   8.544 -0.2430 -0.5392 -0.1844
   18SAPC  H19S 2355   6.589   0.662   8.579 -0.0026  0.0554  1.1300
   18SAPC  C220 2356   6.716   0.719   8.410 -0.5688 -0.3495 -0.3968
   18SAPC  H20R 2357   6.775   0.805   8.370  1.8876 -0.3192  2.8818
   18SAPC  H20S 2358   6.629   0.714   8.342 -1.2341  1.7783  0.2110
   18SAPC  H20T 2359   6.788   0.634   8.409  0.9513  0.8517  0.7768
   18SAPC   C33 2360   6.333   0.001  10.154  0.0862  0.8789  0.3539
   18SAPC   H3X 2361   6.243   0.062  10.130  1.0725  2.4871  0.6622
   18SAPC   H3Y 2362   6.315  -0.077  10.231  1.0961 -0.4686 -0.7051
   18SAPC   C34 2363   6.379  -0.080  10.033  0.9140 -0.1654 -0.4292
   18SAPC   H4X 2364   6.308  -0.165  10.025  0.4358  0.3558 -1.9601
   18SAPC   H4Y 2365   6.475  -0.128  10.063  0.4932 -0.5184  0.3751
   18SAPC   C35 2366   6.397   0.005   9.909 -0.5434 -0.1167  0.6817
   18SAPC   H5X 2367   6.482   0.076   9.912  1.2793 -1.8082 -3.4322
   18SAPC   H5Y 2368   6.309   0.067   9.884  0.7210  1.4448 -0.1046
   18SAPC   C36 2369   6.439  -0.090   9.791 -0.9222  0.0828 -1.0002
   18SAPC   H6X 2370   6.392  -0.189   9.804 -1.4217  0.6082  1.8474
   18SAPC   H6Y 2371   6.544  -0.114   9.820 -0.5988  0.6399 -1.6641
   18SAPC   C37 2372   6.428  -0.028   9.651  0.0170  0.3238 -0.1432
   18SAPC   H7X 2373   6.478   0.071   9.655 -0.6930  0.6666  1.8428
   18SAPC   H7Y 2374   6.323  -0.005   9.622 -0.0209  1.9537  1.1412
   18SAPC   C38 2375   6.498  -0.110   9.550  0.3567 -0.3169  0.1206
   18SAPC   H8X 2376   6.441  -0.203   9.527 -0.6685 -0.5407  3.0684
   18SAPC   H8Y 2377   6.597  -0.138   9.590  0.5380  1.1070  0.7244
   18SAPC   C39 2378   6.528  -0.037   9.410  0.3900  0.2990 -0.7024
   18SAPC   H9X 2379   6.547   0.072   9.416 -0.8613  0.4707  1.1499
   18SAPC   H9Y 2380   6.441  -0.049   9.341 -0.3073 -2.0472  0.4913
   18SAPC  C310 2381   6.646  -0.094   9.334 -0.2050  0.1323 -0.6026
   18SAPC  H10X 2382   6.618  -0.196   9.300 -1.1856  0.9049 -2.2302
   18SAPC  H10Y 2383   6.727  -0.106   9.409 -0.3942 -4.0893 -0.8225
   18SAPC  C311 2384   6.691  -0.011   9.220 -0.1549 -0.3443  0.8097
   18SAPC  H11X 2385   6.769   0.065   9.240  0.8213 -0.8562 -0.8235
   18SAPC  H11Y 2386   6.600   0.044   9.185 -0.3187 -0.5973  0.8332
   18SAPC  C312 2387   6.766  -0.090   9.108  0.5177 -0.1102 -0.6009
   18SAPC  H12X 2388   6.702  -0.172   9.069  1.7387 -1.2867 -0.2171
   18SAPC  H12Y 2389   6.858  -0.136   9.151  2.8290  3.5282 -1.2165
   18SAPC  C313 2390   6.807  -0.010   8.984  0.1232 -1.0338  0.5854
   18SAPC  H13X 2391   6.879   0.069   9.015  0.8891 -1.1980 -0.7202
   18SAPC  H13Y 2392   6.716   0.034   8.938  1.4317  2.1381  0.7978
   18SAPC  C314 2393   6.878  -0.095   8.877  0.9775  0.3868  0.1080
   18SAPC  H14X 2394   6.830  -0.195   8.876  0.1855  0.6561  2.8262
   18SAPC  H14Y 2395   6.983  -0.112   8.909  1.2389 -0.7029 -1.2526
   18SAPC  C315 2396   6.881  -0.023   8.739  0.5088  0.5698  0.5909
   18SAPC  H15X 2397   6.923   0.080   8.733  1.8132  0.1348  1.7903
   18SAPC  H15Y 2398   6.781  -0.015   8.692  1.0946 -1.2141 -1.0851
   18SAPC  C316 2399   6.971  -0.092   8.632  0.3900 -0.5349  0.2181
   18SAPC  H16X 2400   7.076  -0.079   8.667  0.9379 -0.5432 -1.3528
   18SAPC  H16Y 2401   6.967  -0.043   8.533  2.2734 -0.4556  0.1436
   18SAPC  C317 2402   6.944  -0.234   8.615 -0.2336 -0.1222  0.7668
   18SAPC  H17X 2403   6.840  -0.246   8.578  0.4138 -4.2703 -0.2247
   18SAPC  H17Y 2404   6.951  -0.299   8.706 -0.2664 -2.4500 -0.8030
   18SAPC  C318 2405   7.029  -0.298   8.510  0.4654  0.8794  0.1923
   18SAPC  H18X 2406   7.029  -0.256   8.407 -0.4229 -1.9037 -1.0455
   18SAPC  H18Y 2407   7.007  -0.407   8.508 -2.1041  1.3081  1.4819
   18SAPC  H18Z 2408   7.131  -0.298   8.554  2.0678  1.0373 -3.2065
   19SAPC     N 2409   5.243   2.799  10.711 -0.3127  0.1500 -0.6865
   19SAPC   C12 2410   5.132   2.872  10.788 -0.7005 -0.4888 -0.4059
   19SAPC  H12A 2411   5.187   2.932  10.859 -0.6077  0.3856 -1.1959
   19SAPC  H12B 2412   5.065   2.797  10.829 -4.2842  1.4324 -2.2395
   19SAPC   C13 2413   5.181   2.718  10.594 -0.1798  0.2120  0.1966
   19SAPC  H13A 2414   5.142   2.774  10.510 -3.4924  0.0022  1.4201
   19SAPC  H13B 2415   5.257   2.651  10.558  1.4465  1.8609  0.3816
   19SAPC  H13C 2416   5.105   2.645  10.619  1.9772 -2.1980  0.0545
   19SAPC   C14 2417   5.342   2.890  10.656  0.8947  0.0185 -0.3309
   19SAPC  H14A 2418   5.288   2.967  10.603  1.4394  0.8657  0.3260
   19SAPC  H14B 2419   5.403   2.941  10.729 -0.7464  0.2848  0.9195
   19SAPC  H14C 2420   5.405   2.838  10.586  0.7795  1.9242 -1.9493
   19SAPC   C15 2421   5.329   2.705  10.797  0.6694  0.0751 -0.7321
   19SAPC  H15A 2422   5.357   2.750  10.891  1.5668  1.5771 -1.6805
   19SAPC  H15B 2423   5.277   2.615  10.827  2.0723 -0.0596  1.5735
   19SAPC  H15C 2424   5.413   2.681  10.734  0.3767  1.3137 -1.6141
   19SAPC   C11 2425   5.039   2.966  10.704 -0.0109  0.3159  0.3849
   19SAPC  H11A 2426   5.087   3.054  10.655 -0.6035 -1.1070 -3.0643
   19SAPC  H11B 2427   4.975   3.018  10.778 -0.7371  1.9457 -1.3002
   19SAPC     P 2428   4.850   2.800  10.631  0.4019 -0.2774 -0.1053
   19SAPC   O13 2429   4.882   2.680  10.546 -0.9999  0.4483  0.2340
   19SAPC   O14 2430   4.848   2.785  10.781 -0.6532 -0.0238 -0.4171
   19SAPC   O12 2431   4.957   2.905  10.602 -0.1554  0.6258 -0.2184
   19SAPC   O11 2432   4.715   2.875  10.582 -0.4268  0.0301  0.1731
   19SAPC    C1 2433   4.699   3.010  10.623  0.5345  0.0841 -0.3447
   19SAPC    HA 2434   4.618   3.011  10.698 -0.0266 -0.8726 -0.9263
   19SAPC    HB 2435   4.782   3.063  10.676  0.6526 -0.5799  0.1437
   19SAPC    C2 2436   4.662   3.098  10.499 -0.3236 -0.0691  0.5697
   19SAPC    HS 2437   4.650   3.205  10.527  1.7092  0.3577 -0.0398
   19SAPC   O21 2438   4.552   3.046  10.427 -0.8699  0.2731 -0.1195
   19SAPC   C21 2439   4.439   3.071  10.480  0.2381  0.7287 -0.4354
   19SAPC   O22 2440   4.419   3.146  10.576  0.0355 -0.1031 -0.4664
   19SAPC   C22 2441   4.333   2.994  10.403 -0.3481  0.0167  0.1161
   19SAPC   H2R 2442   4.386   2.907  10.357  1.5544  1.1478  0.0872
   19SAPC   H2S 2443   4.260   2.944  10.471  0.2829 -1.9121 -0.5434
   19SAPC    C3 2444   4.790   3.093  10.407  0.3466  0.4424 -1.0121
   19SAPC    HX 2445   4.794   2.992  10.362 -1.1577 -0.1725  0.1495
   19SAPC    HY 2446   4.885   3.111  10.461  0.8552  0.8215 -2.0053
   19SAPC   O31 2447   4.771   3.187  10.301 -0.2131 -0.1389  0.4365
   19SAPC   C31 2448   4.800   3.318  10.328  0.2001  0.5288 -0.5965
   19SAPC   O32 2449   4.864   3.361  10.425  0.1222 -0.1063  0.1417
   19SAPC   C32 2450   4.752   3.400  10.209 -0.1567 -0.4570  0.7338
   19SAPC   H2X 2451   4.645   3.423  10.229 -0.5448 -1.4550 -0.1276
   19SAPC   H2Y 2452   4.766   3.340  10.117 -0.6904  0.7345 -0.1554
   19SAPC   C23 2453   4.254   3.087  10.304 -0.2852  0.1355 -0.0589
   19SAPC   H3R 2454   4.332   3.134  10.241  0.3447 -0.7238  0.0633
   19SAPC   H3S 2455   4.207   3.173  10.356  1.5482  2.7289 -2.4131
   19SAPC   C24 2456   4.162   3.012  10.206 -0.4497  0.5240 -0.8792
   19SAPC   H4R 2457   4.071   2.975  10.258  1.3365  2.4674  4.3433
   19SAPC   H4S 2458   4.221   2.918  10.197  0.7456  1.0233  1.1247
   19SAPC   C25 2459   4.127   3.072  10.074  0.5047  0.5220  0.4468
   19SAPC   H5R 2460   4.083   3.173  10.071 -0.2461  0.1792 -0.0622
   19SAPC   C26 2461   4.135   3.006   9.952  0.4671  0.4983 -0.3102
   19SAPC   H6R 2462   4.103   3.062   9.863 -1.4717  0.2677  0.1881
   19SAPC   C27 2463   4.181   2.865   9.929 -0.8119  0.1914 -0.1460
   19SAPC   H7R 2464   4.246   2.835  10.014  0.6158  0.7211 -1.0173
   19SAPC   H7S 2465   4.253   2.868   9.844  0.2141 -1.4085  0.6302
   19SAPC   C28 2466   4.067   2.766   9.904  0.8190 -0.1999 -0.7563
   19SAPC   H8R 2467   4.013   2.740   9.996 -1.1318  1.0752 -1.4833
   19SAPC   C29 2468   4.024   2.713   9.793 -0.4558  0.9241 -0.3906
   19SAPC   H9R 2469   3.941   2.641   9.800  0.1808 -0.3051 -3.6572
   19SAPC  C210 2470   4.084   2.741   9.650  0.5578  0.2982  0.2615
   19SAPC  H10R 2471   4.134   2.839   9.636  0.8961  0.4251  2.1671
   19SAPC  H10S 2472   3.992   2.757   9.589  0.9622 -0.0291 -0.4565
   19SAPC  C211 2473   4.173   2.641   9.592 -0.2701  0.1963 -0.9384
   19SAPC  H11R 2474   4.247   2.589   9.655  0.4611 -1.6588 -3.2134
   19SAPC  C212 2475   4.192   2.617   9.460 -0.3619  0.2680 -0.3314
   19SAPC  H12R 2476   4.267   2.542   9.431 -0.6943  0.6453 -2.3625
   19SAPC  C213 2477   4.130   2.691   9.340 -0.3624 -0.1550  0.5030
   19SAPC  H13R 2478   4.063   2.773   9.373  1.5779  1.7265 -0.0091
   19SAPC  H13S 2479   4.074   2.612   9.286  0.7682  0.1531 -1.2006
   19SAPC  C214 2480   4.238   2.753   9.257 -0.6788 -0.8187  0.5753
   19SAPC  H14R 2481   4.302   2.825   9.309  1.8285 -1.6220 -1.1550
   19SAPC  C215 2482   4.251   2.737   9.120 -1.0022 -0.3241 -0.1760
   19SAPC  H15R 2483   4.326   2.796   9.066 -0.8993 -0.3023 -0.0107
   19SAPC  C216 2484   4.176   2.655   9.029 -0.1696  0.4645 -0.0445
   19SAPC  H16R 2485   4.069   2.645   9.057 -0.8355 -3.9256 -3.1151
   19SAPC  H16S 2486   4.225   2.555   9.032 -1.2234 -0.0448  1.8395
   19SAPC  C217 2487   4.165   2.713   8.889  0.1549 -0.4472 -0.5543
   19SAPC  H17R 2488   4.123   2.627   8.833  1.5014 -1.5008 -0.0235
   19SAPC  H17S 2489   4.265   2.732   8.845 -0.0187 -1.7988 -1.5824
   19SAPC  C218 2490   4.071   2.830   8.870 -1.1394 -0.0440  0.9014
   19SAPC  H18R 2491   3.976   2.800   8.921 -1.0150  0.8067  1.6488
   19SAPC  H18S 2492   4.056   2.850   8.761  0.9308  2.5918  1.0038
   19SAPC  C219 2493   4.103   2.968   8.928 -0.5822 -0.0101  0.1930
   19SAPC  H19R 2494   4.107   2.956   9.039 -0.9055 -1.8620  0.0433
   19SAPC  H19S 2495   4.014   3.035   8.924  1.4678  2.8644 -0.6191
   19SAPC  C220 2496   4.236   3.025   8.873 -0.1613  0.0519  0.0916
   19SAPC  H20R 2497   4.228   3.033   8.763  0.1872 -1.8306 -0.1168
   19SAPC  H20S 2498   4.326   2.960   8.883 -0.2310 -0.2871 -1.2657
   19SAPC  H20T 2499   4.247   3.125   8.921  1.6238  0.6000 -1.3420
   19SAPC   C33 2500   4.847   3.523  10.184  0.4630 -0.1825  0.5548
   19SAPC   H3X 2501   4.944   3.477  10.156  0.3313  0.1661 -0.5325
   19SAPC   H3Y 2502   4.853   3.575  10.282 -3.2990  1.9668 -0.1437
   19SAPC   C34 2503   4.796   3.630  10.087  0.0097 -0.2212 -0.1417
   19SAPC   H4X 2504   4.847   3.727  10.109  2.1455 -1.2479 -0.2891
   19SAPC   H4Y 2505   4.686   3.646  10.094 -0.2915 -1.6644 -1.1494
   19SAPC   C35 2506   4.810   3.594   9.940  0.0315  0.1167  0.3019
   19SAPC   H5X 2507   4.743   3.509   9.913 -0.9390  0.9329  0.0854
   19SAPC   H5Y 2508   4.911   3.556   9.912 -0.2419 -0.7818  0.4863
   19SAPC   C36 2509   4.762   3.716   9.857  0.6414 -0.6766 -0.5361
   19SAPC   H6X 2510   4.830   3.800   9.884 -0.1208  0.5022 -2.1605
   19SAPC   H6Y 2511   4.662   3.751   9.890  0.7449 -0.5523 -0.3523
   19SAPC   C37 2512   4.772   3.702   9.706  0.6382  0.0679  0.6847
   19SAPC   H7X 2513   4.698   3.623   9.680 -0.3348  1.1041  0.2491
   19SAPC   H7Y 2514   4.872   3.667   9.672  1.7138  1.0296  2.6768
   19SAPC   C38 2515   4.725   3.836   9.648 -0.2750  0.5888  0.2501
   19SAPC   H8X 2516   4.794   3.920   9.674 -1.5063  1.5188  0.6318
   19SAPC   H8Y 2517   4.632   3.866   9.701  0.8666  0.1061  2.6934
   19SAPC   C39 2518   4.714   3.840   9.493  0.3590  0.1208 -0.4467
   19SAPC   H9X 2519   4.672   3.748   9.448 -1.0220 -0.7969  2.4834
   19SAPC   H9Y 2520   4.813   3.856   9.446  0.2614  0.7353 -0.4507
   19SAPC  C310 2521   4.625   3.952   9.437 -0.4342 -0.2105 -0.3355
   19SAPC  H10X 2522   4.654   4.050   9.482  0.1665 -0.5358 -0.0015
   19SAPC  H10Y 2523   4.518   3.936   9.462 -0.3224  0.6541  0.8014
   19SAPC  C311 2524   4.645   3.963   9.288  0.3529 -0.4202 -0.7085
   19SAPC  H11X 2525   4.637   3.863   9.241 -0.5095  0.4067 -2.3956
   19SAPC  H11Y 2526   4.744   4.003   9.257 -0.7270  1.1635 -2.2583
   19SAPC  C312 2527   4.544   4.071   9.231 -0.3070 -0.2617  0.5775
   19SAPC  H12X 2528   4.560   4.176   9.264 -1.7196  0.4373 -0.8476
   19SAPC  H12Y 2529   4.441   4.049   9.266 -0.5409  0.1570  0.1615
   19SAPC  C313 2530   4.558   4.061   9.078  0.3920  0.1621  0.1244
   19SAPC  H13X 2531   4.529   3.958   9.050 -1.0565  0.3502  0.8215
   19SAPC  H13Y 2532   4.666   4.068   9.053  1.2030 -1.6343  2.6445
   19SAPC  C314 2533   4.469   4.164   9.010 -0.1394  0.2606  0.2855
   19SAPC  H14X 2534   4.479   4.257   9.069 -0.9670 -0.5150  1.7093
   19SAPC  H14Y 2535   4.363   4.139   9.031  0.1007 -0.2384  0.9342
   19SAPC  C315 2536   4.487   4.181   8.853  1.2087 -0.0431 -0.6528
   19SAPC  H15X 2537   4.454   4.088   8.802 -0.8440  0.6431 -0.6680
   19SAPC  H15Y 2538   4.588   4.209   8.818  0.7021 -0.7015 -2.7992
   19SAPC  C316 2539   4.394   4.280   8.792 -0.2223 -0.3147  0.3540
   19SAPC  H16X 2540   4.417   4.380   8.835 -0.0108 -0.5764  0.8596
   19SAPC  H16Y 2541   4.290   4.245   8.808 -0.3983  0.2372  0.4389
   19SAPC  C317 2542   4.421   4.310   8.645  0.0537  0.3244  0.6072
   19SAPC  H17X 2543   4.378   4.225   8.588 -1.8587  1.3907  0.3875
   19SAPC  H17Y 2544   4.530   4.322   8.626 -0.2711 -0.0981 -1.8198
   19SAPC  C318 2545   4.346   4.438   8.596  0.2028 -0.1362  0.2351
   19SAPC  H18X 2546   4.349   4.458   8.487 -0.9395  0.6401  0.3353
   19SAPC  H18Y 2547   4.382   4.529   8.647 -1.3805  0.9166 -0.4573
   19SAPC  H18Z 2548   4.241   4.431   8.631  0.2852 -1.4876  0.2619
   20SAPC     N 2549   6.394   5.301  10.741 -0.5000 -0.2639 -0.1494
   20SAPC   C12 2550   6.284   5.211  10.714 -0.4453 -0.1569  0.5938
   20SAPC  H12A 2551   6.229   5.247  10.629 -0.2732  2.4153  1.4777
   20SAPC  H12B 2552   6.225   5.218  10.805 -0.8809  1.1519  0.2339
   20SAPC   C13 2553   6.464   5.257  10.869  0.6723  0.6285 -0.1464
   20SAPC  H13A 2554   6.554   5.314  10.887  0.7739  0.0449  1.4005
   20SAPC  H13B 2555   6.411   5.277  10.961  0.1434 -1.9238  0.2037
   20SAPC  H13C 2556   6.494   5.153  10.862 -1.1122  0.1573 -1.3088
   20SAPC   C14 2557   6.493   5.305  10.622  0.1719  0.2555  0.0969
   20SAPC  H14A 2558   6.580   5.363  10.648  0.2930  0.9531 -1.7118
   20SAPC  H14B 2559   6.523   5.202  10.612  2.3591  0.6311  1.8843
   20SAPC  H14C 2560   6.452   5.350  10.533 -0.3618 -0.2740  0.0710
   20SAPC   C15 2561   6.347   5.437  10.773  0.4305 -0.4625  0.5003
   20SAPC  H15A 2562   6.287   5.473  10.690  2.7781  1.5666 -0.4575
   20SAPC  H15B 2563   6.280   5.433  10.857 -2.2684 -0.9659 -1.5310
   20SAPC  H15C 2564   6.431   5.504  10.789 -2.1974  3.6749 -1.3645
   20SAPC   C11 2565   6.324   5.062  10.690  0.1104  0.6489 -0.6110
   20SAPC  H11A 2566   6.391   5.058  10.601 -0.0955 -2.8197 -0.7365
   20SAPC  H11B 2567   6.234   5.005  10.657  1.0592 -1.4475  0.2473
   20SAPC     P 2568   6.322   4.940  10.925  0.1074  0.2098 -0.4370
   20SAPC   O13 2569   6.432   4.898  11.018 -0.3450 -0.3909 -0.2479
   20SAPC   O14 2570   6.208   5.019  10.979 -0.1552  0.4846  0.1891
   20SAPC   O12 2571   6.387   5.005  10.801  0.3938  0.0430 -0.3218
   20SAPC   O11 2572   6.269   4.811  10.854 -0.3763  0.3473  0.2072
   20SAPC    C1 2573   6.358   4.719  10.781 -0.7433 -0.6800 -0.7801
   20SAPC    HA 2574   6.460   4.761  10.763 -0.4689 -2.3007 -3.5541
   20SAPC    HB 2575   6.393   4.632  10.840  1.5598  0.2779 -0.5946
   20SAPC    C2 2576   6.315   4.710  10.633  0.4996  0.3432 -0.1270
   20SAPC    HS 2577   6.328   4.813  10.594 -0.4828  0.6271  0.2572
   20SAPC   O21 2578   6.179   4.672  10.642  0.0702 -0.1906  0.6257
   20SAPC   C21 2579   6.102   4.733  10.547  0.0141  0.5796  0.0545
   20SAPC   O22 2580   6.130   4.828  10.483  0.1726 -0.5357 -0.3554
   20SAPC   C22 2581   5.965   4.652  10.539 -0.1901 -0.3869  0.3696
   20SAPC   H2R 2582   5.946   4.619  10.643  0.9304 -1.5771  0.2290
   20SAPC   H2S 2583   5.882   4.721  10.511 -0.1487 -0.6892 -0.5459
   20SAPC    C3 2584   6.405   4.621  10.542  0.1548 -0.4030 -0.6189
   20SAPC    HX 2585   6.403   4.520  10.588 -0.1848 -0.1988 -0.1819
   20SAPC    HY 2586   6.512   4.650  10.541  0.1044 -0.1314  0.6976
   20SAPC   O31 2587   6.354   4.618  10.409  0.5483 -0.2123  0.5946
   20SAPC   C31 2588   6.391   4.725  10.326  0.7956 -0.5835 -0.4335
   20SAPC   O32 2589   6.465   4.810  10.367  0.2979 -0.1898  0.0291
   20SAPC   C32 2590   6.325   4.713  10.192  0.0219 -0.4449 -0.2580
   20SAPC   H2X 2591   6.248   4.792  10.181 -0.2106 -0.4551  1.1562
   20SAPC   H2Y 2592   6.272   4.615  10.182 -2.4870  0.7502  0.5167
   20SAPC   C23 2593   5.973   4.536  10.431 -0.3006 -0.0746 -0.7674
   20SAPC   H3R 2594   5.884   4.470  10.444 -0.9994  0.9582 -0.1112
   20SAPC   H3S 2595   6.062   4.475  10.458 -0.7453 -0.4315 -0.0619
   20SAPC   C24 2596   5.996   4.592  10.289  0.0933  0.1328 -0.0038
   20SAPC   H4R 2597   6.017   4.507  10.221  0.8461 -1.1526  1.7551
   20SAPC   H4S 2598   6.091   4.650  10.282 -0.0024  0.0720 -2.4710
   20SAPC   C25 2599   5.884   4.676  10.232  0.4460 -0.9425  0.4497
   20SAPC   H5R 2600   5.837   4.746  10.304  0.0470  1.3698 -1.9131
   20SAPC   C26 2601   5.839   4.681  10.102 -0.5436 -0.3088  0.8657
   20SAPC   H6R 2602   5.746   4.737  10.083  0.0865  0.6378  0.4829
   20SAPC   C27 2603   5.889   4.599   9.983  0.1774  0.4907 -0.1881
   20SAPC   H7R 2604   5.800   4.558   9.930 -0.1641 -0.1818  0.8831
   20SAPC   H7S 2605   5.941   4.506  10.012  0.8228  0.2423 -2.0011
   20SAPC   C28 2606   5.979   4.680   9.884 -0.4495  0.7328 -0.2716
   20SAPC   H8R 2607   6.006   4.782   9.913 -2.5674  1.4881 -0.7884
   20SAPC   C29 2608   6.023   4.642   9.765 -0.1469 -0.5667  0.3557
   20SAPC   H9R 2609   6.084   4.712   9.706  1.5197 -0.7137  1.8127
   20SAPC  C210 2610   5.989   4.503   9.702 -0.8766 -0.5332 -0.6731
   20SAPC  H10R 2611   5.903   4.517   9.632 -0.2851  0.8253 -1.1748
   20SAPC  H10S 2612   5.953   4.431   9.778 -0.6977 -1.7734 -1.7321
   20SAPC  C211 2613   6.104   4.436   9.625  0.3372 -0.3279 -0.3051
   20SAPC  H11R 2614   6.180   4.391   9.690  0.7979  1.0767  0.1839
   20SAPC  C212 2615   6.130   4.443   9.496  0.0656 -0.0134  0.7525
   20SAPC  H12R 2616   6.215   4.390   9.451  0.1656 -0.3872  1.3709
   20SAPC  C213 2617   6.048   4.515   9.394  0.1224 -0.3293 -0.2986
   20SAPC  H13R 2618   6.106   4.562   9.312 -3.7626  3.2916 -1.3382
   20SAPC  H13S 2619   6.005   4.607   9.439 -0.5651 -2.0725  2.8820
   20SAPC  C214 2620   5.942   4.424   9.338 -0.1478 -0.1859  0.1436
   20SAPC  H14R 2621   5.890   4.355   9.405  0.1554 -0.6300 -0.0764
   20SAPC  C215 2622   5.924   4.407   9.206 -0.4011  0.1204  0.0038
   20SAPC  H15R 2623   5.844   4.339   9.173  0.2119 -0.3938 -0.4620
   20SAPC  C216 2624   5.993   4.469   9.088  0.2092 -0.5961 -0.1512
   20SAPC  H16R 2625   6.083   4.527   9.116 -0.7782 -0.1588  2.3793
   20SAPC  H16S 2626   5.920   4.546   9.052  2.8231  1.5393 -1.1948
   20SAPC  C217 2627   6.033   4.368   8.981 -0.3221  0.2190 -0.5669
   20SAPC  H17R 2628   5.947   4.301   8.961 -0.9952  0.6695  0.6984
   20SAPC  H17S 2629   6.111   4.300   9.023 -1.3418 -1.6244 -1.5026
   20SAPC  C218 2630   6.084   4.434   8.859 -0.0479  0.1156  0.3033
   20SAPC  H18R 2631   6.171   4.498   8.881 -0.0847  0.3030 -0.0930
   20SAPC  H18S 2632   6.007   4.509   8.830  0.3637  0.2193 -0.5430
   20SAPC  C219 2633   6.122   4.338   8.746 -0.1578  0.1927  0.2388
   20SAPC  H19R 2634   6.159   4.243   8.791  2.7439  0.9970 -0.2572
   20SAPC  H19S 2635   6.209   4.385   8.696 -0.7106  0.6828 -0.2695
   20SAPC  C220 2636   6.015   4.325   8.636 -0.2090 -0.2731 -0.3101
   20SAPC  H20R 2637   5.924   4.280   8.680 -0.8112  1.8526  0.7407
   20SAPC  H20S 2638   6.053   4.261   8.553 -1.5545 -0.0693 -1.1019
   20SAPC  H20T 2639   5.979   4.421   8.594  0.1526  0.0419  0.0956
   20SAPC   C33 2640   6.424   4.713  10.076  0.4883  0.5250  0.7968
   20SAPC   H3X 2641   6.505   4.640  10.098 -1.1442 -0.7986  2.7867
   20SAPC   H3Y 2642   6.460   4.818  10.074  0.8904  0.3915  0.8705
   20SAPC   C34 2643   6.357   4.676   9.940 -0.1506  0.2930  0.8389
   20SAPC   H4X 2644   6.267   4.741   9.940 -0.0038  0.4995  1.4069
   20SAPC   H4Y 2645   6.327   4.569   9.935 -0.5723  0.4774 -2.1028
   20SAPC   C35 2646   6.451   4.700   9.827  0.1826 -0.7451 -0.2618
   20SAPC   H5X 2647   6.540   4.636   9.843  0.3216 -0.1619  1.4322
   20SAPC   H5Y 2648   6.491   4.802   9.846  2.3495 -1.9227  2.0540
   20SAPC   C36 2649   6.389   4.690   9.693  0.5490 -0.4643  0.1146
   20SAPC   H6X 2650   6.298   4.753   9.686 -0.3525 -1.8586 -1.4731
   20SAPC   H6Y 2651   6.357   4.586   9.666  2.3664 -0.8549 -0.6661
   20SAPC   C37 2652   6.481   4.740   9.579  0.4738  0.1979 -0.1947
   20SAPC   H7X 2653   6.562   4.664   9.571  1.0460  0.8245 -0.4575
   20SAPC   H7Y 2654   6.532   4.831   9.615 -0.9549 -0.2846  3.3865
   20SAPC   C38 2655   6.403   4.758   9.440 -0.4258  0.8909 -0.1272
   20SAPC   H8X 2656   6.313   4.820   9.458  0.0472  1.8168 -0.8418
   20SAPC   H8Y 2657   6.385   4.652   9.412  2.5067 -0.5134  2.7928
   20SAPC   C39 2658   6.487   4.819   9.320 -0.3308  0.0206 -0.5712
   20SAPC   H9X 2659   6.596   4.797   9.315 -0.2183  0.7775 -1.7998
   20SAPC   H9Y 2660   6.483   4.928   9.341  0.5905 -0.1539  0.5391
   20SAPC  C310 2661   6.435   4.793   9.182 -0.1205 -0.7238 -0.4165
   20SAPC  H10X 2662   6.325   4.797   9.192  0.0200  1.0371  0.9162
   20SAPC  H10Y 2663   6.462   4.692   9.145  2.0219  0.3117 -1.8949
   20SAPC  C311 2664   6.495   4.896   9.077  0.4598  0.6753 -0.0293
   20SAPC  H11X 2665   6.605   4.883   9.073  0.1652 -2.4832 -0.2767
   20SAPC  H11Y 2666   6.464   4.997   9.110 -0.1837  0.6927 -0.6654
   20SAPC  C312 2667   6.431   4.878   8.940  0.3604 -0.6251 -0.5289
   20SAPC  H12X 2668   6.465   4.954   8.866 -0.8871 -1.5851 -2.1728
   20SAPC  H12Y 2669   6.320   4.869   8.934  0.4935 -1.4774 -4.3579
   20SAPC  C313 2670   6.476   4.751   8.861  0.3980 -0.1336 -0.1255
   20SAPC  H13X 2671   6.465   4.664   8.930  0.4826 -0.1176 -0.0901
   20SAPC  H13Y 2672   6.583   4.766   8.834  0.3455 -0.8213 -0.7464
   20SAPC  C314 2673   6.395   4.734   8.725 -0.8748 -0.4926 -0.2758
   20SAPC  H14X 2674   6.408   4.822   8.658 -4.0134  1.0786  0.9562
   20SAPC  H14Y 2675   6.286   4.730   8.748 -0.8298 -0.7506 -0.0989
   20SAPC  C315 2676   6.430   4.601   8.656 -0.8721 -0.0837 -0.0650
   20SAPC  H15X 2677   6.415   4.516   8.726  1.2645 -1.4654 -1.1605
   20SAPC  H15Y 2678   6.540   4.601   8.641 -1.0537 -0.8276 -1.7152
   20SAPC  C316 2679   6.364   4.585   8.519 -0.5947  0.3619 -0.4494
   20SAPC  H16X 2680   6.409   4.669   8.462  1.3804 -1.3818 -1.6142
   20SAPC  H16Y 2681   6.253   4.595   8.522 -0.5195  1.0159  0.3299
   20SAPC  C317 2682   6.394   4.464   8.444 -0.4958 -0.0523  0.0460
   20SAPC  H17X 2683   6.370   4.382   8.515  0.6157  0.6893  1.3174
   20SAPC  H17Y 2684   6.499   4.457   8.410 -0.6392 -0.6377 -0.2889
   20SAPC  C318 2685   6.305   4.459   8.320 -0.4693  0.0445  0.1124
   20SAPC  H18X 2686   6.326   4.370   8.258 -1.0260 -0.8881  1.2147
   20SAPC  H18Y 2687   6.314   4.555   8.265  0.3576  0.5114  1.0230
   20SAPC  H18Z 2688   6.199   4.444   8.350 -1.7414  0.1033 -3.8250
   21SAPC     N 2689   6.714   4.039  11.189 -0.1399 -0.2060  0.1146
   21SAPC   C12 2690   6.702   3.971  11.056  0.5968 -0.1649  0.5179
   21SAPC  H12A 2691   6.608   3.918  11.047 -0.5802  1.6977  1.2260
   21SAPC  H12B 2692   6.775   3.891  11.062  2.2035  0.9973 -1.9193
   21SAPC   C13 2693   6.869   4.079  11.207  0.1317  0.2637 -0.3520
   21SAPC  H13A 2694   6.898   4.138  11.122  0.3658  0.0651 -0.4103
   21SAPC  H13B 2695   6.883   4.129  11.302  2.0176  0.5131 -0.7377
   21SAPC  H13C 2696   6.939   3.998  11.200 -0.6404 -0.4075 -0.4726
   21SAPC   C14 2697   6.630   4.164  11.201 -0.9889 -0.3265  0.1546
   21SAPC  H14A 2698   6.676   4.239  11.265  5.6651  0.2392 -4.3237
   21SAPC  H14B 2699   6.638   4.216  11.107  4.0280  0.0873  0.5299
   21SAPC  H14C 2700   6.525   4.139  11.208 -1.0280 -0.3634 -0.5786
   21SAPC   C15 2701   6.683   3.941  11.303  0.2337 -0.0766  0.2993
   21SAPC  H15A 2702   6.648   4.002  11.385 -1.0307 -1.4160  0.8018
   21SAPC  H15B 2703   6.600   3.883  11.268 -0.3664 -0.8756  2.8486
   21SAPC  H15C 2704   6.764   3.876  11.332  3.2095  3.1265 -0.1294
   21SAPC   C11 2705   6.715   4.061  10.930 -0.0971  0.2404  0.0724
   21SAPC  H11A 2706   6.634   4.136  10.928 -0.0845  0.3231  1.6300
   21SAPC  H11B 2707   6.698   4.001  10.838 -0.2027  0.5688 -0.1231
   21SAPC     P 2708   6.870   4.246  10.837  0.1449 -0.0750 -0.2047
   21SAPC   O13 2709   6.814   4.366  10.907 -0.0982 -0.3731  0.2912
   21SAPC   O14 2710   7.014   4.254  10.802 -0.0768 -0.0376 -0.4220
   21SAPC   O12 2711   6.853   4.112  10.919  0.4728  0.3323  0.1780
   21SAPC   O11 2712   6.783   4.215  10.712  0.5496  0.2867  0.1791
   21SAPC    C1 2713   6.821   4.147  10.591 -0.1471  0.1534 -0.5880
   21SAPC    HA 2714   6.932   4.137  10.584 -0.1930  0.7807 -2.9448
   21SAPC    HB 2715   6.778   4.046  10.598 -0.2105  0.3129  2.5861
   21SAPC    C2 2716   6.780   4.234  10.476 -0.1168  0.1712  0.2688
   21SAPC    HS 2717   6.823   4.332  10.506 -1.1696  0.3297  1.3109
   21SAPC   O21 2718   6.636   4.219  10.457  0.3709 -0.2885  0.4102
   21SAPC   C21 2719   6.573   4.329  10.426  0.1191 -0.0164  0.6587
   21SAPC   O22 2720   6.621   4.440  10.434  0.0860  0.0916 -0.3896
   21SAPC   C22 2721   6.430   4.298  10.375 -0.4229 -0.0897  0.2836
   21SAPC   H2R 2722   6.415   4.189  10.395 -0.8630 -0.7642 -3.2008
   21SAPC   H2S 2723   6.361   4.358  10.438  1.5467  1.6030  0.9499
   21SAPC    C3 2724   6.859   4.190  10.347  0.4647 -0.1528 -0.2752
   21SAPC    HX 2725   6.841   4.081  10.334  1.0488 -0.1582 -1.1049
   21SAPC    HY 2726   6.969   4.196  10.355  0.4673 -0.5743  0.0321
   21SAPC   O31 2727   6.803   4.257  10.226  0.1921  0.4058  0.3696
   21SAPC   C31 2728   6.849   4.383  10.203  0.7334 -0.5211  0.4401
   21SAPC   O32 2729   6.936   4.435  10.270 -0.3259 -0.0239 -0.2413
   21SAPC   C32 2730   6.771   4.445  10.076  0.4208 -0.8509  0.4594
   21SAPC   H2X 2731   6.798   4.551  10.060  0.5857 -0.5601  2.4240
   21SAPC   H2Y 2732   6.664   4.429  10.105 -0.3096 -0.5630 -1.8774
   21SAPC   C23 2733   6.402   4.319  10.221  0.2023 -0.1170 -0.9371
   21SAPC   H3R 2734   6.440   4.420  10.192 -1.4167  0.3277 -1.6533
   21SAPC   H3S 2735   6.293   4.311  10.198 -0.2659 -1.0010  1.3369
   21SAPC   C24 2736   6.463   4.207  10.128  0.1248  0.3224  0.1522
   21SAPC   H4R 2737   6.406   4.116  10.155  1.5540 -0.6756 -0.0907
   21SAPC   H4S 2738   6.571   4.187  10.146 -0.2458 -1.4366  0.6478
   21SAPC   C25 2739   6.432   4.252   9.985  0.4970  0.3603  0.1472
   21SAPC   H5R 2740   6.422   4.360   9.966  1.4865  0.0128 -2.8003
   21SAPC   C26 2741   6.408   4.168   9.880 -0.0260  0.2064 -0.0084
   21SAPC   H6R 2742   6.414   4.218   9.782  1.4555 -0.0872 -0.0884
   21SAPC   C27 2743   6.410   4.014   9.875 -0.6554 -0.1489  0.0311
   21SAPC   H7R 2744   6.346   3.974   9.794 -0.0061 -0.1370 -0.5035
   21SAPC   H7S 2745   6.357   3.985   9.968 -1.1044  0.6934  0.0422
   21SAPC   C28 2746   6.551   3.953   9.885  0.0004  0.2289 -0.4023
   21SAPC   H8R 2747   6.587   3.942   9.989  1.2703  0.5783 -0.7931
   21SAPC   C29 2748   6.624   3.905   9.786  0.1647 -0.1984  0.7024
   21SAPC   H9R 2749   6.726   3.875   9.812  0.1702 -0.0353  0.8732
   21SAPC  C210 2750   6.584   3.908   9.637  0.2231 -0.5705  0.0069
   21SAPC  H10R 2751   6.514   3.994   9.629  1.8191  0.8158  0.3198
   21SAPC  H10S 2752   6.530   3.815   9.608 -0.5102  0.5622 -2.4820
   21SAPC  C211 2753   6.699   3.930   9.540  0.4249 -0.1493 -0.0261
   21SAPC  H11R 2754   6.794   3.967   9.581  0.9951  0.1726 -1.5588
   21SAPC  C212 2755   6.706   3.914   9.407  0.2579 -0.2200  0.2632
   21SAPC  H12R 2756   6.800   3.934   9.353 -0.9270  1.0961 -1.4098
   21SAPC  C213 2757   6.602   3.862   9.316 -0.7464 -0.4227  0.3088
   21SAPC  H13R 2758   6.580   3.943   9.243 -0.1588  2.8355  3.4592
   21SAPC  H13S 2759   6.518   3.842   9.386  0.6621  1.0718  2.5875
   21SAPC  C214 2760   6.650   3.732   9.257 -0.0933 -0.3621 -0.0204
   21SAPC  H14R 2761   6.688   3.663   9.335 -0.4548  1.9969  2.3873
   21SAPC  C215 2762   6.639   3.700   9.128  0.0880 -0.6340  0.2355
   21SAPC  H15R 2763   6.684   3.605   9.095 -3.7454 -1.8447 -2.0758
   21SAPC  C216 2764   6.579   3.775   9.009  0.4498  0.1266  0.1579
   21SAPC  H16R 2765   6.560   3.884   9.026  0.1468 -0.1452  1.6287
   21SAPC  H16S 2766   6.484   3.726   8.979  0.9058 -0.6770  0.0155
   21SAPC  C217 2767   6.689   3.783   8.897  0.4894  0.3130  0.1545
   21SAPC  H17R 2768   6.631   3.821   8.810 -1.9484 -0.6959  1.2331
   21SAPC  H17S 2769   6.731   3.684   8.870 -1.6560 -0.3033 -1.2219
   21SAPC  C218 2770   6.808   3.877   8.915 -0.2978  0.6103  0.2960
   21SAPC  H18R 2771   6.852   3.873   9.017  1.2363 -0.1435 -0.3573
   21SAPC  H18S 2772   6.775   3.982   8.898 -4.1248 -0.7352 -1.6855
   21SAPC  C219 2773   6.903   3.855   8.796  0.2904 -0.5639  0.3620
   21SAPC  H19R 2774   6.951   3.761   8.830 -4.0354 -1.8658  3.6869
   21SAPC  H19S 2775   6.977   3.938   8.801 -0.2211 -0.1903  3.1817
   21SAPC  C220 2776   6.846   3.835   8.658 -0.2967 -0.5697 -0.2750
   21SAPC  H20R 2777   6.785   3.927   8.644 -0.3865 -0.5429  0.2482
   21SAPC  H20S 2778   6.778   3.748   8.657 -2.0472  0.7365 -1.4439
   21SAPC  H20T 2779   6.920   3.827   8.576 -2.4956 -1.6080 -2.2594
   21SAPC   C33 2780   6.784   4.362   9.944  0.2940  0.0731  0.1699
   21SAPC   H3X 2781   6.736   4.265   9.966  1.3321 -0.2246  1.2500
   21SAPC   H3Y 2782   6.890   4.350   9.913  0.0147 -0.7784 -0.4806
   21SAPC   C34 2783   6.713   4.409   9.820  1.2032  0.2796 -0.8728
   21SAPC   H4X 2784   6.741   4.513   9.796  4.2421 -0.9637 -3.2617
   21SAPC   H4Y 2785   6.603   4.398   9.835  1.4789  0.2183  1.5221
   21SAPC   C35 2786   6.733   4.336   9.690  0.9266  0.2164 -0.4860
   21SAPC   H5X 2787   6.689   4.235   9.700  0.6582  0.5234  2.2781
   21SAPC   H5Y 2788   6.841   4.336   9.663  1.1158 -0.3568  0.2319
   21SAPC   C36 2789   6.656   4.396   9.572 -0.2697 -0.8227 -0.4854
   21SAPC   H6X 2790   6.721   4.472   9.524  0.5438 -0.7450  0.7113
   21SAPC   H6Y 2791   6.558   4.433   9.608  0.1699  0.2390 -0.3550
   21SAPC   C37 2792   6.626   4.292   9.460  0.0633  0.5383  0.3327
   21SAPC   H7X 2793   6.587   4.196   9.499 -0.1838 -0.1842 -1.5703
   21SAPC   H7Y 2794   6.724   4.275   9.412 -0.2178  1.0031 -0.4272
   21SAPC   C38 2795   6.544   4.355   9.352 -0.2732 -0.5758  0.2191
   21SAPC   H8X 2796   6.582   4.451   9.312  0.2402 -1.1249 -0.6330
   21SAPC   H8Y 2797   6.445   4.370   9.401 -0.0442 -1.8835  1.1534
   21SAPC   C39 2798   6.522   4.255   9.240 -1.0888 -0.5341  0.0330
   21SAPC   H9X 2799   6.464   4.173   9.286 -1.6653  0.7903  1.7959
   21SAPC   H9Y 2800   6.616   4.212   9.200 -1.0603  1.3185 -2.1400
   21SAPC  C310 2801   6.434   4.310   9.130 -0.3358  0.3557 -0.6988
   21SAPC  H10X 2802   6.491   4.396   9.088  0.1770  1.3246  1.8160
   21SAPC  H10Y 2803   6.342   4.348   9.179 -0.0325 -0.3717  0.4654
   21SAPC  C311 2804   6.404   4.209   9.021  0.9222  0.1940 -0.2204
   21SAPC  H11X 2805   6.314   4.247   8.969  0.2507  0.3560  1.0075
   21SAPC  H11Y 2806   6.366   4.115   9.066 -1.2716  0.8671 -0.5867
   21SAPC  C312 2807   6.523   4.193   8.929 -0.1832  0.2298  0.3377
   21SAPC  H12X 2808   6.612   4.140   8.972 -0.8219 -0.6430  0.6145
   21SAPC  H12Y 2809   6.547   4.298   8.901 -0.6937  0.0019 -1.0196
   21SAPC  C313 2810   6.492   4.111   8.805  0.3089  0.3046  0.0406
   21SAPC  H13X 2811   6.392   4.151   8.774 -0.1010  0.9397  2.0276
   21SAPC  H13Y 2812   6.484   4.002   8.824  0.5041 -0.0152 -1.5280
   21SAPC  C314 2813   6.588   4.141   8.688  0.9256  0.1932 -0.3141
   21SAPC  H14X 2814   6.693   4.139   8.724  0.9393  1.6607 -0.2073
   21SAPC  H14Y 2815   6.575   4.247   8.659 -0.9890  0.3969  1.1309
   21SAPC  C315 2816   6.561   4.048   8.575  0.3908 -0.0943  0.1524
   21SAPC  H15X 2817   6.563   3.942   8.609  2.8493 -0.1535 -0.0008
   21SAPC  H15Y 2818   6.643   4.057   8.501  0.1074 -0.0351 -0.1583
   21SAPC  C316 2819   6.420   4.071   8.509 -0.2222 -0.1552 -0.1588
   21SAPC  H16X 2820   6.396   4.177   8.490 -0.4486 -0.3333 -0.8964
   21SAPC  H16Y 2821   6.340   4.049   8.583 -1.4421  1.6229 -0.8987
   21SAPC  C317 2822   6.396   3.983   8.381 -0.1253 -0.4703 -0.1607
   21SAPC  H17X 2823   6.392   3.875   8.407 -1.8179 -0.6253 -0.9337
   21SAPC  H17Y 2824   6.477   4.004   8.308  0.8314  1.1155  1.2811
   21SAPC  C318 2825   6.255   4.017   8.321  0.0544  0.1171  0.1440
   21SAPC  H18X 2826   6.240   3.950   8.233  0.0491  0.0982  0.1595
   21SAPC  H18Y 2827   6.260   4.122   8.285  0.6823 -0.2704 -0.9552
   21SAPC  H18Z 2828   6.184   3.994   8.403 -1.6891 -0.5040 -1.4504
   22SAPC     N 2829   4.799   2.134  10.755 -0.1685 -0.1955 -0.1423
   22SAPC   C12 2830   4.777   2.269  10.843 -0.7567  0.2832  0.8433
   22SAPC  H12A 2831   4.867   2.291  10.899 -0.3444  1.7091 -0.3263
   22SAPC  H12B 2832   4.699   2.244  10.913 -1.3781 -1.0248 -0.2593
   22SAPC   C13 2833   4.898   2.168  10.646  0.3304 -0.5472  0.3137
   22SAPC  H13A 2834   4.977   2.218  10.700  0.2791 -0.8654  0.6886
   22SAPC  H13B 2835   4.937   2.075  10.605 -1.7520 -0.4943 -1.9514
   22SAPC  H13C 2836   4.864   2.242  10.576  2.5561 -1.2590 -1.6575
   22SAPC   C14 2837   4.867   2.040  10.849 -0.6584 -0.3694  0.3271
   22SAPC  H14A 2838   4.921   1.966  10.792 -2.6318 -2.1089  0.5714
   22SAPC  H14B 2839   4.938   2.086  10.916  0.0200 -2.2400  0.9570
   22SAPC  H14C 2840   4.805   1.988  10.921 -4.1157  0.3107 -1.9302
   22SAPC   C15 2841   4.665   2.077  10.701  0.0001 -0.4501 -0.8805
   22SAPC  H15A 2842   4.634   2.134  10.615  1.7250 -1.6542 -2.3889
   22SAPC  H15B 2843   4.692   1.981  10.659 -0.5106  0.0405 -2.3723
   22SAPC  H15C 2844   4.592   2.071  10.780  1.0556  0.7865  0.2317
   22SAPC   C11 2845   4.741   2.407  10.776 -1.0665 -0.2285 -1.0432
   22SAPC  H11A 2846   4.826   2.437  10.710  0.8419  1.0075  1.7511
   22SAPC  H11B 2847   4.720   2.486  10.851  1.5773 -1.8048  1.5705
   22SAPC     P 2848   4.477   2.389  10.744 -0.0403 -0.5855  0.2759
   22SAPC   O13 2849   4.401   2.281  10.674 -0.7985 -0.6449 -0.3012
   22SAPC   O14 2850   4.469   2.395  10.893 -0.0665 -0.3405  0.1245
   22SAPC   O12 2851   4.627   2.377  10.700 -0.0959 -0.1566  0.6534
   22SAPC   O11 2852   4.427   2.534  10.685  0.0110 -0.9239  0.2205
   22SAPC    C1 2853   4.319   2.540  10.593 -0.9001 -0.5252  0.7199
   22SAPC    HA 2854   4.235   2.470  10.614 -0.2730 -0.4918  3.9153
   22SAPC    HB 2855   4.270   2.639  10.602 -0.9569 -0.5319  0.4809
   22SAPC    C2 2856   4.364   2.515  10.450 -0.7480  0.3732 -0.2325
   22SAPC    HS 2857   4.398   2.410  10.439 -4.3470 -0.8662 -0.6768
   22SAPC   O21 2858   4.465   2.611  10.424  0.7143  0.0384  0.1850
   22SAPC   C21 2859   4.560   2.580  10.338 -0.4106  0.8728 -0.7024
   22SAPC   O22 2860   4.576   2.465  10.290  0.2337 -0.2085 -0.0235
   22SAPC   C22 2861   4.633   2.708  10.299 -0.0558  0.0933 -0.3118
   22SAPC   H2R 2862   4.564   2.795  10.304 -1.9148 -1.2641 -0.9932
   22SAPC   H2S 2863   4.717   2.717  10.370  0.5950  0.3186 -1.0903
   22SAPC    C3 2864   4.249   2.520  10.350 -0.1694  0.4705  0.5477
   22SAPC    HX 2865   4.188   2.611  10.372 -0.8296  0.7075 -1.9437
   22SAPC    HY 2866   4.179   2.435  10.363 -2.8463  2.3285 -0.5930
   22SAPC   O31 2867   4.288   2.525  10.214  0.3748  0.1144 -0.7095
   22SAPC   C31 2868   4.306   2.410  10.152 -0.0855  0.2216  0.2320
   22SAPC   O32 2869   4.275   2.303  10.193  0.5777  0.6348 -0.2685
   22SAPC   C32 2870   4.369   2.435  10.013  0.1168 -0.0198  0.0760
   22SAPC   H2X 2871   4.455   2.504  10.029  0.2792 -0.0791 -0.4981
   22SAPC   H2Y 2872   4.287   2.480   9.951 -0.3320  0.6295  1.1187
   22SAPC   C23 2873   4.686   2.696  10.156 -0.5290  0.0689 -0.4793
   22SAPC   H3R 2874   4.605   2.663  10.088 -1.0140 -1.4427  0.7601
   22SAPC   H3S 2875   4.767   2.621  10.168 -1.1496 -0.4034  1.1337
   22SAPC   C24 2876   4.729   2.828  10.091  0.0727 -0.5798  0.3882
   22SAPC   H4R 2877   4.773   2.803   9.993 -0.4231 -0.5428  0.1536
   22SAPC   H4S 2878   4.813   2.873  10.147 -1.5603 -0.0545  2.5783
   22SAPC   C25 2879   4.621   2.928  10.081  0.3639 -0.0817  0.3498
   22SAPC   H5R 2880   4.580   2.971  10.173 -1.2545 -1.1727  0.1930
   22SAPC   C26 2881   4.556   2.964   9.972 -0.5771  0.0230  0.0795
   22SAPC   H6R 2882   4.476   3.039   9.975 -0.4201  0.1613  1.7862
   22SAPC   C27 2883   4.589   2.905   9.837 -0.3641 -0.3738  0.1442
   22SAPC   H7R 2884   4.700   2.902   9.837 -0.3473  0.0748 -0.5230
   22SAPC   H7S 2885   4.555   2.975   9.757 -1.2192 -1.9909 -0.9688
   22SAPC   C28 2886   4.531   2.772   9.806 -0.0843 -0.1514 -0.2255
   22SAPC   H8R 2887   4.489   2.730   9.898 -0.0873 -1.5989 -0.8615
   22SAPC   C29 2888   4.506   2.722   9.682 -0.8909  0.2506  0.4516
   22SAPC   H9R 2889   4.472   2.617   9.679  0.5514 -0.2350  0.0967
   22SAPC  C210 2890   4.546   2.786   9.551  0.0204 -0.7382  0.2741
   22SAPC  H10R 2891   4.504   2.887   9.533  2.0979 -0.2969 -2.9349
   22SAPC  H10S 2892   4.497   2.732   9.467  0.6060  0.6808 -1.0240
   22SAPC  C211 2893   4.695   2.800   9.529 -0.3876 -0.1866  0.8355
   22SAPC  H11R 2894   4.761   2.791   9.617  3.0732 -0.8296 -1.6229
   22SAPC  C212 2895   4.754   2.821   9.410  0.3322  0.1069  0.0575
   22SAPC  H12R 2896   4.858   2.856   9.403  0.4335 -0.4239 -1.3794
   22SAPC  C213 2897   4.673   2.833   9.281 -0.8256 -0.5228  0.0781
   22SAPC  H13R 2898   4.565   2.854   9.298 -0.1515  1.2116  3.1180
   22SAPC  H13S 2899   4.677   2.734   9.232 -0.1685 -1.2728  1.5756
   22SAPC  C214 2900   4.717   2.938   9.180 -0.0575 -0.0933  0.2513
   22SAPC  H14R 2901   4.753   3.037   9.211  1.0764  0.1144 -1.5589
   22SAPC  C215 2902   4.726   2.924   9.047  0.3476 -0.1816 -0.3147
   22SAPC  H15R 2903   4.757   3.011   8.986  0.9269 -0.0388  0.1719
   22SAPC  C216 2904   4.700   2.803   8.966  0.7524 -0.0334 -0.2251
   22SAPC  H16R 2905   4.605   2.812   8.908  1.2213 -0.4339 -1.0798
   22SAPC  H16S 2906   4.690   2.714   9.032 -1.9845  0.4866  0.1820
   22SAPC  C217 2907   4.821   2.789   8.864 -0.0686  0.3271 -0.2513
   22SAPC  H17R 2908   4.835   2.888   8.817 -0.4802  1.2624  1.5296
   22SAPC  H17S 2909   4.787   2.711   8.792  0.8539  0.2493 -0.6112
   22SAPC  C218 2910   4.942   2.742   8.941 -0.8838  0.0999  0.6715
   22SAPC  H18R 2911   4.907   2.650   8.993 -1.9078 -1.0707 -1.8801
   22SAPC  H18S 2912   4.965   2.813   9.023 -0.0538 -2.2504  2.5821
   22SAPC  C219 2913   5.065   2.715   8.854 -0.2931 -0.0644 -0.3019
   22SAPC  H19R 2914   5.086   2.797   8.781  3.4533  1.0482  1.7242
   22SAPC  H19S 2915   5.038   2.629   8.789 -0.5683  0.5743 -1.0571
   22SAPC  C220 2916   5.192   2.664   8.935  0.6277  0.4997 -0.7399
   22SAPC  H20R 2917   5.156   2.582   9.001  1.3451 -0.1487 -1.1422
   22SAPC  H20S 2918   5.219   2.745   9.007 -5.1531  3.3039 -1.1566
   22SAPC  H20T 2919   5.277   2.641   8.868 -0.0007 -0.6001 -1.1737
   22SAPC   C33 2920   4.429   2.307   9.943  0.6888  0.2458 -0.4977
   22SAPC   H3X 2921   4.357   2.222   9.940  0.2658  0.6028 -0.5096
   22SAPC   H3Y 2922   4.510   2.267  10.007  0.5418 -2.7654 -2.0184
   22SAPC   C34 2923   4.474   2.329   9.802  0.8842  0.1582 -0.2472
   22SAPC   H4X 2924   4.533   2.422   9.789 -2.3039  2.4928  0.6247
   22SAPC   H4Y 2925   4.391   2.340   9.729 -0.9542  0.7563  1.8162
   22SAPC   C35 2926   4.549   2.196   9.753  0.5774  0.3445 -0.7201
   22SAPC   H5X 2927   4.492   2.104   9.778 -0.2563  0.4975 -1.9669
   22SAPC   H5Y 2928   4.636   2.192   9.823 -0.6953 -3.7367  0.9213
   22SAPC   C36 2929   4.586   2.195   9.604  0.2720 -0.3471  0.5462
   22SAPC   H6X 2930   4.499   2.155   9.548 -1.7159  3.2222  0.8022
   22SAPC   H6Y 2931   4.669   2.121   9.597  1.5510  1.1137 -0.0542
   22SAPC   C37 2932   4.625   2.339   9.556 -0.1789  0.3714  0.2753
   22SAPC   H7X 2933   4.710   2.377   9.617  0.6285 -1.2704  0.2370
   22SAPC   H7Y 2934   4.534   2.402   9.563 -1.2066 -1.2662  4.0629
   22SAPC   C38 2935   4.682   2.353   9.409 -0.2788 -0.2254  0.8259
   22SAPC   H8X 2936   4.768   2.285   9.391  0.0744  0.6214 -0.9055
   22SAPC   H8Y 2937   4.725   2.455   9.402 -1.4178  0.2585  0.7265
   22SAPC   C39 2938   4.573   2.348   9.297 -0.7681  0.3952 -0.1705
   22SAPC   H9X 2939   4.503   2.434   9.311 -0.3542  0.6106  0.6477
   22SAPC   H9Y 2940   4.518   2.253   9.309 -0.9656  0.8307  4.0178
   22SAPC  C310 2941   4.629   2.347   9.158  0.7366 -0.2217 -0.1793
   22SAPC  H10X 2942   4.672   2.248   9.133  1.9184  0.0635  0.6255
   22SAPC  H10Y 2943   4.708   2.424   9.145  0.8774 -0.6099 -1.7607
   22SAPC  C311 2944   4.524   2.398   9.058 -0.1876  0.3640 -0.3031
   22SAPC  H11X 2945   4.505   2.506   9.078 -1.7619  0.3211 -1.4301
   22SAPC  H11Y 2946   4.436   2.332   9.068  0.0017  0.1221 -0.2035
   22SAPC  C312 2947   4.578   2.392   8.914  0.6897 -0.8851 -0.6843
   22SAPC  H12X 2948   4.640   2.300   8.915  0.0929 -1.3442  2.3231
   22SAPC  H12Y 2949   4.641   2.477   8.878 -1.3527  0.5878 -0.9852
   22SAPC  C313 2950   4.467   2.349   8.820  0.2700  0.2791 -0.5045
   22SAPC  H13X 2951   4.388   2.427   8.816  1.7060  1.7559 -1.0877
   22SAPC  H13Y 2952   4.424   2.261   8.872 -0.8464 -0.0338 -1.8876
   22SAPC  C314 2953   4.509   2.312   8.677 -0.4636 -0.3189  0.1425
   22SAPC  H14X 2954   4.590   2.237   8.678  0.9404  1.1268  1.6601
   22SAPC  H14Y 2955   4.552   2.398   8.620  0.0030 -1.1717 -0.8242
   22SAPC  C315 2956   4.387   2.252   8.603  0.6202 -1.0995 -0.0388
   22SAPC  H15X 2957   4.362   2.160   8.658 -0.7547 -0.1281  1.0298
   22SAPC  H15Y 2958   4.430   2.225   8.504  1.3860 -0.5718  0.1374
   22SAPC  C316 2959   4.270   2.350   8.596 -0.1616 -0.5527 -0.3560
   22SAPC  H16X 2960   4.312   2.437   8.540 -0.3170 -0.3742 -0.1974
   22SAPC  H16Y 2961   4.235   2.386   8.695 -0.5963  0.4257 -0.8458
   22SAPC  C317 2962   4.158   2.278   8.529  1.1028  0.2810 -0.1289
   22SAPC  H17X 2963   4.068   2.343   8.539  0.1776 -0.6606 -1.8166
   22SAPC  H17Y 2964   4.134   2.180   8.576 -0.7799  0.5264 -0.5012
   22SAPC  C318 2965   4.188   2.248   8.386  0.9308 -0.0573 -0.1178
   22SAPC  H18X 2966   4.228   2.341   8.341 -0.7695  0.1009 -1.4305
   22SAPC  H18Y 2967   4.095   2.227   8.329 -0.3266  0.7284  1.5791
   22SAPC  H18Z 2968   4.253   2.158   8.378  0.1819 -0.4969 -1.6043
   23SAPC     N 2969   0.171   3.462  10.799 -0.4396 -0.6840  0.5809
   23SAPC   C12 2970   0.277   3.350  10.795 -0.6642 -0.4320  0.3337
   23SAPC  H12A 2971   0.338   3.365  10.707  0.5224  2.0870  1.4733
   23SAPC  H12B 2972   0.221   3.258  10.784 -2.7136  0.6983  0.6449
   23SAPC   C13 2973   0.073   3.444  10.905  0.6644  1.3468  0.1874
   23SAPC  H13A 2974   0.100   3.482  11.002  2.4983 -1.8104  1.0933
   23SAPC  H13B 2975  -0.019   3.494  10.878 -0.6356 -0.5209  0.8769
   23SAPC  H13C 2976   0.051   3.338  10.915  0.2267  1.1369 -2.3186
   23SAPC   C14 2977   0.246   3.590  10.819 -0.4800 -0.5167 -0.0199
   23SAPC  H14A 2978   0.303   3.613  10.730 -0.1902 -1.4297 -0.0796
   23SAPC  H14B 2979   0.184   3.670  10.857  0.2794 -0.9931  2.3548
   23SAPC  H14C 2980   0.314   3.578  10.901 -1.1547  0.0515  0.6337
   23SAPC   C15 2981   0.094   3.464  10.667 -0.4933 -0.2502 -0.2519
   23SAPC  H15A 2982   0.170   3.448  10.593  2.3430 -0.2421  2.4703
   23SAPC  H15B 2983   0.030   3.378  10.651  0.3674 -0.5737 -2.2118
   23SAPC  H15C 2984   0.051   3.561  10.650  2.4828  1.4572  1.2127
   23SAPC   C11 2985   0.364   3.347  10.916 -0.0607  0.0093  0.2228
   23SAPC  H11A 2986   0.401   3.242  10.915 -3.4162 -1.3762  1.9655
   23SAPC  H11B 2987   0.301   3.360  11.007  1.2920  1.1975  1.0289
   23SAPC     P 2988   0.590   3.413  10.815 -0.0361 -0.0718 -0.0598
   23SAPC   O13 2989   0.669   3.538  10.792 -0.2576  0.0293 -0.6073
   23SAPC   O14 2990   0.679   3.303  10.865 -0.2856  0.3657 -0.3833
   23SAPC   O12 2991   0.471   3.444  10.912  0.2978  0.4359  0.2221
   23SAPC   O11 2992   0.526   3.370  10.678 -0.2858 -0.3337  0.7206
   23SAPC    C1 2993   0.483   3.463  10.572 -0.0873  0.5401  0.4309
   23SAPC    HA 2994   0.376   3.489  10.590 -0.6093 -1.5738  0.7064
   23SAPC    HB 2995   0.539   3.559  10.574  0.9415  0.3635 -4.7290
   23SAPC    C2 2996   0.526   3.404  10.439 -0.6971  1.2215  0.1407
   23SAPC    HS 2997   0.505   3.488  10.369  0.7406  1.1375 -0.4179
   23SAPC   O21 2998   0.463   3.285  10.396 -0.7135  0.0653 -0.0831
   23SAPC   C21 2999   0.336   3.280  10.391  0.1429 -0.1304 -1.0721
   23SAPC   O22 3000   0.264   3.375  10.423 -0.3083 -0.0091 -0.3619
   23SAPC   C22 3001   0.290   3.143  10.339 -0.1992 -0.5126  0.7092
   23SAPC   H2R 3002   0.370   3.074  10.304  0.0978  0.4077 -0.5036
   23SAPC   H2S 3003   0.249   3.086  10.425 -1.5775  0.6600  0.8594
   23SAPC    C3 3004   0.677   3.380  10.442 -0.0161 -0.2424 -0.1545
   23SAPC    HX 3005   0.702   3.307  10.522 -0.5805 -0.3015 -0.0303
   23SAPC    HY 3006   0.739   3.469  10.468  1.2733 -1.1849  0.0956
   23SAPC   O31 3007   0.724   3.339  10.310  0.2484  0.3144  0.2038
   23SAPC   C31 3008   0.729   3.214  10.297  0.7172 -0.1806 -0.0973
   23SAPC   O32 3009   0.696   3.131  10.385  0.1271  0.0375  0.2190
   23SAPC   C32 3010   0.780   3.175  10.159 -0.3927  0.4070  0.0840
   23SAPC   H2X 3011   0.716   3.102  10.106 -2.0877  1.2176  0.9528
   23SAPC   H2Y 3012   0.879   3.126  10.170 -0.2764  0.9855  1.9333
   23SAPC   C23 3013   0.180   3.155  10.229 -0.4943 -0.2056 -0.1849
   23SAPC   H3R 3014   0.204   3.239  10.159 -0.0572  1.0631  1.4121
   23SAPC   H3S 3015   0.086   3.187  10.278 -0.3558  3.1078 -1.7389
   23SAPC   C24 3016   0.178   3.025  10.149  0.6950 -0.1893  0.0789
   23SAPC   H4R 3017   0.161   2.942  10.221  1.6782 -1.8020 -1.4771
   23SAPC   H4S 3018   0.276   3.006  10.100 -0.6314  0.6739 -3.1813
   23SAPC   C25 3019   0.083   3.040  10.038  0.5184 -0.5711 -0.1922
   23SAPC   H5R 3020  -0.014   3.081  10.070  1.3675  1.6323 -0.2425
   23SAPC   C26 3021   0.110   3.024   9.908 -0.5158 -0.7095  0.4099
   23SAPC   H6R 3022   0.033   3.050   9.835 -0.9683  1.0364  1.4521
   23SAPC   C27 3023   0.239   2.970   9.854  0.5229 -0.6682  0.6808
   23SAPC   H7R 3024   0.282   2.899   9.928  1.7845  0.4424  1.0533
   23SAPC   H7S 3025   0.314   3.051   9.839  2.1750 -2.5371 -1.9990
   23SAPC   C28 3026   0.199   2.896   9.724 -0.2869 -0.4062 -0.1933
   23SAPC   H8R 3027   0.164   2.792   9.725 -0.8110 -0.2284  0.2702
   23SAPC   C29 3028   0.215   2.957   9.605 -0.3162  0.4780  0.3561
   23SAPC   H9R 3029   0.206   2.900   9.511  1.4416 -0.1873  0.5561
   23SAPC  C210 3030   0.275   3.092   9.567 -0.6356  0.0213 -0.2586
   23SAPC  H10R 3031   0.253   3.174   9.639  0.5209  1.8437 -1.8967
   23SAPC  H10S 3032   0.220   3.134   9.480  0.6426  0.4821 -0.8675
   23SAPC  C211 3033   0.426   3.082   9.541  0.0657  0.0183 -0.3442
   23SAPC  H11R 3034   0.483   3.111   9.631  0.1381 -1.9808  0.3026
   23SAPC  C212 3035   0.492   3.056   9.428  0.2472 -0.1857 -0.7651
   23SAPC  H12R 3036   0.601   3.063   9.437  0.3985 -2.0421 -0.9127
   23SAPC  C213 3037   0.434   3.030   9.294  0.4645 -0.3659 -0.8148
   23SAPC  H13R 3038   0.391   3.113   9.234  0.9235  0.1547 -0.4314
   23SAPC  H13S 3039   0.357   2.953   9.317  1.0179 -0.0289  2.6889
   23SAPC  C214 3040   0.533   2.956   9.207  0.1182 -0.1925 -0.0549
   23SAPC  H14R 3041   0.626   2.921   9.254  1.6132  1.6567 -1.4863
   23SAPC  C215 3042   0.520   2.938   9.081 -0.2200 -0.5675  0.4166
   23SAPC  H15R 3043   0.597   2.889   9.020  0.1539  0.1809  0.2844
   23SAPC  C216 3044   0.399   2.980   9.002 -0.2363 -0.2077  0.7002
   23SAPC  H16R 3045   0.298   2.976   9.049 -1.5604  2.0670 -1.6401
   23SAPC  H16S 3046   0.398   2.924   8.906 -0.1348  3.3803 -1.6104
   23SAPC  C217 3047   0.421   3.117   8.940  0.4742 -0.1935  0.3936
   23SAPC  H17R 3048   0.445   3.188   9.023  1.1025  1.5016 -1.1806
   23SAPC  H17S 3049   0.330   3.159   8.893  1.9167  1.9572 -0.6545
   23SAPC  C218 3050   0.525   3.132   8.827 -0.2633 -0.2164 -0.4532
   23SAPC  H18R 3051   0.627   3.098   8.855  0.7673  2.4365 -0.6640
   23SAPC  H18S 3052   0.546   3.241   8.825 -0.2462 -0.2266 -1.1480
   23SAPC  C219 3053   0.476   3.077   8.696 -0.4143  0.6304  0.1432
   23SAPC  H19R 3054   0.373   3.114   8.676 -0.6762  0.8211  1.6883
   23SAPC  H19S 3055   0.478   2.969   8.671 -0.2631  0.9294 -1.1838
   23SAPC  C220 3056   0.566   3.134   8.587  0.1739 -0.4901 -0.0508
   23SAPC  H20R 3057   0.553   3.243   8.599  1.1689 -0.4740  1.1752
   23SAPC  H20S 3058   0.539   3.101   8.485  1.9743 -1.1131 -0.3702
   23SAPC  H20T 3059   0.672   3.105   8.605 -0.5503 -2.6265  1.1924
   23SAPC   C33 3060   0.809   3.304  10.079  1.0681  0.2769  0.4880
   23SAPC   H3X 3061   0.872   3.375  10.137  0.4346  2.2893 -1.1552
   23SAPC   H3Y 3062   0.713   3.354  10.055  2.7258  3.4140 -0.2301
   23SAPC   C34 3063   0.886   3.293   9.941 -1.0196  0.1905  1.0220
   23SAPC   H4X 3064   0.962   3.213   9.953 -0.8810  0.5397  2.5802
   23SAPC   H4Y 3065   0.927   3.393   9.915 -0.9545  0.0688  0.6353
   23SAPC   C35 3066   0.793   3.254   9.820 -0.4903 -0.0782  0.3761
   23SAPC   H5X 3067   0.703   3.319   9.815 -1.3255 -1.1071  1.5834
   23SAPC   H5Y 3068   0.769   3.151   9.851 -1.2143 -0.3471 -0.9881
   23SAPC   C36 3069   0.879   3.275   9.692 -0.0266  0.1246 -0.4285
   23SAPC   H6X 3070   0.965   3.205   9.683  0.8501  1.1476 -0.2478
   23SAPC   H6Y 3071   0.931   3.374   9.693 -1.1084  0.7088  0.2871
   23SAPC   C37 3072   0.791   3.263   9.562 -0.1103 -0.0966 -0.9883
   23SAPC   H7X 3073   0.695   3.317   9.573  0.4325  0.6347  0.5073
   23SAPC   H7Y 3074   0.766   3.156   9.546  0.7602 -0.7791  1.6250
   23SAPC   C38 3075   0.868   3.315   9.440 -0.1982 -0.2125 -0.6222
   23SAPC   H8X 3076   0.876   3.426   9.452 -0.3735 -0.0517 -1.9007
   23SAPC   H8Y 3077   0.807   3.299   9.348  1.2680 -1.7005 -1.3753
   23SAPC   C39 3078   0.998   3.247   9.414  0.8256  0.7298  0.2129
   23SAPC   H9X 3079   0.988   3.139   9.388 -0.4802  0.8937 -0.0125
   23SAPC   H9Y 3080   1.065   3.251   9.503 -0.2320 -0.0436  1.0808
   23SAPC  C310 3081   1.072   3.311   9.296  0.6960 -0.1433  0.0728
   23SAPC  H10X 3082   1.163   3.249   9.293  0.5437 -0.4027  0.7058
   23SAPC  H10Y 3083   1.111   3.413   9.319  1.6154  0.2423 -2.7434
   23SAPC  C311 3084   0.999   3.309   9.163  0.0798  0.0014 -0.7691
   23SAPC  H11X 3085   1.072   3.346   9.088 -0.1733 -0.2366 -1.1336
   23SAPC  H11Y 3086   0.919   3.386   9.174 -0.9001 -1.2821  1.9450
   23SAPC  C312 3087   0.938   3.173   9.120  0.2659  0.3844  0.1740
   23SAPC  H12X 3088   0.876   3.123   9.197  0.2983  1.1597  0.7125
   23SAPC  H12Y 3089   1.024   3.105   9.108 -0.5062 -0.8129  1.1449
   23SAPC  C313 3090   0.861   3.184   8.989 -0.0394  0.2100  0.1240
   23SAPC  H13X 3091   0.784   3.263   9.005  0.6738  0.9232  0.0535
   23SAPC  H13Y 3092   0.809   3.092   8.955  1.3839  0.1121 -1.9632
   23SAPC  C314 3093   0.938   3.228   8.864 -0.0178  0.7702  0.8662
   23SAPC  H14X 3094   0.970   3.134   8.814  0.0039  2.0471 -1.7244
   23SAPC  H14Y 3095   1.023   3.289   8.903  0.0379  0.5395  1.1084
   23SAPC  C315 3096   0.859   3.315   8.774  0.2650 -0.0049 -0.5992
   23SAPC  H15X 3097   0.840   3.402   8.840  0.4527 -1.2536  1.1929
   23SAPC  H15Y 3098   0.773   3.252   8.744  0.2978 -0.0492 -0.5996
   23SAPC  C316 3099   0.933   3.375   8.650  0.7840  0.8234  0.3597
   23SAPC  H16X 3100   1.030   3.409   8.693  0.8704 -0.0445  0.8753
   23SAPC  H16Y 3101   0.878   3.468   8.624 -1.5113 -0.6981 -0.6416
   23SAPC  C317 3102   0.965   3.277   8.530  0.8874 -0.6158 -0.2184
   23SAPC  H17X 3103   0.865   3.263   8.483 -0.3257 -1.3201  2.4066
   23SAPC  H17Y 3104   1.011   3.180   8.559  0.9110 -0.1979  1.2254
   23SAPC  C318 3105   1.057   3.334   8.420 -0.0487  0.0909 -0.2640
   23SAPC  H18X 3106   1.161   3.361   8.446  0.1803  1.4488 -2.4018
   23SAPC  H18Y 3107   1.014   3.431   8.387 -0.7162  0.2558  0.9932
   23SAPC  H18Z 3108   1.057   3.264   8.334 -1.0510 -0.1035 -0.1313
   24SAPC     N 3109   2.386   4.483  10.696  0.1448  0.5385 -0.1830
   24SAPC   C12 3110   2.445   4.596  10.777  0.1235  0.2063 -0.2204
   24SAPC  H12A 3111   2.419   4.572  10.879 -0.5039 -1.6366 -0.7738
   24SAPC  H12B 3112   2.387   4.683  10.748  0.1206 -0.3285 -1.9380
   24SAPC   C13 3113   2.239   4.490  10.693  0.2005 -0.7860 -0.0639
   24SAPC  H13A 3114   2.207   4.575  10.636 -1.3381 -0.1419  1.6520
   24SAPC  H13B 3115   2.193   4.398  10.659 -0.4913 -0.8009  0.8746
   24SAPC  H13C 3116   2.190   4.511  10.787 -0.0027  3.2720 -0.9249
   24SAPC   C14 3117   2.436   4.497  10.559  0.2401  0.4640 -0.5234
   24SAPC  H14A 3118   2.544   4.496  10.557  0.2642 -0.8531  0.0629
   24SAPC  H14B 3119   2.399   4.414  10.500  1.0230 -0.2285 -0.0713
   24SAPC  H14C 3120   2.408   4.596  10.526 -0.9136  0.0457 -0.8400
   24SAPC   C15 3121   2.425   4.342  10.738  0.0323  0.3463 -0.2950
   24SAPC  H15A 3122   2.524   4.315  10.706  0.3045 -0.8973  1.4431
   24SAPC  H15B 3123   2.418   4.326  10.845 -3.3789  0.0410 -0.4380
   24SAPC  H15C 3124   2.355   4.274  10.692 -0.6298  0.5420  0.3924
   24SAPC   C11 3125   2.598   4.632  10.774  0.1517  0.4625 -0.0293
   24SAPC  H11A 3126   2.618   4.723  10.834 -0.7719  0.7335 -0.1139
   24SAPC  H11B 3127   2.626   4.642  10.667 -1.0290 -2.5777 -0.7417
   24SAPC     P 3128   2.664   4.496  10.984  0.2957  0.2002 -0.0254
   24SAPC   O13 3129   2.784   4.542  11.055  0.4365  0.2716  0.2761
   24SAPC   O14 3130   2.539   4.552  11.038  0.1394 -0.0636  0.5192
   24SAPC   O12 3131   2.679   4.529  10.835 -0.1878 -0.7898  0.2898
   24SAPC   O11 3132   2.664   4.338  10.984 -0.3183 -0.3274  0.0843
   24SAPC    C1 3133   2.791   4.259  10.992 -0.0435 -0.1029 -0.6778
   24SAPC    HA 3134   2.889   4.310  10.981 -0.3509  0.7871  0.4419
   24SAPC    HB 3135   2.792   4.207  11.091  0.5633  0.3643 -0.4292
   24SAPC    C2 3136   2.789   4.137  10.900 -0.1127  0.7919  0.1796
   24SAPC    HS 3137   2.893   4.101  10.911  0.1598  1.7562  0.8716
   24SAPC   O21 3138   2.764   4.187  10.766 -0.5699  0.1585 -0.1755
   24SAPC   C21 3139   2.861   4.245  10.710 -0.5333 -0.6885 -0.2365
   24SAPC   O22 3140   2.976   4.266  10.755 -0.8841 -0.6100  0.2178
   24SAPC   C22 3141   2.811   4.302  10.579  0.3386 -0.0232  0.1538
   24SAPC   H2R 3142   2.711   4.345  10.599  0.3774  0.1136  0.0577
   24SAPC   H2S 3143   2.876   4.383  10.539  1.0429 -0.2898  0.7288
   24SAPC    C3 3144   2.684   4.025  10.944  0.0960 -0.1454 -0.4232
   24SAPC    HX 3145   2.582   4.066  10.954  0.3267 -0.0237  1.7861
   24SAPC    HY 3146   2.709   3.990  11.046 -1.5892 -1.4237 -0.3955
   24SAPC   O31 3147   2.677   3.903  10.864  0.4351  0.6134  0.5708
   24SAPC   C31 3148   2.794   3.836  10.843 -0.2506 -0.3076  0.3627
   24SAPC   O32 3149   2.890   3.834  10.917 -0.4984  0.1912 -0.4755
   24SAPC   C32 3150   2.786   3.760  10.710  0.7238  0.2145  0.5759
   24SAPC   H2X 3151   2.697   3.797  10.654 -1.5353 -1.2357  3.0095
   24SAPC   H2Y 3152   2.784   3.650  10.721  1.5190  0.1617  0.3063
   24SAPC   C23 3153   2.785   4.200  10.462  0.0640 -0.1951  0.3098
   24SAPC   H3R 3154   2.714   4.118  10.489  1.6660 -1.7166  0.1018
   24SAPC   H3S 3155   2.885   4.155  10.445 -0.0994 -0.0458 -1.2661
   24SAPC   C24 3156   2.737   4.266  10.329 -0.4849 -0.2189  0.2377
   24SAPC   H4R 3157   2.659   4.342  10.353  1.0110  0.9230  1.7767
   24SAPC   H4S 3158   2.695   4.184  10.268  2.0517 -1.1371 -0.4034
   24SAPC   C25 3159   2.842   4.348  10.250 -0.1563 -0.1433  0.1015
   24SAPC   H5R 3160   2.895   4.422  10.312  2.5739 -2.0084  0.1758
   24SAPC   C26 3161   2.881   4.335  10.121 -0.1121  0.0642 -0.2474
   24SAPC   H6R 3162   2.953   4.400  10.070 -1.3280  1.0001 -0.8249
   24SAPC   C27 3163   2.827   4.229  10.026 -0.2994  0.4784  0.1351
   24SAPC   H7R 3164   2.754   4.286   9.963 -1.6046  2.1589  2.9836
   24SAPC   H7S 3165   2.761   4.152  10.072 -0.3538 -0.7155 -1.7835
   24SAPC   C28 3166   2.926   4.155   9.942 -0.7473 -0.0869  0.4148
   24SAPC   H8R 3167   3.007   4.102   9.995  0.5715  0.4931 -0.9639
   24SAPC   C29 3168   2.949   4.164   9.807 -0.4724 -0.2450 -0.5625
   24SAPC   H9R 3169   3.027   4.105   9.758 -1.6974 -1.1868 -1.4548
   24SAPC  C210 3170   2.876   4.255   9.709  0.2787 -0.6721 -0.0758
   24SAPC  H10R 3171   2.813   4.330   9.760  0.0988 -0.7297 -0.2121
   24SAPC  H10S 3172   2.810   4.188   9.650  2.1257 -2.7187  0.0058
   24SAPC  C211 3173   2.975   4.310   9.613 -0.6588  0.0585  0.0744
   24SAPC  H11R 3174   3.017   4.406   9.646  0.2114 -0.6502  1.0978
   24SAPC  C212 3175   3.033   4.253   9.503 -0.5324 -0.1354 -0.1388
   24SAPC  H12R 3176   3.108   4.306   9.443  1.0952 -1.3121  0.7866
   24SAPC  C213 3177   3.003   4.120   9.430 -0.0082 -0.3131  0.3755
   24SAPC  H13R 3178   3.003   4.036   9.503  1.0923  1.0383  2.0170
   24SAPC  H13S 3179   3.088   4.096   9.362 -0.1990 -1.6557  0.5689
   24SAPC  C214 3180   2.874   4.127   9.344 -0.0688 -0.4027 -0.2483
   24SAPC  H14R 3181   2.777   4.125   9.398 -1.3222  0.6299 -2.3421
   24SAPC  C215 3182   2.867   4.123   9.212  0.3133  0.2114 -0.4479
   24SAPC  H15R 3183   2.772   4.142   9.159  0.8276 -0.9848 -1.8895
   24SAPC  C216 3184   2.992   4.100   9.121 -0.0435  0.4628  0.2828
   24SAPC  H16R 3185   2.963   4.062   9.021 -2.0205  1.3387  0.4735
   24SAPC  H16S 3186   3.061   4.022   9.160  1.6654  1.5983 -0.3315
   24SAPC  C217 3187   3.069   4.234   9.097  0.6005 -0.1513 -0.6567
   24SAPC  H17R 3188   3.100   4.288   9.190  0.7892 -0.3659 -0.5944
   24SAPC  H17S 3189   3.002   4.299   9.036 -0.6907 -0.2125  0.6267
   24SAPC  C218 3190   3.193   4.202   9.015  0.3898  0.2089 -0.2148
   24SAPC  H18R 3191   3.153   4.192   8.912 -5.3088  0.0163  1.6805
   24SAPC  H18S 3192   3.223   4.099   9.043 -1.8762 -0.4900 -0.1633
   24SAPC  C219 3193   3.312   4.302   9.013 -0.2570 -0.3181  0.2781
   24SAPC  H19R 3194   3.386   4.286   9.095 -1.0895 -0.3838  1.0396
   24SAPC  H19S 3195   3.268   4.404   9.023  0.0081 -0.1183 -0.5432
   24SAPC  C220 3196   3.375   4.292   8.874  0.3709  0.4060  0.4243
   24SAPC  H20R 3197   3.422   4.197   8.840 -1.0669  1.0469 -3.9821
   24SAPC  H20S 3198   3.446   4.377   8.867  1.5464 -0.5418  0.4091
   24SAPC  H20T 3199   3.303   4.293   8.790  3.4675 -1.8238 -2.5556
   24SAPC   C33 3200   2.910   3.800  10.622 -0.0177  0.3787 -0.0393
   24SAPC   H3X 3201   3.001   3.769  10.678 -0.5650 -2.4820 -0.5920
   24SAPC   H3Y 3202   2.919   3.911  10.616 -0.8604  0.4817  0.3871
   24SAPC   C34 3203   2.901   3.742  10.479  0.3373  0.6141  0.1756
   24SAPC   H4X 3204   2.812   3.787  10.429 -2.7789 -2.2114  2.7328
   24SAPC   H4Y 3205   2.884   3.633  10.490 -1.7635  0.8419 -0.4132
   24SAPC   C35 3206   3.019   3.780  10.390 -0.4212  0.6068  0.2229
   24SAPC   H5X 3207   3.003   3.733  10.291  1.8957 -1.2694  0.6483
   24SAPC   H5Y 3208   3.118   3.750  10.430 -0.2320  0.7746 -0.1111
   24SAPC   C36 3209   3.030   3.938  10.365 -0.0053 -0.5338  0.8894
   24SAPC   H6X 3210   3.028   3.991  10.462 -0.1419  1.5065 -0.1853
   24SAPC   H6Y 3211   2.941   3.971  10.307 -0.2163  0.9523  2.0026
   24SAPC   C37 3212   3.153   3.956  10.281 -0.2627 -0.3810 -0.5521
   24SAPC   H7X 3213   3.154   3.901  10.184 -0.3768  1.0606 -1.3887
   24SAPC   H7Y 3214   3.241   3.919  10.338 -2.8597 -2.9047  2.1562
   24SAPC   C38 3215   3.159   4.108  10.245  0.0781 -0.6803 -1.3808
   24SAPC   H8X 3216   3.173   4.164  10.340  1.7108 -3.4329  0.1024
   24SAPC   H8Y 3217   3.062   4.149  10.210  0.9284  0.3684 -2.6398
   24SAPC   C39 3218   3.261   4.152  10.142  0.2373  0.0767 -0.0744
   24SAPC   H9X 3219   3.244   4.100  10.046 -0.0676  1.7469 -0.9702
   24SAPC   H9Y 3220   3.358   4.109  10.174 -0.7096 -2.5993 -0.5708
   24SAPC  C310 3221   3.280   4.304  10.135 -0.1918  0.0453  0.3027
   24SAPC  H10X 3222   3.298   4.352  10.234 -1.7685  0.3638  0.4660
   24SAPC  H10Y 3223   3.192   4.355  10.090  0.3537  0.4804 -0.2891
   24SAPC  C311 3224   3.409   4.341  10.052  0.1226  0.0837 -0.9278
   24SAPC  H11X 3225   3.498   4.294  10.100  0.3742  0.1689 -1.3077
   24SAPC  H11Y 3226   3.419   4.451  10.044 -0.1961  0.1091 -0.9847
   24SAPC  C312 3227   3.402   4.291   9.911 -0.2867 -0.3036 -0.4977
   24SAPC  H12X 3228   3.308   4.319   9.860  0.2354  1.5290 -0.5072
   24SAPC  H12Y 3229   3.412   4.180   9.913  3.1133 -0.0909 -0.5727
   24SAPC  C313 3230   3.513   4.341   9.816 -0.8447 -0.0981  0.1539
   24SAPC  H13X 3231   3.606   4.327   9.875  0.6797 -2.4507 -2.5723
   24SAPC  H13Y 3232   3.497   4.450   9.800 -1.6067 -0.1062  0.8610
   24SAPC  C314 3233   3.537   4.268   9.684  0.4053 -0.0807 -0.6111
   24SAPC  H14X 3234   3.581   4.169   9.708 -1.0697 -0.7000 -0.3217
   24SAPC  H14Y 3235   3.602   4.325   9.614 -0.3606  1.5058 -0.0701
   24SAPC  C315 3236   3.406   4.240   9.603  0.4690  0.4774  0.1003
   24SAPC  H15X 3237   3.315   4.268   9.659  0.8955 -0.0974  1.1056
   24SAPC  H15Y 3238   3.403   4.132   9.578 -0.5376  0.2812  0.9709
   24SAPC  C316 3239   3.397   4.315   9.459  0.3477  0.4614 -0.4981
   24SAPC  H16X 3240   3.324   4.251   9.405  0.2822  0.3711 -0.3055
   24SAPC  H16Y 3241   3.500   4.301   9.421 -0.0691 -0.1722 -1.4484
   24SAPC  C317 3242   3.334   4.454   9.461  0.4217  0.6284  0.7805
   24SAPC  H17X 3243   3.408   4.529   9.496  1.6145 -0.2484  0.1674
   24SAPC  H17Y 3244   3.255   4.450   9.540  1.1294 -0.1385  1.4632
   24SAPC  C318 3245   3.281   4.511   9.329  0.3836 -0.3430  0.1335
   24SAPC  H18X 3246   3.175   4.481   9.314  0.0174  1.4662 -1.3391
   24SAPC  H18Y 3247   3.340   4.474   9.243  0.0729 -1.0851  0.2333
   24SAPC  H18Z 3248   3.295   4.621   9.339 -1.3302 -0.2260  1.9419
   25SAPC     N 3249   0.322   0.222   6.028  0.4133  0.1399  0.5399
   25SAPC   C12 3250   0.249   0.087   6.011  0.3561 -0.5001 -0.6379
   25SAPC  H12A 3251   0.309   0.007   6.052  0.3967 -1.0668 -1.7773
   25SAPC  H12B 3252   0.247   0.071   5.905  1.2649  2.9320 -1.3052
   25SAPC   C13 3253   0.441   0.215   5.933  0.5743  0.1479  0.6182
   25SAPC  H13A 3254   0.398   0.186   5.838 -2.0581  0.2638  1.6714
   25SAPC  H13B 3255   0.483   0.313   5.915  0.3370 -0.3104 -3.4412
   25SAPC  H13C 3256   0.523   0.152   5.964  1.4829 -0.9820 -3.4640
   25SAPC   C14 3257   0.242   0.342   6.000 -0.1733 -0.3582  0.1235
   25SAPC  H14A 3258   0.295   0.435   6.018 -2.8562  1.2644  0.2922
   25SAPC  H14B 3259   0.210   0.345   5.897  0.1908  1.6604  0.0174
   25SAPC  H14C 3260   0.154   0.342   6.064  0.7137  1.2969  1.4318
   25SAPC   C15 3261   0.381   0.228   6.163  1.1129  0.1419 -0.3709
   25SAPC  H15A 3262   0.426   0.139   6.203  1.3137  0.3837 -0.0472
   25SAPC  H15B 3263   0.451   0.310   6.171  1.9940 -0.5001 -1.3151
   25SAPC  H15C 3264   0.304   0.264   6.231  0.2490  2.7260 -2.5276
   25SAPC   C11 3265   0.104   0.069   6.067 -0.2761 -0.4265  0.2015
   25SAPC  H11A 3266   0.044   0.130   5.996  0.3354 -0.2918 -0.1974
   25SAPC  H11B 3267   0.081   0.107   6.169 -0.8201  1.5756 -0.6231
   25SAPC     P 3268   0.071  -0.178   6.163  0.5804 -0.1458  0.1015
   25SAPC   O13 3269  -0.070  -0.233   6.191  0.1752  0.0496  0.4445
   25SAPC   O14 3270   0.170  -0.279   6.117  0.6066 -0.4279 -0.3782
   25SAPC   O12 3271   0.074  -0.067   6.051  0.5307 -0.4059  0.5777
   25SAPC   O11 3272   0.116  -0.116   6.303 -0.1362 -0.4056  0.4734
   25SAPC    C1 3273   0.170  -0.210   6.402 -0.0519 -0.0184 -0.0346
   25SAPC    HA 3274   0.169  -0.317   6.370  0.0906  0.1070 -0.4543
   25SAPC    HB 3275   0.273  -0.183   6.432 -0.6736  1.3598  0.9293
   25SAPC    C2 3276   0.070  -0.208   6.529  0.6230 -0.1358  0.4062
   25SAPC    HS 3277  -0.029  -0.244   6.493 -0.4582  3.7357 -0.9816
   25SAPC   O21 3278   0.062  -0.072   6.573 -0.7311  0.0619 -0.0177
   25SAPC   C21 3279  -0.052  -0.039   6.630 -0.0025  0.3277 -0.2527
   25SAPC   O22 3280  -0.150  -0.106   6.629  0.1173  0.0301 -0.0461
   25SAPC   C22 3281  -0.036   0.102   6.692 -0.1452  0.1147  0.1183
   25SAPC   H2R 3282   0.036   0.148   6.621 -1.4910 -0.0124 -1.4073
   25SAPC   H2S 3283  -0.130   0.161   6.698  1.6808  3.0333  2.5960
   25SAPC    C3 3284   0.128  -0.285   6.641  0.0969  0.4857  0.2489
   25SAPC    HX 3285   0.219  -0.229   6.673  2.4293 -2.2382 -1.1656
   25SAPC    HY 3286   0.171  -0.383   6.612  1.4916  0.7531  1.3071
   25SAPC   O31 3287   0.052  -0.297   6.761  0.3918 -0.3250  0.3413
   25SAPC   C31 3288  -0.057  -0.364   6.758  0.0923  0.1425 -0.1569
   25SAPC   O32 3289  -0.096  -0.440   6.671 -0.6975  0.4178 -0.1742
   25SAPC   C32 3290  -0.128  -0.344   6.892 -0.1167  0.1944  0.4291
   25SAPC   H2X 3291  -0.225  -0.298   6.866  1.1821  1.8877 -1.7520
   25SAPC   H2Y 3292  -0.073  -0.270   6.955  0.8527  0.0183 -0.1852
   25SAPC   C23 3293   0.018   0.091   6.839  0.1900 -0.0135  0.4664
   25SAPC   H3R 3294   0.051   0.191   6.875  0.6030  0.1082 -0.2284
   25SAPC   H3S 3295   0.104   0.022   6.828  0.3129  0.5272 -4.1258
   25SAPC   C24 3296  -0.087   0.034   6.937  0.4208 -0.3602  0.1660
   25SAPC   H4R 3297  -0.038  -0.028   7.015 -0.7266  0.4825  1.6257
   25SAPC   H4S 3298  -0.140  -0.049   6.887 -0.6627 -0.0759  0.8142
   25SAPC   C25 3299  -0.178   0.131   6.997 -0.1956  0.0960 -0.2822
   25SAPC   H5R 3300  -0.251   0.168   6.924  0.6515  0.0711 -1.1616
   25SAPC   C26 3301  -0.164   0.196   7.113  0.7484 -0.3607 -0.0384
   25SAPC   H6R 3302  -0.234   0.276   7.142  1.2987  0.2328 -0.3402
   25SAPC   C27 3303  -0.058   0.170   7.212 -0.2254 -0.0456 -1.0915
   25SAPC   H7R 3304  -0.041   0.251   7.285 -0.9077 -1.2550  0.4574
   25SAPC   H7S 3305   0.039   0.165   7.157  1.4459  0.5444  1.5980
   25SAPC   C28 3306  -0.069   0.041   7.290  0.3515 -0.6581 -0.7717
   25SAPC   H8R 3307  -0.021  -0.048   7.246 -1.9949 -3.3665  1.7080
   25SAPC   C29 3308  -0.139   0.032   7.412 -0.2073 -0.4681 -0.2805
   25SAPC   H9R 3309  -0.147  -0.059   7.473 -1.6685  0.2671  0.6802
   25SAPC  C210 3310  -0.192   0.161   7.479  0.2345  0.1759  0.6455
   25SAPC  H10R 3311  -0.262   0.210   7.408 -0.0481 -0.2365  0.6330
   25SAPC  H10S 3312  -0.109   0.229   7.508 -0.2981  0.9725  0.3183
   25SAPC  C211 3313  -0.258   0.133   7.614 -0.6674 -0.4105  0.0263
   25SAPC  H11R 3314  -0.367   0.144   7.613 -0.4890  1.9948  0.3701
   25SAPC  C212 3315  -0.192   0.119   7.731 -0.3936  0.0070  0.6096
   25SAPC  H12R 3316  -0.262   0.097   7.814 -1.1616  0.0243 -0.0212
   25SAPC  C213 3317  -0.043   0.114   7.752 -0.7249 -0.1103  0.0793
   25SAPC  H13R 3318  -0.025   0.178   7.841  0.7428 -0.0132 -0.2627
   25SAPC  H13S 3319   0.005   0.181   7.678 -0.7672  0.4383  0.5465
   25SAPC  C214 3320   0.015  -0.027   7.759  0.3794  0.4674 -0.2661
   25SAPC  H14R 3321   0.038  -0.071   7.661 -0.1377  0.9771 -0.6259
   25SAPC  C215 3322   0.026  -0.109   7.870 -0.5387 -0.6571  0.6211
   25SAPC  H15R 3323   0.071  -0.210   7.871  0.1551 -0.4168 -1.2723
   25SAPC  C216 3324  -0.017  -0.067   8.000 -0.6136 -0.2789  0.3822
   25SAPC  H16R 3325  -0.125  -0.089   8.011 -0.2857 -2.3416 -0.0986
   25SAPC  H16S 3326  -0.012   0.043   8.009 -4.0786  0.0372 -0.2069
   25SAPC  C217 3327   0.060  -0.126   8.118  0.2541  0.1183 -0.0205
   25SAPC  H17R 3328   0.041  -0.064   8.209  1.5571  0.9960 -0.3006
   25SAPC  H17S 3329   0.169  -0.126   8.095  0.4177 -1.5955  0.6497
   25SAPC  C218 3330   0.021  -0.260   8.163  0.2635 -0.2889  0.1244
   25SAPC  H18R 3331   0.097  -0.317   8.220  0.8750 -0.6141 -0.9894
   25SAPC  H18S 3332   0.004  -0.329   8.078  3.1850 -0.6992 -0.2202
   25SAPC  C219 3333  -0.111  -0.267   8.243  0.4747  0.3035  0.5745
   25SAPC  H19R 3334  -0.189  -0.241   8.169  1.0287  1.4325  0.3792
   25SAPC  H19S 3335  -0.115  -0.196   8.328 -0.6539  1.8589 -0.7319
   25SAPC  C220 3336  -0.132  -0.411   8.285  0.0702 -0.0020  0.2818
   25SAPC  H20R 3337  -0.040  -0.464   8.320  0.0005 -0.1142  0.2940
   25SAPC  H20S 3338  -0.187  -0.469   8.208 -1.2172  0.3660  0.8949
   25SAPC  H20T 3339  -0.206  -0.414   8.368  0.3163  0.4534  0.5204
   25SAPC   C33 3340  -0.142  -0.478   6.970  0.7460 -0.6825  0.2040
   25SAPC   H3X 3341  -0.043  -0.524   6.993  0.9532 -0.2496  0.2055
   25SAPC   H3Y 3342  -0.202  -0.546   6.907 -0.4676  0.8643 -0.3720
   25SAPC   C34 3343  -0.222  -0.461   7.101  0.4826 -0.6790 -0.2116
   25SAPC   H4X 3344  -0.221  -0.556   7.159  1.6263 -0.2560  0.4748
   25SAPC   H4Y 3345  -0.330  -0.450   7.076 -0.2679 -1.4341  2.4659
   25SAPC   C35 3346  -0.183  -0.345   7.197  0.0274 -0.0198 -0.0053
   25SAPC   H5X 3347  -0.252  -0.363   7.282  0.9806  0.7423  0.9640
   25SAPC   H5Y 3348  -0.200  -0.243   7.156  2.8282  1.0931  1.3201
   25SAPC   C36 3349  -0.046  -0.351   7.257 -0.3823 -0.4340  0.6821
   25SAPC   H6X 3350  -0.020  -0.265   7.322  2.7122  1.3117 -2.4398
   25SAPC   H6Y 3351   0.032  -0.344   7.177 -1.9961 -0.5476 -0.9714
   25SAPC   C37 3352  -0.004  -0.485   7.318  0.2138 -0.0431 -0.2148
   25SAPC   H7X 3353   0.098  -0.472   7.361 -0.2437  0.4064  0.7539
   25SAPC   H7Y 3354   0.004  -0.558   7.234 -1.9577  0.1059 -0.5924
   25SAPC   C38 3355  -0.087  -0.536   7.434 -0.3818 -0.5676 -0.0181
   25SAPC   H8X 3356  -0.029  -0.609   7.494  1.2466  0.8824  0.2692
   25SAPC   H8Y 3357  -0.183  -0.587   7.412 -0.8231 -0.2085  0.9967
   25SAPC   C39 3358  -0.120  -0.430   7.538 -0.0560 -0.0044 -0.1853
   25SAPC   H9X 3359  -0.191  -0.355   7.495 -0.5128  0.4141  1.2488
   25SAPC   H9Y 3360  -0.024  -0.387   7.573  1.1322 -2.5999 -0.0450
   25SAPC  C310 3361  -0.194  -0.478   7.660  0.1043 -0.2480 -0.3409
   25SAPC  H10X 3362  -0.139  -0.552   7.722  1.1466  2.1439  1.7661
   25SAPC  H10Y 3363  -0.279  -0.532   7.614 -1.4866  0.5652  1.5498
   25SAPC  C311 3364  -0.249  -0.370   7.754 -0.3600  0.2402 -0.3300
   25SAPC  H11X 3365  -0.325  -0.324   7.686 -0.8477  0.1141  0.1254
   25SAPC  H11Y 3366  -0.173  -0.291   7.774 -0.5893  1.0924 -2.4895
   25SAPC  C312 3367  -0.312  -0.433   7.873  0.0008  0.2062  0.6527
   25SAPC  H12X 3368  -0.231  -0.483   7.930  0.9328 -0.5555 -1.2249
   25SAPC  H12Y 3369  -0.381  -0.514   7.839  0.1803 -0.0236  0.8345
   25SAPC  C313 3370  -0.397  -0.340   7.957 -0.4982  0.2838  0.6868
   25SAPC  H13X 3371  -0.441  -0.263   7.890 -1.6973 -1.6782 -0.8725
   25SAPC  H13Y 3372  -0.318  -0.296   8.022  1.5480  0.0285 -1.5161
   25SAPC  C314 3373  -0.514  -0.407   8.036  0.1866 -0.7282 -0.5610
   25SAPC  H14X 3374  -0.465  -0.491   8.090  1.2592 -2.3610 -3.7730
   25SAPC  H14Y 3375  -0.590  -0.438   7.961 -2.8418  2.6238  0.8691
   25SAPC  C315 3376  -0.592  -0.299   8.127  0.0934  0.6821 -0.3993
   25SAPC  H15X 3377  -0.655  -0.238   8.059 -0.5905 -2.2975 -2.6202
   25SAPC  H15Y 3378  -0.513  -0.252   8.190  1.5649 -1.5795 -0.4607
   25SAPC  C316 3379  -0.690  -0.371   8.228  0.0585  0.4386  0.7021
   25SAPC  H16X 3380  -0.635  -0.449   8.284  2.8765  0.7372 -1.4412
   25SAPC  H16Y 3381  -0.772  -0.416   8.166  0.4718  2.4318 -1.4256
   25SAPC  C317 3382  -0.778  -0.275   8.304 -0.4589  0.0780 -0.6957
   25SAPC  H17X 3383  -0.823  -0.201   8.234  2.0788  0.7232 -1.7573
   25SAPC  H17Y 3384  -0.712  -0.217   8.372 -1.3550 -0.4144  0.6482
   25SAPC  C318 3385  -0.887  -0.344   8.386  0.2396 -0.5369  0.4319
   25SAPC  H18X 3386  -0.941  -0.268   8.446  0.7039 -1.6214  2.3029
   25SAPC  H18Y 3387  -0.835  -0.408   8.461 -0.8431 -2.1435 -0.1397
   25SAPC  H18Z 3388  -0.961  -0.392   8.319 -0.3709  1.1760 -0.1768
   26SAPC     N 3389   6.291   1.072   6.195 -0.4515  0.3767 -0.5084
   26SAPC   C12 3390   6.282   1.196   6.283 -0.0231  0.7954  0.0937
   26SAPC  H12A 3391   6.248   1.279   6.222 -0.3014  0.3875 -0.3168
   26SAPC  H12B 3392   6.381   1.220   6.317  0.5150  1.0827 -1.5953
   26SAPC   C13 3393   6.152   1.022   6.154 -0.2736  0.0158 -0.3125
   26SAPC  H13A 3394   6.165   0.938   6.088  2.1368  1.0245 -1.2396
   26SAPC  H13B 3395   6.094   1.012   6.244  1.3971 -0.2187  0.7928
   26SAPC  H13C 3396   6.107   1.101   6.095  2.0741 -0.0091 -2.3360
   26SAPC   C14 3397   6.360   1.108   6.071  0.2863 -0.3592 -0.8053
   26SAPC  H14A 3398   6.322   1.181   6.001 -0.8149 -1.8042 -1.7906
   26SAPC  H14B 3399   6.456   1.147   6.100 -0.2777 -0.1144  0.7836
   26SAPC  H14C 3400   6.375   1.014   6.020 -0.2698 -2.0580  1.9791
   26SAPC   C15 3401   6.380   0.966   6.267  0.3482 -0.1149  0.2914
   26SAPC  H15A 3402   6.476   1.012   6.288  0.4219  0.7999 -1.7622
   26SAPC  H15B 3403   6.329   0.918   6.348  0.5975 -1.0964 -0.1205
   26SAPC  H15C 3404   6.410   0.892   6.195  0.2091  1.3403 -1.3349
   26SAPC   C11 3405   6.186   1.177   6.409 -0.0163  0.0227 -0.0513
   26SAPC  H11A 3406   6.215   1.256   6.481  0.1799 -1.2869  1.3447
   26SAPC  H11B 3407   6.219   1.080   6.450 -0.3203  0.5129  1.4073
   26SAPC     P 3408   5.975   1.315   6.341  0.0659 -0.2357  0.1073
   26SAPC   O13 3409   6.054   1.400   6.255 -1.0193 -0.5846  0.6267
   26SAPC   O14 3410   5.846   1.272   6.282  0.0639 -0.3008 -0.2625
   26SAPC   O12 3411   6.052   1.181   6.376  0.1364 -0.7593  0.1867
   26SAPC   O11 3412   5.959   1.398   6.483 -0.1960 -0.5649  0.4536
   26SAPC    C1 3413   5.915   1.311   6.586 -0.2035  0.1541  0.4537
   26SAPC    HA 3414   5.830   1.247   6.553  0.2760 -0.8571  1.1262
   26SAPC    HB 3415   5.997   1.245   6.621 -0.7330 -1.2859 -0.8782
   26SAPC    C2 3416   5.857   1.399   6.700  0.1051 -0.1904  0.3246
   26SAPC    HS 3417   5.806   1.485   6.650  2.3328  0.6856 -0.5714
   26SAPC   O21 3418   5.969   1.447   6.766  0.0337  0.4067  0.0165
   26SAPC   C21 3419   5.965   1.563   6.824 -0.7949  0.3898 -0.0774
   26SAPC   O22 3420   5.865   1.629   6.837  0.0742 -1.0098  0.5317
   26SAPC   C22 3421   6.101   1.613   6.875  0.9257  0.2894 -0.0259
   26SAPC   H2R 3422   6.159   1.518   6.878 -2.6769 -2.1387  0.4409
   26SAPC   H2S 3423   6.151   1.689   6.811  2.5978  1.0970  2.1337
   26SAPC    C3 3424   5.766   1.311   6.786 -0.1302 -0.3693  0.1705
   26SAPC    HX 3425   5.838   1.239   6.829  0.0663 -1.7156 -2.2304
   26SAPC    HY 3426   5.695   1.255   6.722  0.0790  0.7140 -1.0543
   26SAPC   O31 3427   5.711   1.372   6.900  0.1520  0.4613  0.2437
   26SAPC   C31 3428   5.617   1.465   6.883  0.1772 -1.1788  0.1867
   26SAPC   O32 3429   5.557   1.494   6.781  0.7905 -0.1863  0.3800
   26SAPC   C32 3430   5.586   1.527   7.023 -0.2428 -0.9748  0.0834
   26SAPC   H2X 3431   5.514   1.610   7.003  0.2656 -1.1601 -3.1506
   26SAPC   H2Y 3432   5.681   1.574   7.058  1.4182 -2.1305 -2.5227
   26SAPC   C23 3433   6.095   1.680   7.012  0.1392 -0.4221 -0.4448
   26SAPC   H3R 3434   6.021   1.763   7.001 -0.5356 -0.8494  0.7208
   26SAPC   H3S 3435   6.194   1.727   7.033  0.6811 -1.6967 -0.0732
   26SAPC   C24 3436   6.043   1.590   7.127  0.3782  0.3253 -0.8511
   26SAPC   H4R 3437   5.952   1.534   7.094  0.0679 -0.1745  0.7561
   26SAPC   H4S 3438   6.026   1.657   7.213  0.4545 -2.2271  1.2828
   26SAPC   C25 3439   6.147   1.499   7.177 -0.8073 -0.1327  1.5807
   26SAPC   H5R 3440   6.250   1.525   7.149 -1.0682 -1.2885 -0.6747
   26SAPC   C26 3441   6.143   1.377   7.220  0.4342  0.7856 -0.3696
   26SAPC   H6R 3442   6.232   1.335   7.269  0.8085  3.9075  1.9667
   26SAPC   C27 3443   6.014   1.295   7.241 -1.6448  0.3327 -0.4175
   26SAPC   H7R 3444   5.932   1.369   7.248 -0.5380  1.4999  0.7868
   26SAPC   H7S 3445   6.019   1.249   7.342  0.2982  0.6275 -0.3304
   26SAPC   C28 3446   6.000   1.188   7.130  0.5751 -0.2725 -0.2197
   26SAPC   H8R 3447   5.972   1.224   7.030  0.7651 -2.4151 -1.1004
   26SAPC   C29 3448   6.029   1.059   7.143 -0.5214 -0.7710  0.0454
   26SAPC   H9R 3449   6.020   1.003   7.048 -1.9432  1.9238 -1.5341
   26SAPC  C210 3450   6.076   0.977   7.263 -0.3634 -0.9278  0.5474
   26SAPC  H10R 3451   6.124   1.041   7.340 -0.5195  1.5076 -1.2858
   26SAPC  H10S 3452   6.157   0.908   7.228  1.3818  0.8082  0.9824
   26SAPC  C211 3453   5.944   0.907   7.307 -0.9584  0.5364  0.7530
   26SAPC  H11R 3454   5.884   0.874   7.221  0.5150 -0.7973  0.1950
   26SAPC  C212 3455   5.892   0.893   7.430 -0.1937 -0.4192 -1.2824
   26SAPC  H12R 3456   5.796   0.840   7.437 -1.3315  1.6901 -0.2065
   26SAPC  C213 3457   5.940   0.933   7.567 -0.1331 -0.3271  0.2816
   26SAPC  H13R 3458   5.857   0.983   7.621  0.3323  0.3019  0.4244
   26SAPC  H13S 3459   6.013   1.015   7.553 -0.0394 -0.6565 -1.3428
   26SAPC  C214 3460   6.000   0.813   7.637 -0.1236 -0.4083 -0.6192
   26SAPC  H14R 3461   6.052   0.747   7.566  1.7990  0.0227  0.3453
   26SAPC  C215 3462   6.005   0.803   7.774  0.9161 -0.1971  0.7698
   26SAPC  H15R 3463   6.054   0.714   7.816  0.8263 -0.6324 -0.0309
   26SAPC  C216 3464   5.949   0.898   7.877 -0.3133 -0.7604 -0.4323
   26SAPC  H16R 3465   5.904   0.983   7.823  0.1446  0.7473  1.4506
   26SAPC  H16S 3466   6.030   0.945   7.936 -0.2399 -0.1155 -1.0378
   26SAPC  C217 3467   5.828   0.842   7.955 -0.4294 -0.0883  0.4992
   26SAPC  H17R 3468   5.855   0.743   7.998  1.7124  0.0318 -0.4567
   26SAPC  H17S 3469   5.745   0.825   7.883  0.1265 -0.0506 -0.1591
   26SAPC  C218 3470   5.777   0.942   8.062  0.0391 -0.2838 -0.4418
   26SAPC  H18R 3471   5.740   1.036   8.017 -1.9037 -0.8972 -0.1883
   26SAPC  H18S 3472   5.868   0.962   8.124 -0.5247  2.5578 -0.3912
   26SAPC  C219 3473   5.671   0.884   8.148  0.9066  0.0067 -0.0543
   26SAPC  H19R 3474   5.700   0.780   8.172 -0.0134  0.0464  1.3661
   26SAPC  H19S 3475   5.575   0.879   8.092  0.9983 -0.2528 -0.1900
   26SAPC  C220 3476   5.637   0.946   8.285 -0.0902  0.2072 -0.3406
   26SAPC  H20R 3477   5.727   0.928   8.348 -0.5425 -0.0810  0.2408
   26SAPC  H20S 3478   5.553   0.893   8.336  0.7865 -0.8182  0.0835
   26SAPC  H20T 3479   5.618   1.055   8.276  0.9939  0.5698  1.3709
   26SAPC   C33 3480   5.526   1.430   7.117 -0.5375  1.4107 -0.1662
   26SAPC   H3X 3481   5.592   1.340   7.112  1.1227  2.4801  1.0532
   26SAPC   H3Y 3482   5.423   1.409   7.083 -0.7236  0.7321  0.7775
   26SAPC   C34 3483   5.510   1.475   7.262  0.1421 -0.3586  0.9392
   26SAPC   H4X 3484   5.433   1.413   7.312  1.4494  0.4441  4.2104
   26SAPC   H4Y 3485   5.479   1.581   7.268 -0.2856 -0.4403  0.2110
   26SAPC   C35 3486   5.642   1.484   7.355  0.5806 -0.0708  0.2728
   26SAPC   H5X 3487   5.622   1.566   7.428 -0.1073  1.2797 -1.3519
   26SAPC   H5Y 3488   5.729   1.498   7.287  0.7006  3.2332  0.9113
   26SAPC   C36 3489   5.678   1.363   7.446  1.0297  0.1444  0.1250
   26SAPC   H6X 3490   5.709   1.272   7.390  1.2230  0.0746  0.3413
   26SAPC   H6Y 3491   5.583   1.343   7.500  0.3456 -0.4156 -1.2387
   26SAPC   C37 3492   5.783   1.397   7.554 -0.4751  0.5610  0.9061
   26SAPC   H7X 3493   5.742   1.464   7.632 -0.0727  1.7705  0.1142
   26SAPC   H7Y 3494   5.866   1.460   7.513 -0.3864  0.3304  0.7251
   26SAPC   C38 3495   5.834   1.271   7.624 -0.6615  0.0716  0.1220
   26SAPC   H8X 3496   5.892   1.213   7.549  0.0961  0.7764  0.1491
   26SAPC   H8Y 3497   5.747   1.211   7.658 -0.1592  0.1890  1.7202
   26SAPC   C39 3498   5.934   1.290   7.746  0.9839  0.2175  0.2174
   26SAPC   H9X 3499   6.015   1.359   7.714  0.4921  0.6803 -0.0612
   26SAPC   H9Y 3500   5.980   1.197   7.785  2.7579  0.8093 -0.3511
   26SAPC  C310 3501   5.868   1.342   7.865 -0.1291 -0.1351 -0.2866
   26SAPC  H10X 3502   5.768   1.297   7.885 -0.6802  0.2171 -2.0223
   26SAPC  H10Y 3503   5.838   1.449   7.859  3.3105  0.8763 -2.7126
   26SAPC  C311 3504   5.940   1.304   8.001  0.8181 -0.0019  1.0185
   26SAPC  H11X 3505   5.954   1.194   8.009 -1.0623 -0.6531 -2.6807
   26SAPC  H11Y 3506   5.882   1.339   8.089  0.6143  1.6323  0.2713
   26SAPC  C312 3507   6.074   1.363   8.006 -0.6233 -0.8383  0.7990
   26SAPC  H12X 3508   6.060   1.472   7.992 -1.9978 -1.2642 -2.0810
   26SAPC  H12Y 3509   6.139   1.336   7.920 -0.9258  0.2705  0.2034
   26SAPC  C313 3510   6.151   1.330   8.134 -0.6307 -0.7299 -0.4338
   26SAPC  H13X 3511   6.179   1.223   8.126  2.9693  0.1714 -1.2180
   26SAPC  H13Y 3512   6.088   1.346   8.225 -1.0429 -0.8823 -0.6908
   26SAPC  C314 3513   6.280   1.410   8.163 -0.6569  0.2428  0.9440
   26SAPC  H14X 3514   6.266   1.518   8.143  1.0010  0.7229  2.1369
   26SAPC  H14Y 3515   6.373   1.372   8.116 -0.3330 -1.4049  2.7357
   26SAPC  C315 3516   6.339   1.391   8.309 -0.0527 -0.1517  0.5307
   26SAPC  H15X 3517   6.257   1.420   8.378  0.7416  1.1455  0.9708
   26SAPC  H15Y 3518   6.426   1.460   8.315 -0.9542  1.1716 -0.8296
   26SAPC  C316 3519   6.374   1.241   8.341 -0.7264 -0.6978  0.9317
   26SAPC  H16X 3520   6.402   1.198   8.242  0.5269  1.4488  0.2944
   26SAPC  H16Y 3521   6.289   1.183   8.383 -0.7932  0.4857  2.5161
   26SAPC  C317 3522   6.492   1.221   8.440 -0.0775 -1.1502 -0.2860
   26SAPC  H17X 3523   6.473   1.273   8.536 -1.6137 -2.4080  0.1484
   26SAPC  H17Y 3524   6.575   1.259   8.378  0.4290 -1.0079  0.4581
   26SAPC  C318 3525   6.514   1.076   8.483  0.6828 -0.5233  0.1125
   26SAPC  H18X 3526   6.412   1.041   8.511  0.7057 -0.0463  0.8215
   26SAPC  H18Y 3527   6.594   1.071   8.560  1.0039  0.5865 -0.1370
   26SAPC  H18Z 3528   6.529   1.011   8.395 -0.2748 -1.3034  0.5000
   27SAPC     N 3529   3.425   4.549   6.615 -0.1387  0.0142  0.0620
   27SAPC   C12 3530   3.342   4.461   6.710 -0.5913 -0.1395  0.0741
   27SAPC  H12A 3531   3.410   4.437   6.790  0.3803  0.0330 -0.6807
   27SAPC  H12B 3532   3.328   4.367   6.660  0.1012 -0.2485  0.0768
   27SAPC   C13 3533   3.471   4.671   6.691 -0.2652 -0.2075  0.1855
   27SAPC  H13A 3534   3.536   4.644   6.773  1.1215  0.3984 -0.6737
   27SAPC  H13B 3535   3.523   4.735   6.621  1.5892 -0.8935  0.8762
   27SAPC  H13C 3536   3.395   4.742   6.721 -0.6601 -0.1165 -0.9888
   27SAPC   C14 3537   3.541   4.475   6.566 -0.4990  0.1637 -0.3542
   27SAPC  H14A 3538   3.598   4.528   6.491  2.9374 -0.3198  1.7121
   27SAPC  H14B 3539   3.606   4.448   6.648  1.4894 -1.0632 -2.2194
   27SAPC  H14C 3540   3.519   4.378   6.524  0.4107 -0.9954  1.7124
   27SAPC   C15 3541   3.342   4.597   6.501  0.7477 -0.3895  0.6084
   27SAPC  H15A 3542   3.394   4.666   6.435 -2.4252  0.4324 -1.2454
   27SAPC  H15B 3543   3.316   4.507   6.448 -4.2509 -0.0514  2.0469
   27SAPC  H15C 3544   3.247   4.639   6.529  1.1345  0.7185  0.3417
   27SAPC   C11 3545   3.216   4.512   6.781 -0.0292 -0.0994  0.4313
   27SAPC  H11A 3546   3.239   4.614   6.817 -0.8344 -0.2291  1.3810
   27SAPC  H11B 3547   3.199   4.450   6.872 -1.9122  1.4980  1.2417
   27SAPC     P 3548   3.034   4.360   6.679  0.3278 -0.3119  0.2016
   27SAPC   O13 3549   2.921   4.371   6.586  0.3757 -0.3858  0.5173
   27SAPC   O14 3550   3.142   4.259   6.654  0.3395 -0.7901 -0.1204
   27SAPC   O12 3551   3.109   4.500   6.693  0.3664 -0.2682 -0.4130
   27SAPC   O11 3552   2.979   4.340   6.825  0.4588  0.4080  1.1247
   27SAPC    C1 3553   2.907   4.224   6.858 -0.2183  0.2290  0.8403
   27SAPC    HA 3554   2.798   4.234   6.841  0.0571  0.7523 -0.7894
   27SAPC    HB 3555   2.945   4.133   6.805 -1.3183 -0.4182  1.1192
   27SAPC    C2 3556   2.929   4.179   7.007 -0.1702  0.3517 -0.5434
   27SAPC    HS 3557   2.885   4.258   7.071 -1.9423 -0.6474 -0.4660
   27SAPC   O21 3558   3.074   4.151   7.031  0.6573  0.4100 -0.1209
   27SAPC   C21 3559   3.138   4.259   7.062  0.0734  0.5079  0.2226
   27SAPC   O22 3560   3.092   4.359   7.109 -0.2842 -0.1123 -0.0292
   27SAPC   C22 3561   3.288   4.235   7.042 -0.1548 -0.9788  0.4126
   27SAPC   H2R 3562   3.309   4.223   6.934  1.0661 -1.4915  0.6800
   27SAPC   H2S 3563   3.341   4.327   7.075  1.9163 -0.7218 -3.1241
   27SAPC    C3 3564   2.851   4.050   7.039 -0.0420 -0.0543  0.2889
   27SAPC    HX 3565   2.870   3.985   6.951  0.1334  0.8077 -0.3211
   27SAPC    HY 3566   2.741   4.069   7.045 -0.2842 -1.6516  2.0115
   27SAPC   O31 3567   2.899   3.991   7.161  0.3193  0.1270  0.0553
   27SAPC   C31 3568   2.846   4.036   7.281 -0.5025  0.2832  0.5916
   27SAPC   O32 3569   2.769   4.127   7.283 -0.2214 -0.3994  0.7683
   27SAPC   C32 3570   2.909   3.962   7.412  0.4961  0.3945  0.5364
   27SAPC   H2X 3571   3.019   3.979   7.413  0.6167  0.1314 -1.6766
   27SAPC   H2Y 3572   2.889   3.855   7.391  2.8312  0.3470 -2.1474
   27SAPC   C23 3573   3.342   4.106   7.109  0.1491  0.2552 -1.0588
   27SAPC   H3R 3574   3.453   4.118   7.107  0.2478 -0.3950 -0.0658
   27SAPC   H3S 3575   3.320   4.015   7.050  0.4971 -0.6164  0.1134
   27SAPC   C24 3576   3.305   4.103   7.261  0.3592  0.5230 -0.4589
   27SAPC   H4R 3577   3.198   4.075   7.273  0.3965  0.1403 -1.0138
   27SAPC   H4S 3578   3.311   4.203   7.309  0.1224 -0.7330  2.3744
   27SAPC   C25 3579   3.388   4.014   7.343 -0.2014  0.1922  0.6441
   27SAPC   H5R 3580   3.454   3.950   7.283  0.1210  0.0061  1.1798
   27SAPC   C26 3581   3.390   4.006   7.477 -0.3645  0.7957 -0.3855
   27SAPC   H6R 3582   3.450   3.924   7.520  2.6885  0.7789 -4.1067
   27SAPC   C27 3583   3.309   4.095   7.565  0.7066 -0.0429 -0.6061
   27SAPC   H7R 3584   3.235   4.030   7.617  0.3795  0.9504  0.2017
   27SAPC   H7S 3585   3.253   4.178   7.518 -2.9266 -0.7363  2.1159
   27SAPC   C28 3586   3.386   4.149   7.680 -0.1956  0.1516 -0.8107
   27SAPC   H8R 3587   3.450   4.233   7.649  0.9952 -0.4537 -0.0819
   27SAPC   C29 3588   3.389   4.101   7.807 -0.0368  0.7546  0.5365
   27SAPC   H9R 3589   3.451   4.159   7.877  1.5231  2.6927 -2.2656
   27SAPC  C210 3590   3.318   3.984   7.872  0.6376 -0.9846 -0.4913
   27SAPC  H10R 3591   3.275   3.915   7.796  0.7290 -0.9844 -0.5434
   27SAPC  H10S 3592   3.231   4.034   7.918  0.9373 -0.1688 -0.7876
   27SAPC  C211 3593   3.397   3.911   7.973 -0.5274  0.2045  0.3097
   27SAPC  H11R 3594   3.480   3.853   7.930 -0.8923  0.1227 -0.2922
   27SAPC  C212 3595   3.381   3.909   8.105  0.3725  0.3056 -0.5253
   27SAPC  H12R 3596   3.464   3.869   8.165 -1.1135 -4.4271 -1.1460
   27SAPC  C213 3597   3.268   3.962   8.191  0.4398  0.2949  0.7199
   27SAPC  H13R 3598   3.243   3.876   8.256 -0.2378  1.1304  1.5910
   27SAPC  H13S 3599   3.173   3.983   8.137  0.6590  2.5721  1.1342
   27SAPC  C214 3600   3.311   4.081   8.266  0.4023  0.8593  0.0937
   27SAPC  H14R 3601   3.328   4.170   8.204  2.5439 -0.1614 -0.9075
   27SAPC  C215 3602   3.317   4.086   8.398 -0.1905  0.2311 -0.2360
   27SAPC  H15R 3603   3.349   4.175   8.454 -0.9203  1.1700 -1.2666
   27SAPC  C216 3604   3.277   3.975   8.495 -0.5978 -0.1775 -0.6110
   27SAPC  H16R 3605   3.202   3.905   8.450  1.9586 -0.8324 -4.3411
   27SAPC  H16S 3606   3.226   4.034   8.574  0.0681  3.2135 -2.5297
   27SAPC  C217 3607   3.398   3.893   8.542 -0.1982  0.3490 -0.2266
   27SAPC  H17R 3608   3.462   3.874   8.453 -1.9007 -0.0702 -1.4156
   27SAPC  H17S 3609   3.366   3.794   8.581  1.0563 -0.3109 -0.8367
   27SAPC  C218 3610   3.476   3.968   8.652 -0.8571  0.1379  0.4195
   27SAPC  H18R 3611   3.396   3.997   8.724 -0.2450 -0.0040  1.1643
   27SAPC  H18S 3612   3.516   4.058   8.600 -0.4584  0.7286  1.7060
   27SAPC  C219 3613   3.574   3.874   8.719  0.2266  0.0851  0.1535
   27SAPC  H19R 3614   3.670   3.877   8.663  0.9012 -1.8961  1.0909
   27SAPC  H19S 3615   3.545   3.766   8.723  0.8724 -0.1727 -1.4460
   27SAPC  C220 3616   3.597   3.918   8.862 -0.3930  0.4930 -0.4067
   27SAPC  H20R 3617   3.678   3.855   8.905 -2.0383 -1.7303 -0.4240
   27SAPC  H20S 3618   3.508   3.902   8.927  0.2468  0.4156  0.4772
   27SAPC  H20T 3619   3.627   4.025   8.872  0.9460  0.1941 -0.9899
   27SAPC   C33 3620   2.840   4.003   7.545 -0.4615  0.2150  0.6590
   27SAPC   H3X 3621   2.738   3.963   7.563 -0.0390 -0.9524  0.5341
   27SAPC   H3Y 3622   2.829   4.114   7.551  0.0104  0.3618 -0.9371
   27SAPC   C34 3623   2.929   3.967   7.664 -0.7248 -0.0624  0.5734
   27SAPC   H4X 3624   3.029   4.015   7.661 -0.9366  0.3377 -0.5111
   27SAPC   H4Y 3625   2.949   3.858   7.658  1.1875  0.2362  0.9409
   27SAPC   C35 3626   2.855   3.982   7.800  0.2191  0.3711 -0.4015
   27SAPC   H5X 3627   2.767   3.915   7.788 -0.1758  1.1252 -1.9914
   27SAPC   H5Y 3628   2.819   4.082   7.830 -0.9431 -0.9616  3.1675
   27SAPC   C36 3629   2.937   3.921   7.920  0.3196 -0.1920 -0.4246
   27SAPC   H6X 3630   3.011   3.994   7.959  0.3705  0.0209 -0.9066
   27SAPC   H6Y 3631   2.988   3.827   7.887 -1.1462 -0.4571 -2.0434
   27SAPC   C37 3632   2.848   3.910   8.044  0.8766 -0.0162 -0.6060
   27SAPC   H7X 3633   2.770   3.834   8.020  0.4568 -0.1097  0.9583
   27SAPC   H7Y 3634   2.798   4.003   8.077 -0.9663 -0.6804 -1.3800
   27SAPC   C38 3635   2.912   3.848   8.167  0.1941  0.3091  0.1715
   27SAPC   H8X 3636   2.974   3.924   8.219  1.0918  0.5963 -1.2635
   27SAPC   H8Y 3637   2.985   3.771   8.135 -0.3848 -1.2701  2.3902
   27SAPC   C39 3638   2.815   3.782   8.271 -0.3760 -0.3565 -0.5139
   27SAPC   H9X 3639   2.761   3.698   8.222  0.6145 -1.3138  0.0192
   27SAPC   H9Y 3640   2.737   3.855   8.303  0.3951 -0.4224  1.6476
   27SAPC  C310 3641   2.887   3.733   8.394 -0.2704  0.1857 -0.4051
   27SAPC  H10X 3642   2.808   3.694   8.461  0.6614  0.1799  0.7211
   27SAPC  H10Y 3643   2.924   3.819   8.453 -2.1096  0.2282  0.7527
   27SAPC  C311 3644   2.997   3.630   8.366  0.1495 -1.3141 -0.8751
   27SAPC  H11X 3645   3.083   3.684   8.321 -0.8516 -0.1234 -1.4127
   27SAPC  H11Y 3646   2.951   3.563   8.291 -0.7337 -0.6268 -0.9645
   27SAPC  C312 3647   3.043   3.567   8.495 -0.4780  0.1525  0.8768
   27SAPC  H12X 3648   2.960   3.508   8.540 -1.2694 -1.1069 -2.0126
   27SAPC  H12Y 3649   3.080   3.646   8.564 -1.1039  0.2895  1.0585
   27SAPC  C313 3650   3.157   3.473   8.473  0.1589  0.5497 -0.3457
   27SAPC  H13X 3651   3.232   3.519   8.406 -0.5125 -0.3605 -1.7811
   27SAPC  H13Y 3652   3.112   3.381   8.430 -0.8435  0.8145  0.0920
   27SAPC  C314 3653   3.238   3.427   8.594 -0.0358  0.1186 -0.2260
   27SAPC  H14X 3654   3.168   3.388   8.670  1.2527  1.0463  1.5017
   27SAPC  H14Y 3655   3.294   3.516   8.630  0.4726 -1.1993  2.4890
   27SAPC  C315 3656   3.333   3.308   8.557 -0.1143 -0.2659  0.2287
   27SAPC  H15X 3657   3.373   3.337   8.458 -0.6563  0.1079  0.1149
   27SAPC  H15Y 3658   3.282   3.213   8.531 -0.1264 -0.5886  1.3602
   27SAPC  C316 3659   3.449   3.282   8.658  0.6047 -0.9772  0.2180
   27SAPC  H16X 3660   3.473   3.384   8.696  0.7475 -0.5951 -0.8429
   27SAPC  H16Y 3661   3.541   3.244   8.608  0.4688 -0.5658 -0.3553
   27SAPC  C317 3662   3.394   3.204   8.776  0.3154 -0.6220  0.2202
   27SAPC  H17X 3663   3.344   3.115   8.733 -0.0690 -1.0058  1.4143
   27SAPC  H17Y 3664   3.312   3.252   8.833  0.4061  0.3544 -0.4402
   27SAPC  C318 3665   3.507   3.164   8.867 -0.4287  0.2157 -0.2741
   27SAPC  H18X 3666   3.573   3.245   8.907  0.2164  0.1624 -1.1785
   27SAPC  H18Y 3667   3.569   3.087   8.817 -0.2966 -0.0589  0.3106
   27SAPC  H18Z 3668   3.465   3.108   8.952 -0.4682  0.0471 -0.4050
   28SAPC     N 3669   3.286   1.548   6.300  0.0449 -0.3369  0.3752
   28SAPC   C12 3670   3.144   1.580   6.261 -0.4793 -0.7350  0.4213
   28SAPC  H12A 3671   3.110   1.638   6.346  0.9403  1.2519 -0.2809
   28SAPC  H12B 3672   3.086   1.490   6.255 -0.4066 -0.7000 -1.1520
   28SAPC   C13 3673   3.295   1.432   6.394 -0.0864 -0.5530 -0.5687
   28SAPC  H13A 3674   3.257   1.345   6.342  2.1866 -0.7301 -2.0668
   28SAPC  H13B 3675   3.397   1.419   6.429 -0.3236  0.9721  0.8265
   28SAPC  H13C 3676   3.229   1.453   6.477  1.1695  0.1537  0.2867
   28SAPC   C14 3677   3.370   1.518   6.184 -0.4677  0.8932 -0.1606
   28SAPC  H14A 3678   3.366   1.598   6.111 -0.5012  1.1111  0.0793
   28SAPC  H14B 3679   3.474   1.498   6.207 -0.0102  2.5525 -0.6009
   28SAPC  H14C 3680   3.334   1.435   6.125 -1.0218  0.8764  0.1952
   28SAPC   C15 3681   3.340   1.672   6.365 -0.3084  0.1548 -0.1397
   28SAPC  H15A 3682   3.287   1.693   6.457  0.4924 -0.7530  0.5463
   28SAPC  H15B 3683   3.444   1.663   6.390  0.4194 -0.6849 -3.0707
   28SAPC  H15C 3684   3.319   1.761   6.308 -0.6853  0.7094  0.8457
   28SAPC   C11 3685   3.115   1.666   6.140  0.2644  0.9614 -0.6015
   28SAPC  H11A 3686   3.007   1.688   6.127 -0.2366 -0.6896  0.3938
   28SAPC  H11B 3687   3.132   1.599   6.053  1.9954  2.7633 -1.7351
   28SAPC     P 3688   3.143   1.916   6.173  0.3029 -0.2538  0.2010
   28SAPC   O13 3689   3.256   2.005   6.217  0.0765 -0.1422  0.5489
   28SAPC   O14 3690   3.066   1.960   6.048 -0.2053  0.0968  0.7672
   28SAPC   O12 3691   3.202   1.782   6.133  0.3593  0.8987  0.1768
   28SAPC   O11 3692   3.031   1.888   6.285  0.4080 -0.1196  0.0007
   28SAPC    C1 3693   2.960   2.004   6.346 -0.2357 -0.4231 -0.7517
   28SAPC    HA 3694   2.936   2.087   6.277 -0.3023  0.9134  0.8146
   28SAPC    HB 3695   2.861   1.973   6.385 -0.2887  0.8889  0.2332
   28SAPC    C2 3696   3.031   2.073   6.465  0.2403 -0.0247  0.4914
   28SAPC    HS 3697   3.109   2.142   6.426 -0.1071  0.0633 -0.0516
   28SAPC   O21 3698   3.092   1.967   6.550 -0.2816  0.1793  0.6784
   28SAPC   C21 3699   3.212   1.991   6.596  0.0837 -0.0362  0.3189
   28SAPC   O22 3700   3.278   2.094   6.584 -0.2731  0.3600  0.2692
   28SAPC   C22 3701   3.243   1.871   6.679 -0.1640  0.4725 -0.1942
   28SAPC   H2R 3702   3.158   1.838   6.744 -0.1618  2.1984  0.7317
   28SAPC   H2S 3703   3.245   1.792   6.601  0.9053  0.0891  0.2088
   28SAPC    C3 3704   2.934   2.159   6.557  0.4554  0.3256 -0.0332
   28SAPC    HX 3705   2.857   2.086   6.589  2.3339 -0.6157  2.6379
   28SAPC    HY 3706   2.885   2.231   6.488 -1.8016 -0.9392  0.1590
   28SAPC   O31 3707   3.005   2.224   6.671 -0.6611  0.1059  0.1461
   28SAPC   C31 3708   3.076   2.329   6.636  0.1657 -0.8740 -0.4489
   28SAPC   O32 3709   3.070   2.387   6.531  0.3449 -0.5531  0.0181
   28SAPC   C32 3710   3.173   2.386   6.743 -0.1423  0.0635 -0.0268
   28SAPC   H2X 3711   3.178   2.497   6.739 -1.7847  0.1563 -0.1224
   28SAPC   H2Y 3712   3.272   2.342   6.717 -1.2070 -1.6457 -1.4700
   28SAPC   C23 3713   3.378   1.883   6.759  0.8012 -0.3182  0.2310
   28SAPC   H3R 3714   3.378   1.974   6.822  1.1457 -0.4307  0.3954
   28SAPC   H3S 3715   3.458   1.894   6.684  2.4100 -0.9344  1.7823
   28SAPC   C24 3716   3.406   1.760   6.853  0.3405  0.4659  0.0098
   28SAPC   H4R 3717   3.305   1.732   6.892  0.4327 -1.9088 -1.2935
   28SAPC   H4S 3718   3.441   1.674   6.792 -0.3678 -0.8002  1.3138
   28SAPC   C25 3719   3.499   1.800   6.961 -0.1313 -0.1577 -0.1195
   28SAPC   H5R 3720   3.576   1.872   6.932  1.5312 -1.3852  1.0806
   28SAPC   C26 3721   3.496   1.761   7.092 -0.4771 -0.1007 -0.0609
   28SAPC   H6R 3722   3.561   1.816   7.162  0.0563 -0.3805 -0.3325
   28SAPC   C27 3723   3.413   1.656   7.163  0.4650 -0.1164 -0.5830
   28SAPC   H7R 3724   3.476   1.565   7.168  0.0157 -0.4159 -0.3324
   28SAPC   H7S 3725   3.339   1.618   7.091 -0.3357 -0.9710  0.6530
   28SAPC   C28 3726   3.342   1.691   7.292 -0.0590  0.8551 -0.2139
   28SAPC   H8R 3727   3.245   1.739   7.275 -0.8651 -1.4783 -3.1056
   28SAPC   C29 3728   3.387   1.660   7.416 -0.3679 -0.2382 -0.0601
   28SAPC   H9R 3729   3.320   1.689   7.499 -0.5417  3.7256 -1.3554
   28SAPC  C210 3730   3.519   1.597   7.447 -0.0473  0.3395 -0.1907
   28SAPC  H10R 3731   3.593   1.619   7.367 -1.2428 -1.2957 -1.8277
   28SAPC  H10S 3732   3.506   1.487   7.456 -2.8268  0.3283 -2.7645
   28SAPC  C211 3733   3.582   1.655   7.567  0.8680  0.6334 -0.1469
   28SAPC  H11R 3734   3.657   1.730   7.538  0.6397  0.0449 -2.4294
   28SAPC  C212 3735   3.565   1.614   7.693  0.0095  0.0337  0.3234
   28SAPC  H12R 3736   3.623   1.661   7.774 -0.7847  0.0791  0.8786
   28SAPC  C213 3737   3.476   1.498   7.739 -0.4688  0.2419 -0.8963
   28SAPC  H13R 3738   3.544   1.422   7.783 -0.1758 -0.2008 -2.0931
   28SAPC  H13S 3739   3.417   1.440   7.664 -0.0475 -0.9535 -0.3377
   28SAPC  C214 3740   3.378   1.550   7.839 -0.1296  0.9938  0.1008
   28SAPC  H14R 3741   3.287   1.581   7.785  0.3566 -1.0086 -2.0734
   28SAPC  C215 3742   3.398   1.553   7.970  0.2965  0.0879 -0.7457
   28SAPC  H15R 3743   3.320   1.599   8.032  0.3366 -0.6083 -0.1629
   28SAPC  C216 3744   3.520   1.508   8.051 -1.0219  0.4424 -0.4205
   28SAPC  H16R 3745   3.592   1.591   8.068  2.4001 -1.5491 -3.6262
   28SAPC  H16S 3746   3.568   1.426   7.994 -0.8942  0.0545  0.2283
   28SAPC  C217 3747   3.478   1.454   8.186  0.5585 -0.2483 -0.1564
   28SAPC  H17R 3748   3.433   1.353   8.172 -2.4694  0.8647  0.8286
   28SAPC  H17S 3749   3.404   1.527   8.225 -0.1492 -0.3178 -1.3450
   28SAPC  C218 3750   3.585   1.439   8.299 -0.3323  0.0694 -0.1238
   28SAPC  H18R 3751   3.680   1.396   8.261  0.1498  1.0595 -0.0639
   28SAPC  H18S 3752   3.551   1.357   8.366  3.5587  0.0181  2.1017
   28SAPC  C219 3753   3.615   1.567   8.377 -0.1037 -0.4310 -0.4104
   28SAPC  H19R 3754   3.532   1.591   8.446 -0.5161 -0.7513 -0.7875
   28SAPC  H19S 3755   3.631   1.653   8.308  1.1480  1.2357  1.8198
   28SAPC  C220 3756   3.752   1.565   8.456  0.1573  0.6124 -0.1677
   28SAPC  H20R 3757   3.843   1.546   8.396  1.0346  1.0806  0.9851
   28SAPC  H20S 3758   3.749   1.491   8.540  0.5806  2.4291  1.5288
   28SAPC  H20T 3759   3.761   1.666   8.501 -1.4210  0.5456  0.3873
   28SAPC   C33 3760   3.129   2.346   6.891 -0.0884  0.1219 -0.6664
   28SAPC   H3X 3761   3.022   2.369   6.909 -0.3400 -1.1064 -0.4665
   28SAPC   H3Y 3762   3.191   2.398   6.967 -1.4778 -1.8869  2.0316
   28SAPC   C34 3763   3.157   2.194   6.913 -0.0279 -0.0122 -0.0114
   28SAPC   H4X 3764   3.253   2.172   6.862  0.1790 -2.2437  1.1915
   28SAPC   H4Y 3765   3.084   2.130   6.860 -0.3325 -1.5730  2.1566
   28SAPC   C35 3766   3.179   2.158   7.064 -0.0126 -0.7344  0.0906
   28SAPC   H5X 3767   3.252   2.220   7.121  0.1752 -1.0151  0.1593
   28SAPC   H5Y 3768   3.224   2.056   7.066 -0.8887 -1.1528 -0.8167
   28SAPC   C36 3769   3.058   2.164   7.155 -0.3415  0.0935  0.2286
   28SAPC   H6X 3770   2.977   2.106   7.105 -1.2877  2.6362 -1.3860
   28SAPC   H6Y 3771   3.024   2.270   7.161 -2.2745 -0.4478 -0.2814
   28SAPC   C37 3772   3.079   2.124   7.303  0.2215  0.4536  0.0271
   28SAPC   H7X 3773   3.135   2.028   7.301 -0.7638 -0.1653  0.9311
   28SAPC   H7Y 3774   2.979   2.109   7.348 -0.1876 -1.4749 -1.4189
   28SAPC   C38 3775   3.159   2.216   7.393  0.1969  0.0073  0.0793
   28SAPC   H8X 3776   3.106   2.311   7.418  0.4644  0.0397  0.5350
   28SAPC   H8Y 3777   3.244   2.246   7.327  0.5108 -0.4538  0.2723
   28SAPC   C39 3778   3.207   2.145   7.517  0.6970  0.8218 -0.1008
   28SAPC   H9X 3779   3.306   2.188   7.545  1.6516 -1.1302 -0.3497
   28SAPC   H9Y 3780   3.220   2.035   7.509  0.4615  0.7710  0.1915
   28SAPC  C310 3781   3.116   2.173   7.638 -0.1048 -0.0354  0.6693
   28SAPC  H10X 3782   3.041   2.092   7.649 -0.0942  0.0478  1.3839
   28SAPC  H10Y 3783   3.075   2.276   7.637  0.0285  0.0267 -0.7927
   28SAPC  C311 3784   3.188   2.187   7.771 -0.5588  0.3109 -0.5574
   28SAPC  H11X 3785   3.149   2.264   7.841 -0.7916 -1.8580  1.8229
   28SAPC  H11Y 3786   3.294   2.217   7.757 -0.0222 -1.1856  0.0570
   28SAPC  C312 3787   3.191   2.050   7.840 -0.2710 -0.4096  0.0110
   28SAPC  H12X 3788   3.207   1.963   7.774  1.0047 -0.4995  0.4034
   28SAPC  H12Y 3789   3.096   2.042   7.897  0.9684 -2.0342  2.0074
   28SAPC  C313 3790   3.308   2.038   7.940  0.6230 -0.6067  0.0242
   28SAPC  H13X 3791   3.304   2.133   7.999 -0.8283 -1.7958  1.9776
   28SAPC  H13Y 3792   3.406   2.037   7.889 -0.6715 -0.4707 -2.6653
   28SAPC  C314 3793   3.297   1.909   8.020  0.0188 -0.8900  1.0150
   28SAPC  H14X 3794   3.347   1.835   7.954  1.4527  0.6941  0.2809
   28SAPC  H14Y 3795   3.190   1.893   8.047 -0.8913  3.9836  1.2283
   28SAPC  C315 3796   3.375   1.921   8.151 -0.0583  0.2267 -1.1279
   28SAPC  H15X 3797   3.476   1.963   8.132  0.9514 -0.6845  1.6366
   28SAPC  H15Y 3798   3.390   1.821   8.196  1.4872  0.3993 -1.1746
   28SAPC  C316 3799   3.311   2.020   8.248  0.1338  0.2169  0.0172
   28SAPC  H16X 3800   3.212   1.983   8.283 -0.0435 -0.3540 -1.0607
   28SAPC  H16Y 3801   3.301   2.120   8.202 -1.0713 -1.0648 -2.7532
   28SAPC  C317 3802   3.403   2.038   8.368 -0.3698 -0.0663 -0.4846
   28SAPC  H17X 3803   3.339   2.105   8.429 -1.2526 -0.0132 -1.4433
   28SAPC  H17Y 3804   3.485   2.104   8.331 -1.2588  0.7652 -0.9993
   28SAPC  C318 3805   3.460   1.915   8.434  0.6832 -0.3850  0.0412
   28SAPC  H18X 3806   3.386   1.834   8.424 -1.0928  1.0170  1.2221
   28SAPC  H18Y 3807   3.487   1.917   8.542 -0.1901 -1.3487  0.2898
   28SAPC  H18Z 3808   3.548   1.877   8.378 -0.7099 -2.4126 -0.8754
   29SAPC     N 3809   4.487   3.791   6.308 -0.3753 -0.0209 -0.4158
   29SAPC   C12 3810   4.375   3.740   6.399 -0.0048  0.7183 -0.4049
   29SAPC  H12A 3811   4.277   3.750   6.355  0.7163 -0.5632 -2.4641
   29SAPC  H12B 3812   4.381   3.807   6.484  2.1831  1.3579 -0.9999
   29SAPC   C13 3813   4.465   3.935   6.268 -0.0239 -0.4399 -0.1928
   29SAPC  H13A 3814   4.543   3.965   6.199  0.6208 -1.3721  0.1138
   29SAPC  H13B 3815   4.365   3.947   6.231 -1.1290 -1.1609  2.3297
   29SAPC  H13C 3816   4.476   3.995   6.357  1.2132 -1.2921  0.2547
   29SAPC   C14 3817   4.621   3.781   6.377 -0.4560  0.4932  0.1190
   29SAPC  H14A 3818   4.693   3.797   6.298  0.1399 -0.6167  0.4188
   29SAPC  H14B 3819   4.639   3.859   6.450 -0.0348 -1.4906  2.2516
   29SAPC  H14C 3820   4.631   3.681   6.417  1.5221 -0.0354 -1.4921
   29SAPC   C15 3821   4.497   3.704   6.189 -0.2986 -0.2480  0.0731
   29SAPC  H15A 3822   4.575   3.750   6.130 -0.5237  0.9069  0.6622
   29SAPC  H15B 3823   4.524   3.603   6.216 -2.0182 -0.2187  2.1664
   29SAPC  H15C 3824   4.411   3.711   6.124  0.2189 -0.2083 -0.6160
   29SAPC   C11 3825   4.393   3.600   6.462 -0.0239  0.2991  0.4762
   29SAPC  H11A 3826   4.292   3.580   6.503 -0.7837  1.9826 -0.4532
   29SAPC  H11B 3827   4.454   3.596   6.554  2.1370 -1.2519 -0.9362
   29SAPC     P 3828   4.554   3.406   6.396 -0.2574  0.1297 -0.5231
   29SAPC   O13 3829   4.592   3.340   6.269 -0.0696  0.0417 -0.2654
   29SAPC   O14 3830   4.663   3.488   6.463  0.3691 -0.6219  0.3702
   29SAPC   O12 3831   4.429   3.499   6.366 -0.0562  0.1094 -0.3486
   29SAPC   O11 3832   4.509   3.306   6.505 -0.4279  0.1945 -0.1690
   29SAPC    C1 3833   4.383   3.246   6.522  0.0624  0.0266 -0.4903
   29SAPC    HA 3834   4.303   3.288   6.457 -1.8138  1.6281  2.6115
   29SAPC    HB 3835   4.397   3.137   6.504  0.2597  0.0711 -0.6006
   29SAPC    C2 3836   4.327   3.276   6.668  0.5840  0.8449 -0.1069
   29SAPC    HS 3837   4.288   3.379   6.660 -0.9939  0.2888  0.0189
   29SAPC   O21 3838   4.426   3.276   6.764 -0.3881  0.0556 -0.2459
   29SAPC   C21 3839   4.389   3.335   6.878  0.5853 -0.6193 -0.2850
   29SAPC   O22 3840   4.292   3.410   6.889  0.1701  0.7416  0.1392
   29SAPC   C22 3841   4.490   3.302   6.988  0.0741 -0.0881 -0.0464
   29SAPC   H2R 3842   4.513   3.194   6.982  0.8846  0.1440 -1.9377
   29SAPC   H2S 3843   4.585   3.351   6.956 -0.6775  1.2136 -0.3463
   29SAPC    C3 3844   4.222   3.168   6.710 -0.1188  0.8726  0.9569
   29SAPC    HX 3845   4.134   3.167   6.642 -0.3637  0.1365  1.2724
   29SAPC    HY 3846   4.169   3.188   6.806 -1.4760  1.6068  0.0875
   29SAPC   O31 3847   4.283   3.034   6.711  0.1579  0.0617  0.1977
   29SAPC   C31 3848   4.309   2.987   6.837  0.2375 -0.2703  0.0424
   29SAPC   O32 3849   4.302   3.046   6.943 -0.7037 -0.0181  0.6069
   29SAPC   C32 3850   4.359   2.845   6.828 -0.1149 -0.0795 -0.2665
   29SAPC   H2X 3851   4.417   2.840   6.733  0.5462 -0.8941  0.1576
   29SAPC   H2Y 3852   4.267   2.783   6.827 -1.4203  1.7375  1.2843
   29SAPC   C23 3853   4.450   3.340   7.127  0.0746 -1.3621 -0.2905
   29SAPC   H3R 3854   4.367   3.272   7.158 -1.0133 -1.5000 -3.1572
   29SAPC   H3S 3855   4.413   3.445   7.129  0.2369 -1.3070  1.6296
   29SAPC   C24 3856   4.572   3.344   7.229 -0.2397  0.3793  0.0416
   29SAPC   H4R 3857   4.543   3.398   7.322 -2.7902  1.4506 -1.2831
   29SAPC   H4S 3858   4.649   3.413   7.188 -0.1615  0.4373  0.2815
   29SAPC   C25 3859   4.627   3.203   7.260  0.1695 -0.1256  0.3304
   29SAPC   H5R 3860   4.690   3.162   7.179  1.8311  0.3203  1.3329
   29SAPC   C26 3861   4.625   3.132   7.375 -0.0486  0.8202  0.1786
   29SAPC   H6R 3862   4.668   3.031   7.369  0.3180  0.9765  0.1445
   29SAPC   C27 3863   4.558   3.158   7.511 -0.4027 -0.5764 -0.0222
   29SAPC   H7R 3864   4.472   3.090   7.531 -0.7997  0.3400  1.6085
   29SAPC   H7S 3865   4.507   3.256   7.505 -0.0400  0.2856  5.4020
   29SAPC   C28 3866   4.642   3.173   7.636  0.8114  0.3057  0.6276
   29SAPC   H8R 3867   4.709   3.260   7.632  0.6104  0.4574  0.5458
   29SAPC   C29 3868   4.635   3.103   7.751 -0.2176  0.0458 -0.3874
   29SAPC   H9R 3869   4.699   3.120   7.838 -0.7876 -1.2072  0.2980
   29SAPC  C210 3870   4.542   2.981   7.773 -0.1819 -0.1932 -0.6074
   29SAPC  H10R 3871   4.440   3.005   7.738 -0.4404 -0.6734 -0.1939
   29SAPC  H10S 3872   4.544   2.953   7.880 -1.5360 -0.0773 -0.5303
   29SAPC  C211 3873   4.594   2.864   7.699  0.9566  0.2792  0.1970
   29SAPC  H11R 3874   4.616   2.888   7.594 -0.6552  1.1800  0.0288
   29SAPC  C212 3875   4.590   2.735   7.740  0.4671 -1.2289 -0.1419
   29SAPC  H12R 3876   4.617   2.658   7.665  1.8858 -0.2894 -0.6361
   29SAPC  C213 3877   4.536   2.682   7.871 -0.0667  0.4270  0.3466
   29SAPC  H13R 3878   4.614   2.714   7.944  0.3833 -0.6259  0.3432
   29SAPC  H13S 3879   4.551   2.572   7.873  1.0494  0.5686  1.9080
   29SAPC  C214 3880   4.397   2.719   7.915  0.2117  0.2623 -0.6814
   29SAPC  H14R 3881   4.310   2.702   7.850  0.0130 -0.8745 -0.1474
   29SAPC  C215 3882   4.362   2.758   8.045  0.3891  0.6948  0.3730
   29SAPC  H15R 3883   4.254   2.769   8.062  0.1819 -1.0799  0.3839
   29SAPC  C216 3884   4.453   2.787   8.159 -0.4674  0.3723 -0.2827
   29SAPC  H16R 3885   4.420   2.868   8.227  0.1097 -0.2819  0.8027
   29SAPC  H16S 3886   4.557   2.807   8.127  1.1141 -1.9759  2.8407
   29SAPC  C217 3887   4.463   2.661   8.249  0.5435 -0.5201  0.0239
   29SAPC  H17R 3888   4.462   2.566   8.192  0.0454 -0.4281 -0.1279
   29SAPC  H17S 3889   4.372   2.649   8.311  0.9893  2.4092  1.4053
   29SAPC  C218 3890   4.593   2.663   8.333 -0.0103 -0.1425 -0.5219
   29SAPC  H18R 3891   4.679   2.685   8.266 -0.7033  2.8559 -0.5949
   29SAPC  H18S 3892   4.597   2.570   8.394 -1.0938  0.2198  0.1273
   29SAPC  C219 3893   4.594   2.766   8.451 -0.0975  0.2094  0.2681
   29SAPC  H19R 3894   4.545   2.857   8.410 -1.4475 -1.0298 -0.9973
   29SAPC  H19S 3895   4.700   2.782   8.483 -1.0802  1.6010  3.1963
   29SAPC  C220 3896   4.511   2.711   8.570 -0.5546  0.3116 -0.3868
   29SAPC  H20R 3897   4.435   2.636   8.539  0.6076 -0.2495 -1.9940
   29SAPC  H20S 3898   4.455   2.788   8.628 -0.8167  0.9852 -1.5074
   29SAPC  H20T 3899   4.578   2.657   8.640 -1.8131  1.2174  1.5864
   29SAPC   C33 3900   4.454   2.798   6.938  0.1757 -0.2051  0.0561
   29SAPC   H3X 3901   4.463   2.687   6.932 -0.0729 -0.1642 -1.4421
   29SAPC   H3Y 3902   4.411   2.832   7.034 -0.3429  1.4918 -0.7360
   29SAPC   C34 3903   4.594   2.863   6.923  0.2755 -0.2283  0.8876
   29SAPC   H4X 3904   4.584   2.971   6.947 -0.2199 -0.3749  1.3754
   29SAPC   H4Y 3905   4.631   2.857   6.819  0.3107 -0.4311  0.9103
   29SAPC   C35 3906   4.688   2.785   7.018  0.0732 -0.6376 -0.2944
   29SAPC   H5X 3907   4.790   2.806   6.979 -0.5082  4.3594  0.2351
   29SAPC   H5Y 3908   4.674   2.675   7.013 -0.8963 -0.4853 -1.4081
   29SAPC   C36 3909   4.684   2.835   7.161  0.6472  0.4153  0.1342
   29SAPC   H6X 3910   4.585   2.864   7.201  1.3244  1.7010  0.9787
   29SAPC   H6Y 3911   4.744   2.929   7.162 -1.2794  1.7255 -1.5468
   29SAPC   C37 3912   4.751   2.739   7.259 -0.9103  0.7217  0.7054
   29SAPC   H7X 3913   4.806   2.787   7.343 -1.4670  0.2343  1.3517
   29SAPC   H7Y 3914   4.833   2.687   7.204 -0.1745  0.0471  2.3657
   29SAPC   C38 3915   4.661   2.644   7.321  0.1616 -0.1296  0.1079
   29SAPC   H8X 3916   4.615   2.587   7.238  0.4395 -0.6185  0.2826
   29SAPC   H8Y 3917   4.585   2.701   7.379  0.4562  1.4238 -0.9629
   29SAPC   C39 3918   4.744   2.561   7.412 -0.6748 -0.3307 -0.2156
   29SAPC   H9X 3919   4.764   2.625   7.501  0.3481  0.7287 -1.1742
   29SAPC   H9Y 3920   4.844   2.539   7.368 -0.6590 -0.4494 -0.1224
   29SAPC  C310 3921   4.682   2.424   7.457 -0.3613 -0.1990 -0.0403
   29SAPC  H10X 3922   4.655   2.366   7.367 -0.4855  0.0797 -0.1844
   29SAPC  H10Y 3923   4.584   2.438   7.507 -0.5179  0.4792 -0.5241
   29SAPC  C311 3924   4.776   2.357   7.562 -0.5052  0.2945  0.2599
   29SAPC  H11X 3925   4.803   2.418   7.652 -0.0578  0.0097  0.3197
   29SAPC  H11Y 3926   4.877   2.349   7.516 -0.1009  0.1504  1.1505
   29SAPC  C312 3927   4.739   2.219   7.612  0.0676 -0.5767  0.3715
   29SAPC  H12X 3928   4.810   2.186   7.692  1.1890 -1.8198 -1.0863
   29SAPC  H12Y 3929   4.736   2.142   7.532  1.1743 -0.5614  0.2998
   29SAPC  C313 3930   4.601   2.211   7.686  0.7307 -0.2084  0.2654
   29SAPC  H13X 3931   4.527   2.240   7.608  1.3755  1.6602  0.3055
   29SAPC  H13Y 3932   4.617   2.296   7.756 -0.3872  0.5127 -0.3178
   29SAPC  C314 3933   4.574   2.078   7.749 -0.3770  0.1212 -0.3613
   29SAPC  H14X 3934   4.657   2.059   7.820  0.7205  0.0764 -1.6005
   29SAPC  H14Y 3935   4.576   1.997   7.673  1.0256  0.0579 -0.2886
   29SAPC  C315 3936   4.451   2.062   7.827  0.6171  0.8940 -0.1539
   29SAPC  H15X 3937   4.369   2.094   7.760  1.3620 -1.6587 -2.4760
   29SAPC  H15Y 3938   4.454   2.124   7.919 -1.1472 -0.9437  1.2432
   29SAPC  C316 3939   4.431   1.910   7.860 -0.3092  0.1414 -0.4877
   29SAPC  H16X 3940   4.519   1.858   7.905 -0.3071  0.8563  0.3568
   29SAPC  H16Y 3941   4.419   1.844   7.771  3.4707 -3.3804  1.2588
   29SAPC  C317 3942   4.314   1.886   7.958  0.6222  0.0788 -0.1400
   29SAPC  H17X 3943   4.218   1.911   7.908  0.9199 -0.6542 -1.1019
   29SAPC  H17Y 3944   4.335   1.952   8.044  0.6815  0.0249 -0.1129
   29SAPC  C318 3945   4.313   1.740   8.011 -0.1908  0.3422 -0.3322
   29SAPC  H18X 3946   4.256   1.664   7.953  1.7425 -0.6832 -0.9910
   29SAPC  H18Y 3947   4.280   1.743   8.117  0.0542 -0.9658 -0.2058
   29SAPC  H18Z 3948   4.420   1.710   8.009 -0.3257 -0.1494 -1.7359
   30SAPC     N 3949   5.649   1.820   6.534 -0.5676 -0.4927  0.1785
   30SAPC   C12 3950   5.730   1.721   6.458  0.0328  0.1038  0.1056
   30SAPC  H12A 3951   5.694   1.698   6.359  0.6590 -0.6869  0.0569
   30SAPC  H12B 3952   5.732   1.627   6.511 -1.2569  0.3392  0.6365
   30SAPC   C13 3953   5.516   1.763   6.554 -0.4217  0.1829 -0.0847
   30SAPC  H13A 3954   5.526   1.677   6.619  0.3196 -0.4001 -0.9358
   30SAPC  H13B 3955   5.451   1.834   6.602  0.8701  2.3866 -1.4005
   30SAPC  H13C 3956   5.459   1.742   6.465  0.7397 -1.0814 -0.5696
   30SAPC   C14 3957   5.706   1.845   6.668 -0.1034 -0.4356  0.2419
   30SAPC  H14A 3958   5.722   1.752   6.721  0.4807 -1.2239 -1.2832
   30SAPC  H14B 3959   5.801   1.896   6.664 -0.7150  0.8040  1.0964
   30SAPC  H14C 3960   5.643   1.907   6.729  1.2426 -0.8280  2.1406
   30SAPC   C15 3961   5.639   1.950   6.460  0.4873 -0.5060 -0.4804
   30SAPC  H15A 3962   5.737   1.996   6.455 -0.5677  2.0939  0.5072
   30SAPC  H15B 3963   5.588   1.934   6.366 -0.3753 -1.8108  0.1754
   30SAPC  H15C 3964   5.576   2.018   6.515  1.2038 -0.5368  0.4030
   30SAPC   C11 3965   5.878   1.755   6.443  0.3734  0.3339  0.0135
   30SAPC  H11A 3966   5.939   1.663   6.432  0.5321  0.4857 -0.4144
   30SAPC  H11B 3967   5.922   1.785   6.541  0.5012  2.7742 -0.7130
   30SAPC     P 3968   5.869   1.831   6.200  0.2515  0.0785 -0.1360
   30SAPC   O13 3969   5.975   1.747   6.133  0.7912 -0.0404  0.0993
   30SAPC   O14 3970   5.727   1.790   6.183 -0.6202 -0.0809  0.7234
   30SAPC   O12 3971   5.900   1.857   6.353  0.2121 -0.1405  0.2668
   30SAPC   O11 3972   5.882   1.976   6.147 -0.5377  0.5650 -0.1361
   30SAPC    C1 3973   5.964   2.082   6.194  0.2671 -0.0204 -0.0716
   30SAPC    HA 3974   6.063   2.052   6.233  1.7686  1.2509 -2.6333
   30SAPC    HB 3975   5.992   2.151   6.111  0.6097 -1.1142 -0.8934
   30SAPC    C2 3976   5.896   2.182   6.297 -0.2998 -0.0304 -0.2181
   30SAPC    HS 3977   5.958   2.273   6.300  1.4560 -1.1719 -0.3274
   30SAPC   O21 3978   5.904   2.121   6.430  0.1428 -0.6140  0.2848
   30SAPC   C21 3979   6.016   2.142   6.493  0.7360  0.2446  0.1686
   30SAPC   O22 3980   6.112   2.198   6.450  0.0358 -0.4748 -0.2116
   30SAPC   C22 3981   6.007   2.079   6.631  0.5246  0.4982 -0.4711
   30SAPC   H2R 3982   5.921   2.126   6.685 -0.2025  2.5079 -3.1779
   30SAPC   H2S 3983   5.999   1.969   6.617  0.0380  0.4734 -0.0396
   30SAPC    C3 3984   5.750   2.214   6.259  0.0896 -0.0278  0.6920
   30SAPC    HX 3985   5.680   2.128   6.259  0.4182 -0.2998  0.0948
   30SAPC    HY 3986   5.749   2.244   6.152  2.1784  1.6653  1.0618
   30SAPC   O31 3987   5.695   2.318   6.337  0.7314 -0.0740  0.0318
   30SAPC   C31 3988   5.723   2.442   6.302 -0.6245  0.1288  0.0265
   30SAPC   O32 3989   5.778   2.480   6.200 -0.0226 -0.1321  0.2874
   30SAPC   C32 3990   5.666   2.540   6.406  0.6343  0.0459 -0.7426
   30SAPC   H2X 3991   5.604   2.487   6.481  0.4456 -0.9973 -1.6055
   30SAPC   H2Y 3992   5.591   2.600   6.350  0.2432 -0.1903 -0.4754
   30SAPC   C23 3993   6.142   2.092   6.709 -0.2212  0.1738 -0.5734
   30SAPC   H3R 3994   6.176   2.198   6.719 -1.0265  0.3157  1.1084
   30SAPC   H3S 3995   6.223   2.052   6.645  0.9199  2.4887 -0.6747
   30SAPC   C24 3996   6.153   2.016   6.847 -0.1049 -0.1311  0.5138
   30SAPC   H4R 3997   6.132   1.908   6.830 -1.0232 -0.3885  2.8596
   30SAPC   H4S 3998   6.076   2.052   6.918 -1.2443 -1.2972 -0.0943
   30SAPC   C25 3999   6.291   2.023   6.911  0.4977 -0.5705  0.0053
   30SAPC   H5R 4000   6.368   2.017   6.833 -0.6541  1.0923 -1.3331
   30SAPC   C26 4001   6.321   2.028   7.043 -0.6922  0.4552  0.9472
   30SAPC   H6R 4002   6.428   2.019   7.065 -0.2331 -0.6426 -1.4044
   30SAPC   C27 4003   6.232   2.034   7.165  0.1690  0.3796 -0.3472
   30SAPC   H7R 4004   6.126   2.028   7.131  0.6173  0.2152 -1.7950
   30SAPC   H7S 4005   6.251   2.130   7.218 -1.0397  1.3746 -1.6420
   30SAPC   C28 4006   6.262   1.917   7.256 -0.3857 -0.0005 -0.3399
   30SAPC   H8R 4007   6.208   1.827   7.226  1.9649 -0.4457 -3.8732
   30SAPC   C29 4008   6.315   1.922   7.376 -0.6556 -0.6170  0.2955
   30SAPC   H9R 4009   6.325   1.828   7.432 -1.2023 -1.9179 -1.6737
   30SAPC  C210 4010   6.349   2.053   7.447  0.1005  0.0546 -0.7396
   30SAPC  H10R 4011   6.255   2.110   7.465  0.1112 -0.1703  0.0490
   30SAPC  H10S 4012   6.399   2.113   7.368 -0.2675  1.4488  0.0497
   30SAPC  C211 4013   6.439   2.035   7.568  0.5958 -0.8396 -0.1025
   30SAPC  H11R 4014   6.412   1.953   7.636  1.4352 -1.8623 -0.9749
   30SAPC  C212 4015   6.539   2.127   7.608  0.7894  0.4662 -0.2404
   30SAPC  H12R 4016   6.596   2.117   7.701  1.9118  3.5240 -0.4908
   30SAPC  C213 4017   6.574   2.247   7.533 -0.9497 -1.2731 -0.5054
   30SAPC  H13R 4018   6.534   2.335   7.589 -0.6967 -1.2951 -0.2893
   30SAPC  H13S 4019   6.527   2.258   7.433 -1.4791  1.1778 -0.0554
   30SAPC  C214 4020   6.724   2.271   7.538 -0.2630 -0.5211  0.0071
   30SAPC  H14R 4021   6.759   2.298   7.639  0.2750  0.0164 -0.3168
   30SAPC  C215 4022   6.807   2.265   7.436 -0.6604  0.4237 -0.0309
   30SAPC  H15R 4023   6.916   2.268   7.453 -0.5804  1.7410 -0.6579
   30SAPC  C216 4024   6.755   2.218   7.301 -0.3174  0.4364 -0.2101
   30SAPC  H16R 4025   6.688   2.131   7.323  0.9483 -1.0473 -1.9648
   30SAPC  H16S 4026   6.837   2.160   7.254 -0.4069 -0.9027  1.1773
   30SAPC  C217 4027   6.708   2.323   7.199  0.4145  1.1881  0.3108
   30SAPC  H17R 4028   6.768   2.417   7.195  0.1117  1.3387 -2.6401
   30SAPC  H17S 4029   6.605   2.351   7.228  0.5541 -1.0241  3.5262
   30SAPC  C218 4030   6.706   2.252   7.066 -0.3835  1.0633 -0.4499
   30SAPC  H18R 4031   6.633   2.170   7.050  2.3058 -1.3649 -1.1520
   30SAPC  H18S 4032   6.801   2.199   7.042 -1.3893 -0.8746 -0.3955
   30SAPC  C219 4033   6.691   2.351   6.953  0.2666  0.8733  0.2898
   30SAPC  H19R 4034   6.763   2.430   6.984  1.1577 -0.5971  2.2093
   30SAPC  H19S 4035   6.588   2.392   6.967 -0.4165  0.4048 -2.7359
   30SAPC  C220 4036   6.735   2.302   6.810 -0.2484 -0.7756 -0.6666
   30SAPC  H20R 4037   6.727   2.389   6.741  1.6856 -0.5357 -0.6243
   30SAPC  H20S 4038   6.664   2.219   6.792  0.8515 -2.8393  3.2835
   30SAPC  H20T 4039   6.835   2.257   6.822  0.3110  0.1710 -1.6188
   30SAPC   C33 4040   5.795   2.614   6.466  0.5211  0.2755 -0.3556
   30SAPC   H3X 4041   5.775   2.710   6.518  0.9438 -0.8095  1.9099
   30SAPC   H3Y 4042   5.873   2.631   6.388  0.7112 -0.8122 -0.4182
   30SAPC   C34 4043   5.859   2.520   6.567 -0.5364  0.1835 -0.9398
   30SAPC   H4X 4044   5.963   2.556   6.582  0.9547 -2.5610 -3.5485
   30SAPC   H4Y 4045   5.876   2.413   6.543 -0.9021 -0.4984  1.5681
   30SAPC   C35 4046   5.784   2.524   6.704  0.3501  0.1886 -0.2555
   30SAPC   H5X 4047   5.688   2.470   6.700  0.6826 -0.6043  1.5455
   30SAPC   H5Y 4048   5.771   2.631   6.733 -1.8967 -0.1883  0.2459
   30SAPC   C36 4049   5.862   2.448   6.806  0.0435  0.6016 -0.6655
   30SAPC   H6X 4050   5.969   2.478   6.799 -0.0121  1.0855  0.3937
   30SAPC   H6Y 4051   5.869   2.343   6.769  0.1852  0.7051 -0.9310
   30SAPC   C37 4052   5.793   2.433   6.941 -0.1531  0.1367  0.2220
   30SAPC   H7X 4053   5.689   2.396   6.926  0.0026  0.2319 -1.2691
   30SAPC   H7Y 4054   5.790   2.533   6.991 -0.4343  0.7639 -1.0076
   30SAPC   C38 4055   5.873   2.342   7.039 -0.0523  0.4188 -0.1555
   30SAPC   H8X 4056   5.983   2.359   7.037 -0.1176  0.9506  0.4044
   30SAPC   H8Y 4057   5.860   2.246   6.986  0.5093  1.7028 -2.7806
   30SAPC   C39 4058   5.834   2.346   7.187 -0.0773  0.1629  0.5172
   30SAPC   H9X 4059   5.730   2.307   7.194 -0.8895  2.3254  1.3918
   30SAPC   H9Y 4060   5.832   2.448   7.230  1.8455  0.2737  0.4184
   30SAPC  C310 4061   5.925   2.264   7.276 -0.0405 -0.0141  0.2818
   30SAPC  H10X 4062   6.022   2.317   7.267 -0.1526  0.3776  1.2677
   30SAPC  H10Y 4063   5.946   2.161   7.239 -0.4351 -0.4131  1.1465
   30SAPC  C311 4064   5.883   2.239   7.425 -0.5697  0.2253  0.5533
   30SAPC  H11X 4065   5.795   2.173   7.440  0.0587 -0.4379  1.4321
   30SAPC  H11Y 4066   5.848   2.337   7.463 -0.7187  0.2179  0.4409
   30SAPC  C312 4067   5.991   2.186   7.522 -0.2502  0.0505 -0.0545
   30SAPC  H12X 4068   6.079   2.252   7.507  1.9980 -3.0346 -1.9736
   30SAPC  H12Y 4069   6.014   2.082   7.488 -0.7742  0.2458 -1.0597
   30SAPC  C313 4070   5.930   2.172   7.662 -0.5043  0.1106 -0.6379
   30SAPC  H13X 4071   5.844   2.103   7.653 -0.2825 -0.2193 -0.2535
   30SAPC  H13Y 4072   5.890   2.273   7.685  0.0459  0.6397 -1.8415
   30SAPC  C314 4073   6.019   2.115   7.776 -0.2460  0.8509 -0.5874
   30SAPC  H14X 4074   6.048   2.009   7.760 -1.1739  0.4168  0.4553
   30SAPC  H14Y 4075   5.951   2.111   7.864  1.7843  0.3468  1.0178
   30SAPC  C315 4076   6.145   2.198   7.812  0.4956  0.1351 -0.6171
   30SAPC  H15X 4077   6.117   2.301   7.844 -1.5323 -0.5901  0.1406
   30SAPC  H15Y 4078   6.194   2.206   7.713  1.9315  0.7011  0.1073
   30SAPC  C316 4079   6.244   2.130   7.903 -0.4136 -0.6327 -0.0006
   30SAPC  H16X 4080   6.323   2.209   7.900  0.5919 -1.5550  1.0762
   30SAPC  H16Y 4081   6.277   2.030   7.868 -1.6562 -0.1343 -2.9119
   30SAPC  C317 4082   6.198   2.140   8.051  0.3381 -0.1497  0.1478
   30SAPC  H17X 4083   6.289   2.106   8.105  0.5728  2.1592  1.3381
   30SAPC  H17Y 4084   6.111   2.072   8.064  0.0787  0.1080 -0.2422
   30SAPC  C318 4085   6.155   2.274   8.111  0.5097  0.4728  0.2303
   30SAPC  H18X 4086   6.050   2.295   8.082  1.1478  0.6711 -2.1393
   30SAPC  H18Y 4087   6.229   2.348   8.074  2.5118 -1.7949 -0.5609
   30SAPC  H18Z 4088   6.166   2.279   8.222  0.3889 -0.0179  0.2641
   31SAPC     N 4089   0.085   3.923   5.989 -0.3859  0.3974  0.6188
   31SAPC   C12 4090   0.074   3.943   6.143 -0.7184 -0.1277  0.1187
   31SAPC  H12A 4091   0.176   3.931   6.177 -0.5043  0.7275 -0.1862
   31SAPC  H12B 4092   0.025   3.853   6.179  0.5438 -0.6092  0.6898
   31SAPC   C13 4093   0.159   3.800   5.961  0.1646  0.7795  0.3920
   31SAPC  H13A 4094   0.151   3.770   5.858 -0.3806  0.2274  0.5840
   31SAPC  H13B 4095   0.264   3.825   5.965  0.2654  0.6670 -1.1608
   31SAPC  H13C 4096   0.132   3.706   6.007 -0.1148  0.8309  0.3307
   31SAPC   C14 4097  -0.049   3.911   5.939  1.0873 -0.0953  0.6086
   31SAPC  H14A 4098  -0.092   3.815   5.965 -3.4263  0.9745 -1.9740
   31SAPC  H14B 4099  -0.111   3.989   5.979  0.6581 -0.1535  0.0576
   31SAPC  H14C 4100  -0.058   3.935   5.835  2.6621 -0.9262  0.2429
   31SAPC   C15 4101   0.150   4.040   5.920 -0.0094  0.0202 -0.1149
   31SAPC  H15A 4102   0.146   4.042   5.812 -0.4382 -1.6388 -0.1599
   31SAPC  H15B 4103   0.101   4.127   5.960  0.2858  0.1166  0.0343
   31SAPC  H15C 4104   0.250   4.055   5.958 -0.3773  0.8043  0.5699
   31SAPC   C11 4105  -0.011   4.071   6.189 -0.3792  0.1755 -0.1925
   31SAPC  H11A 4106  -0.031   4.063   6.298  0.2644 -1.8251 -0.1735
   31SAPC  H11B 4107  -0.113   4.069   6.146 -1.2013 -1.7128  1.6564
   31SAPC     P 4108   0.189   4.236   6.208 -0.4209 -0.1166  0.0467
   31SAPC   O13 4109   0.290   4.123   6.215  0.4180 -0.8283 -0.5969
   31SAPC   O14 4110   0.229   4.361   6.141  0.0886  0.4050  0.4051
   31SAPC   O12 4111   0.058   4.190   6.149  0.0182 -0.5195  0.0438
   31SAPC   O11 4112   0.155   4.260   6.355  0.3958 -0.1586  0.1176
   31SAPC    C1 4113   0.137   4.384   6.423  0.3607  0.3425 -0.7665
   31SAPC    HA 4114   0.143   4.465   6.347 -0.6776 -0.0894 -1.3398
   31SAPC    HB 4115   0.033   4.401   6.458  0.0677  4.4937 -3.0336
   31SAPC    C2 4116   0.241   4.390   6.534  0.2048 -0.2932 -0.6163
   31SAPC    HS 4117   0.340   4.380   6.485  0.5528  0.8374 -0.1779
   31SAPC   O21 4118   0.220   4.278   6.618  0.0513  0.5936 -0.0540
   31SAPC   C21 4119   0.330   4.233   6.685  0.3969  0.2703  0.2385
   31SAPC   O22 4120   0.438   4.282   6.673 -0.3933  0.1171  0.2738
   31SAPC   C22 4121   0.303   4.124   6.782  0.2539  0.0788 -1.1933
   31SAPC   H2R 4122   0.279   4.031   6.728  1.2880  1.0657 -3.5042
   31SAPC   H2S 4123   0.400   4.110   6.836 -0.1555  3.3317  0.6373
   31SAPC    C3 4124   0.233   4.521   6.620 -0.1586 -0.7868 -0.4285
   31SAPC    HX 4125   0.131   4.521   6.664 -0.0238 -1.6931 -0.1024
   31SAPC    HY 4126   0.228   4.605   6.547 -1.0555 -0.5888 -0.1443
   31SAPC   O31 4127   0.334   4.528   6.727  0.0565  0.7379 -0.8092
   31SAPC   C31 4128   0.451   4.585   6.697  0.8081 -0.1867 -0.1527
   31SAPC   O32 4129   0.472   4.649   6.590  0.1693 -0.3310  0.3356
   31SAPC   C32 4130   0.545   4.562   6.809  0.6661  0.7272  0.4980
   31SAPC   H2X 4131   0.641   4.615   6.788 -0.0273  1.6392 -0.4766
   31SAPC   H2Y 4132   0.574   4.455   6.805  0.3779  0.6576 -2.5560
   31SAPC   C23 4133   0.202   4.152   6.893 -0.7153  0.0453 -0.5866
   31SAPC   H3R 4134   0.207   4.072   6.970 -1.0155  1.6599  1.1838
   31SAPC   H3S 4135   0.107   4.151   6.835  0.5915  0.4582 -2.8641
   31SAPC   C24 4136   0.210   4.300   6.962  0.4772 -0.7943  1.2775
   31SAPC   H4R 4137   0.197   4.373   6.880 -1.5444 -1.8819  0.5694
   31SAPC   H4S 4138   0.313   4.318   6.998  0.6209 -1.6791  1.3454
   31SAPC   C25 4139   0.105   4.311   7.069 -0.3948 -0.1347 -0.0239
   31SAPC   H5R 4140   0.013   4.364   7.041 -1.2854 -0.5863  1.8521
   31SAPC   C26 4141   0.111   4.262   7.193  0.1726 -0.1892  0.2830
   31SAPC   H6R 4142   0.031   4.280   7.266 -0.6082  0.9410 -0.8111
   31SAPC   C27 4143   0.231   4.186   7.246 -0.0982 -0.0863 -0.0344
   31SAPC   H7R 4144   0.263   4.270   7.310 -1.8770  1.1059 -0.6287
   31SAPC   H7S 4145   0.306   4.161   7.169 -0.0075  1.2658 -0.3949
   31SAPC   C28 4146   0.165   4.067   7.327  0.2581 -0.0094 -0.5607
   31SAPC   H8R 4147   0.130   3.991   7.256  2.1855 -2.5499  1.0687
   31SAPC   C29 4148   0.144   4.049   7.460 -0.5591 -0.7316  0.3157
   31SAPC   H9R 4149   0.097   3.958   7.499 -2.5119 -0.8748 -2.1667
   31SAPC  C210 4150   0.179   4.154   7.558  0.6682 -0.4232 -0.0627
   31SAPC  H10R 4151   0.086   4.213   7.569 -0.2555 -1.3953 -2.1646
   31SAPC  H10S 4152   0.259   4.225   7.529  0.4374 -0.1529 -0.0411
   31SAPC  C211 4153   0.208   4.106   7.699  0.2536  0.6046  0.0062
   31SAPC  H11R 4154   0.208   3.996   7.708  0.8158  0.2671 -3.1712
   31SAPC  C212 4155   0.242   4.173   7.811  0.0702  0.5490  0.1254
   31SAPC  H12R 4156   0.259   4.112   7.901  0.3020  0.4389  0.0067
   31SAPC  C213 4157   0.252   4.321   7.836  0.5915 -0.2888  0.0584
   31SAPC  H13R 4158   0.245   4.377   7.741  0.9838  4.1093  2.3441
   31SAPC  H13S 4159   0.349   4.338   7.887  1.0359  0.7974 -1.1076
   31SAPC  C214 4160   0.138   4.362   7.928 -0.4997  0.3590  0.5969
   31SAPC  H14R 4161   0.056   4.298   7.963 -0.5705  1.1062  1.8627
   31SAPC  C215 4162   0.138   4.478   7.985 -0.2825  0.0754  0.5957
   31SAPC  H15R 4163   0.044   4.500   8.039 -0.1222 -1.2900  1.4946
   31SAPC  C216 4164   0.237   4.595   7.964  0.0173  0.1943 -0.9370
   31SAPC  H16R 4165   0.272   4.598   7.858 -0.7890  1.1392 -1.1938
   31SAPC  H16S 4166   0.327   4.577   8.026  0.4722  2.0081 -1.0317
   31SAPC  C217 4167   0.174   4.731   7.996 -0.6145  0.2323 -0.9550
   31SAPC  H17R 4168   0.081   4.747   7.936  0.7961 -0.5578 -3.5185
   31SAPC  H17S 4169   0.254   4.798   7.959  0.7759 -0.2324  1.0433
   31SAPC  C218 4170   0.150   4.745   8.148 -0.3660 -0.1341  0.5987
   31SAPC  H18R 4171   0.245   4.731   8.203 -1.3373 -0.8582  2.1673
   31SAPC  H18S 4172   0.093   4.657   8.185 -0.0521 -0.3749  0.5107
   31SAPC  C219 4173   0.081   4.883   8.184 -0.1197  0.6130  0.2558
   31SAPC  H19R 4174   0.024   4.919   8.095  3.7523  0.5712 -2.5143
   31SAPC  H19S 4175   0.161   4.958   8.202 -0.1534  0.6548  0.2329
   31SAPC  C220 4176  -0.021   4.868   8.300 -0.0127 -0.0922 -0.5309
   31SAPC  H20R 4177  -0.108   4.802   8.277 -0.7468  0.6528  0.0655
   31SAPC  H20S 4178  -0.063   4.965   8.331 -0.4806 -0.3554 -0.3320
   31SAPC  H20T 4179   0.032   4.820   8.385 -2.9368 -1.1253  0.8572
   31SAPC   C33 4180   0.491   4.586   6.956 -0.3784 -0.2838 -0.1462
   31SAPC   H3X 4181   0.394   4.533   6.962 -0.9381  0.5663 -1.2010
   31SAPC   H3Y 4182   0.487   4.697   6.966  3.1927  0.0720 -1.2281
   31SAPC   C34 4183   0.585   4.515   7.059  0.6673 -0.3859  0.4213
   31SAPC   H4X 4184   0.661   4.589   7.091 -0.0327  0.1284  0.9409
   31SAPC   H4Y 4185   0.646   4.434   7.015  0.1806  0.0903 -1.2128
   31SAPC   C35 4186   0.523   4.462   7.184 -0.1386  0.1030  0.0956
   31SAPC   H5X 4187   0.444   4.390   7.154  1.1247 -0.8490 -1.1153
   31SAPC   H5Y 4188   0.482   4.550   7.239  3.2746 -0.9138  4.9818
   31SAPC   C36 4189   0.633   4.404   7.271 -0.3214 -0.5213  0.3235
   31SAPC   H6X 4190   0.718   4.475   7.282  0.2928 -1.0642 -0.7459
   31SAPC   H6Y 4191   0.658   4.311   7.214 -0.2454 -1.7955  2.3467
   31SAPC   C37 4192   0.579   4.372   7.418  0.4907 -1.0326  0.0187
   31SAPC   H7X 4193   0.497   4.298   7.413 -0.6703  0.1270  1.2250
   31SAPC   H7Y 4194   0.541   4.469   7.458 -0.8341 -0.3031 -2.7360
   31SAPC   C38 4195   0.677   4.322   7.524 -0.2147 -0.6245  0.1326
   31SAPC   H8X 4196   0.758   4.399   7.524 -2.8706  2.4150  1.1130
   31SAPC   H8Y 4197   0.714   4.218   7.511 -3.5064 -2.0804  1.3357
   31SAPC   C39 4198   0.612   4.319   7.664  0.0447  0.6702 -0.3818
   31SAPC   H9X 4199   0.523   4.256   7.642  0.1290  0.4728 -0.1608
   31SAPC   H9Y 4200   0.580   4.423   7.686  1.5898  1.6197 -2.2242
   31SAPC  C310 4201   0.697   4.256   7.768 -0.4730 -0.3367 -0.6918
   31SAPC  H10X 4202   0.786   4.322   7.774  0.0628 -1.1248  0.3785
   31SAPC  H10Y 4203   0.731   4.153   7.742  2.4848  0.1420  0.7901
   31SAPC  C311 4204   0.638   4.232   7.906  0.4718  0.4451 -0.0572
   31SAPC  H11X 4205   0.569   4.145   7.904  2.2806 -1.0817  0.5511
   31SAPC  H11Y 4206   0.584   4.322   7.943  1.1648  0.8186  0.0511
   31SAPC  C312 4207   0.735   4.183   8.016  0.2663 -0.1064 -0.1749
   31SAPC  H12X 4208   0.840   4.180   7.979  0.1712 -0.8058 -0.3983
   31SAPC  H12Y 4209   0.711   4.078   8.043 -0.3329  0.1470  0.2972
   31SAPC  C313 4210   0.726   4.252   8.153 -0.1761  0.1360 -0.7610
   31SAPC  H13X 4211   0.659   4.341   8.153  2.3842  2.2589  1.2949
   31SAPC  H13Y 4212   0.830   4.289   8.168  0.1274 -1.0990  0.3843
   31SAPC  C314 4213   0.694   4.159   8.266 -0.0070 -0.6704  0.1237
   31SAPC  H14X 4214   0.694   4.212   8.363 -1.3694 -0.2191 -0.1097
   31SAPC  H14Y 4215   0.766   4.074   8.265  0.8381  0.0116 -1.3213
   31SAPC  C315 4216   0.552   4.100   8.262 -0.7805  0.5633 -0.1690
   31SAPC  H15X 4217   0.531   4.059   8.363 -0.0076  0.6992  0.0468
   31SAPC  H15Y 4218   0.558   4.011   8.196 -0.6422  0.3544  0.1228
   31SAPC  C316 4219   0.436   4.192   8.210  0.2364  0.4912  0.7665
   31SAPC  H16X 4220   0.427   4.190   8.099  2.2834 -1.4589  0.5654
   31SAPC  H16Y 4221   0.455   4.297   8.241  0.0469  0.7172  0.1303
   31SAPC  C317 4222   0.294   4.158   8.265 -0.8506  0.0211 -0.1932
   31SAPC  H17X 4223   0.219   4.233   8.230 -0.7881  0.2435  0.1426
   31SAPC  H17Y 4224   0.291   4.168   8.376  1.3159  1.1546 -0.1890
   31SAPC  C318 4225   0.242   4.019   8.224 -0.7314 -0.9052  0.8835
   31SAPC  H18X 4226   0.255   4.007   8.114 -1.4284  3.8685  0.0483
   31SAPC  H18Y 4227   0.136   4.014   8.259 -0.6907  0.8977  1.3670
   31SAPC  H18Z 4228   0.303   3.938   8.269  0.9242  1.3293  2.9161
   32SAPC     N 4229   2.296   0.594   5.989 -0.1285  0.2845 -1.0552
   32SAPC   C12 4230   2.336   0.501   6.109 -0.5736 -0.3826  0.2927
   32SAPC  H12A 4231   2.416   0.439   6.073  1.0644  1.2821  0.8676
   32SAPC  H12B 4232   2.254   0.433   6.125 -0.8807  0.0063  0.4091
   32SAPC   C13 4233   2.407   0.684   5.949  0.6378  0.9995 -0.6854
   32SAPC  H13A 4234   2.436   0.746   6.032 -1.6630  0.9454  0.2323
   32SAPC  H13B 4235   2.493   0.625   5.922  0.6245  0.7126 -0.1100
   32SAPC  H13C 4236   2.378   0.760   5.877  0.9469  2.0218  0.2438
   32SAPC   C14 4237   2.255   0.507   5.868  0.4049 -0.4223 -0.4782
   32SAPC  H14A 4238   2.161   0.460   5.893  0.9149 -0.5987  1.2189
   32SAPC  H14B 4239   2.240   0.574   5.785  4.0125 -0.3522 -1.2578
   32SAPC  H14C 4240   2.326   0.428   5.845  0.2624 -0.8841  0.6240
   32SAPC   C15 4241   2.175   0.672   6.034 -0.5675  0.1140  0.3084
   32SAPC  H15A 4242   2.119   0.701   5.946  2.3503  0.4136 -1.5914
   32SAPC  H15B 4243   2.101   0.612   6.084 -1.0350  0.3135 -0.1358
   32SAPC  H15C 4244   2.205   0.755   6.097  0.6533 -0.5008  0.5779
   32SAPC   C11 4245   2.406   0.550   6.245  0.0446  0.0860  0.3301
   32SAPC  H11A 4246   2.424   0.468   6.317 -3.1715  1.0920  2.4939
   32SAPC  H11B 4247   2.332   0.615   6.296  2.5094  1.2723  2.6613
   32SAPC     P 4248   2.678   0.577   6.227 -0.0905 -0.0541 -0.5132
   32SAPC   O13 4249   2.698   0.450   6.148 -0.3739 -0.6379 -0.9122
   32SAPC   O14 4250   2.758   0.694   6.189  0.3298  0.3469 -0.0540
   32SAPC   O12 4251   2.525   0.624   6.224 -0.2695 -0.1664  0.1615
   32SAPC   O11 4252   2.705   0.535   6.385  0.2704  0.3484 -0.1030
   32SAPC    C1 4253   2.660   0.622   6.488 -0.2597  0.5050 -0.4017
   32SAPC    HA 4254   2.551   0.641   6.482 -0.2841  0.1355 -1.2898
   32SAPC    HB 4255   2.676   0.563   6.581  0.1308 -0.0184 -0.7925
   32SAPC    C2 4256   2.745   0.755   6.502  0.6982  0.1024 -0.1262
   32SAPC    HS 4257   2.724   0.821   6.416  1.9150  0.5907 -0.0721
   32SAPC   O21 4258   2.882   0.708   6.516  0.1611 -0.1986  0.4963
   32SAPC   C21 4259   2.967   0.810   6.506 -0.1552 -0.2760  0.3027
   32SAPC   O22 4260   2.935   0.928   6.497  0.1124 -0.2647  0.3146
   32SAPC   C22 4261   3.110   0.754   6.517  0.9392  0.1158 -0.6381
   32SAPC   H2R 4262   3.108   0.644   6.502 -0.0688  0.2545 -1.5847
   32SAPC   H2S 4263   3.172   0.801   6.437 -2.0748  1.5788 -2.2911
   32SAPC    C3 4264   2.694   0.823   6.640 -0.4204  0.2526  0.1280
   32SAPC    HX 4265   2.749   0.918   6.660 -0.5721  0.5494 -0.7979
   32SAPC    HY 4266   2.722   0.754   6.722 -1.0385  0.5616  0.6070
   32SAPC   O31 4267   2.553   0.835   6.629 -0.0272 -0.0542 -0.7014
   32SAPC   C31 4268   2.510   0.950   6.572 -0.4957 -0.0478 -0.7705
   32SAPC   O32 4269   2.586   1.036   6.531  0.4249 -0.1135  0.1844
   32SAPC   C32 4270   2.357   0.943   6.557 -0.1249 -0.0296  0.6064
   32SAPC   H2X 4271   2.325   0.837   6.555 -2.3510  0.5905  1.0126
   32SAPC   H2Y 4272   2.333   0.985   6.457  1.2951  0.7499  0.5572
   32SAPC   C23 4273   3.182   0.781   6.655  0.5497 -0.5687  0.4252
   32SAPC   H3R 4274   3.173   0.891   6.669  0.2212 -0.6446  0.8217
   32SAPC   H3S 4275   3.285   0.743   6.640  0.1141 -1.3075 -0.8041
   32SAPC   C24 4276   3.125   0.708   6.783  0.2208 -0.6295 -0.5488
   32SAPC   H4R 4277   3.016   0.729   6.790  0.5716  1.4679 -0.6108
   32SAPC   H4S 4278   3.178   0.756   6.869  0.2264 -0.6699 -0.5295
   32SAPC   C25 4279   3.169   0.566   6.786  0.0021  0.3870 -0.0961
   32SAPC   H5R 4280   3.136   0.506   6.700  0.3613 -0.7297  0.5325
   32SAPC   C26 4281   3.249   0.510   6.877  0.4995  0.5045 -0.2031
   32SAPC   H6R 4282   3.275   0.404   6.864 -3.6009 -0.4313 -2.4191
   32SAPC   C27 4283   3.325   0.582   6.989 -0.1195  1.0325  0.6342
   32SAPC   H7R 4284   3.367   0.677   6.950  0.9666 -0.1287 -1.1724
   32SAPC   H7S 4285   3.414   0.520   7.015  0.1403  0.6396 -1.0924
   32SAPC   C28 4286   3.239   0.593   7.111  0.4343  0.0289 -0.4754
   32SAPC   H8R 4287   3.141   0.639   7.092  0.1303 -1.1843 -2.0479
   32SAPC   C29 4288   3.266   0.538   7.230  0.4001 -0.0080 -1.1219
   32SAPC   H9R 4289   3.204   0.560   7.317  0.1347  0.8390 -1.5087
   32SAPC  C210 4290   3.398   0.460   7.261  0.1631 -0.5833  0.6546
   32SAPC  H10R 4291   3.482   0.532   7.269 -0.3155  0.6847 -3.2692
   32SAPC  H10S 4292   3.435   0.404   7.172  1.8958  2.0394 -0.4153
   32SAPC  C211 4293   3.389   0.369   7.383  0.3421 -0.3658 -1.1932
   32SAPC  H11R 4294   3.377   0.261   7.373 -0.1651 -0.4867  0.3965
   32SAPC  C212 4295   3.372   0.417   7.509  0.5160  0.0507  0.1988
   32SAPC  H12R 4296   3.374   0.338   7.586  0.5612 -0.4265 -0.2895
   32SAPC  C213 4297   3.364   0.554   7.574 -0.1039 -0.4411  0.3088
   32SAPC  H13R 4298   3.285   0.556   7.652 -1.0664  1.5561 -0.6117
   32SAPC  H13S 4299   3.336   0.626   7.494  3.4508 -1.0882 -1.7334
   32SAPC  C214 4300   3.501   0.583   7.635  0.5464  0.6072  0.3447
   32SAPC  H14R 4301   3.574   0.614   7.558 -0.1805  1.3024 -0.0813
   32SAPC  C215 4302   3.527   0.586   7.764 -0.3862 -0.4462  0.0107
   32SAPC  H15R 4303   3.625   0.621   7.799 -0.6649  2.8385 -2.0729
   32SAPC  C216 4304   3.439   0.558   7.887  0.1511  0.3588 -0.2814
   32SAPC  H16R 4305   3.499   0.532   7.977 -0.8640  0.4369  0.4351
   32SAPC  H16S 4306   3.377   0.467   7.874 -0.1690  0.6945 -1.1538
   32SAPC  C217 4307   3.347   0.675   7.915  0.7800  0.2917  0.2588
   32SAPC  H17R 4308   3.286   0.696   7.824 -0.7148 -3.0823  0.3488
   32SAPC  H17S 4309   3.415   0.759   7.940  2.8850 -1.2586  0.0451
   32SAPC  C218 4310   3.247   0.652   8.032 -0.3739 -0.3835  0.4236
   32SAPC  H18R 4311   3.181   0.563   8.017 -0.2482 -0.0698 -2.6897
   32SAPC  H18S 4312   3.181   0.741   8.032  0.4423  0.2610  1.6670
   32SAPC  C219 4313   3.334   0.627   8.158  0.8714  0.0591 -0.5509
   32SAPC  H19R 4314   3.432   0.678   8.151  1.1728 -0.0548  2.1405
   32SAPC  H19S 4315   3.342   0.516   8.153  0.8758  0.0017  0.5083
   32SAPC  C220 4316   3.255   0.671   8.282  0.1835  0.3609 -0.2452
   32SAPC  H20R 4317   3.200   0.765   8.262 -1.1461  0.4708  3.2182
   32SAPC  H20S 4318   3.309   0.696   8.376 -2.2932 -0.9145  1.6490
   32SAPC  H20T 4319   3.176   0.594   8.292  0.0574  0.3017 -1.5065
   32SAPC   C33 4320   2.303   1.031   6.667 -0.1319 -0.6802  0.3485
   32SAPC   H3X 4321   2.194   1.052   6.656  0.0384  0.4005  0.5948
   32SAPC   H3Y 4322   2.345   1.133   6.658 -1.3818 -0.0811  0.9893
   32SAPC   C34 4323   2.315   0.975   6.809  0.0286 -0.2224  0.5088
   32SAPC   H4X 4324   2.425   0.967   6.819  0.2694 -0.4198 -1.8933
   32SAPC   H4Y 4325   2.267   0.875   6.817 -2.2638  0.4763 -2.6277
   32SAPC   C35 4326   2.256   1.080   6.915  0.1912 -0.0312  0.4358
   32SAPC   H5X 4327   2.145   1.083   6.912  0.0552 -1.5714  2.1863
   32SAPC   H5Y 4328   2.284   1.182   6.879  0.3262  0.2801  1.3873
   32SAPC   C36 4329   2.316   1.070   7.047  0.0696  0.1516 -1.5068
   32SAPC   H6X 4330   2.425   1.087   7.059 -0.3912  1.5068  2.3384
   32SAPC   H6Y 4331   2.287   0.965   7.072  0.4901  0.3855  0.1006
   32SAPC   C37 4332   2.243   1.151   7.159  0.6055  0.2750  0.2302
   32SAPC   H7X 4333   2.139   1.173   7.127  0.3994 -0.9116  0.0654
   32SAPC   H7Y 4334   2.291   1.251   7.171  0.0180  0.4389  1.4629
   32SAPC   C38 4335   2.242   1.081   7.295 -0.6551  0.4854  0.2841
   32SAPC   H8X 4336   2.342   1.090   7.343 -0.3298  0.9411 -0.4627
   32SAPC   H8Y 4337   2.223   0.974   7.271  0.6096  0.5934 -1.3780
   32SAPC   C39 4338   2.125   1.127   7.390 -0.1990 -0.1347  0.5241
   32SAPC   H9X 4339   2.033   1.100   7.334 -0.3042  2.1353 -0.4818
   32SAPC   H9Y 4340   2.130   1.237   7.396 -0.9943 -0.0404 -0.3280
   32SAPC  C310 4341   2.125   1.059   7.527 -1.0802 -0.3172 -0.1490
   32SAPC  H10X 4342   2.129   0.950   7.509 -3.0143 -0.5437  0.5843
   32SAPC  H10Y 4343   2.026   1.087   7.570 -1.0491 -1.7464  0.9465
   32SAPC  C311 4344   2.241   1.109   7.618 -0.3486 -0.3091  0.1656
   32SAPC  H11X 4345   2.255   1.215   7.588  2.7596 -0.6591  0.0343
   32SAPC  H11Y 4346   2.338   1.069   7.582 -1.1574 -1.3358 -0.9242
   32SAPC  C312 4347   2.224   1.104   7.770 -0.4692  0.5211  0.6279
   32SAPC  H12X 4348   2.321   1.126   7.821  0.6316 -0.8679 -0.7844
   32SAPC  H12Y 4349   2.200   0.996   7.785 -0.9992 -0.3103 -4.5984
   32SAPC  C313 4350   2.115   1.196   7.826 -0.2180  0.5436 -0.5904
   32SAPC  H13X 4351   2.026   1.173   7.764 -1.5618 -1.9356  2.0518
   32SAPC  H13Y 4352   2.159   1.297   7.808  2.3478 -0.1934  1.1003
   32SAPC  C314 4353   2.081   1.186   7.979  0.5610 -0.2246  0.0976
   32SAPC  H14X 4354   2.050   1.080   7.994  1.9563 -0.4526  1.6408
   32SAPC  H14Y 4355   1.996   1.249   8.012 -0.3464 -1.4530  0.1656
   32SAPC  C315 4356   2.202   1.176   8.083 -0.0267  0.1679 -0.1950
   32SAPC  H15X 4357   2.255   1.273   8.073 -1.8711  1.4553  1.5185
   32SAPC  H15Y 4358   2.261   1.088   8.052 -1.1845 -0.4240 -0.8052
   32SAPC  C316 4359   2.136   1.165   8.227  0.4446  0.6846  0.6236
   32SAPC  H16X 4360   2.059   1.086   8.215  1.3232 -0.0782 -0.1325
   32SAPC  H16Y 4361   2.078   1.260   8.233  1.2233  1.2679 -0.6142
   32SAPC  C317 4362   2.247   1.155   8.328 -0.0540  0.3250 -0.0907
   32SAPC  H17X 4363   2.311   1.245   8.323  0.5655 -0.0657  0.6142
   32SAPC  H17Y 4364   2.316   1.075   8.292 -0.8589 -0.4709  0.1099
   32SAPC  C318 4365   2.196   1.119   8.470 -0.5009 -0.4435 -0.1561
   32SAPC  H18X 4366   2.129   1.034   8.447  1.4039 -1.7283 -1.3094
   32SAPC  H18Y 4367   2.133   1.201   8.510  0.2517 -0.1108  0.3632
   32SAPC  H18Z 4368   2.269   1.073   8.540 -3.1549 -3.2670  0.9561
   33POPC     N 4369   5.332   1.016  10.579  0.0151 -0.2664  0.4282
   33POPC   C12 4370   5.195   1.049  10.640  0.2575  0.0949 -0.4845
   33POPC  H12A 4371   5.180   1.156  10.643 -2.6608 -0.1454 -2.4273
   33POPC  H12B 4372   5.194   1.010  10.740  0.0755 -0.8942 -0.8654
   33POPC   C13 4373   5.344   0.876  10.555 -0.4595  0.3543 -0.4679
   33POPC  H13A 4374   5.433   0.855  10.497 -0.8785  1.7142 -1.6471
   33POPC  H13B 4375   5.356   0.817  10.644 -0.8922  0.3969 -0.3804
   33POPC  H13C 4376   5.271   0.844  10.482  0.1479 -0.6237 -0.6681
   33POPC   C14 4377   5.331   1.094  10.451 -0.0274  0.4063 -0.6072
   33POPC  H14A 4378   5.432   1.073  10.417  0.3117 -2.4755  1.8166
   33POPC  H14B 4379   5.269   1.056  10.371 -0.8593  1.7198 -0.6276
   33POPC  H14C 4380   5.310   1.198  10.471  0.0405 -0.1598  3.0929
   33POPC   C15 4381   5.443   1.066  10.665  0.2535 -0.4783 -0.1559
   33POPC  H15A 4382   5.536   1.056  10.610  0.6861 -1.7211  0.7548
   33POPC  H15B 4383   5.457   0.996  10.745 -0.1430 -0.7405 -0.3143
   33POPC  H15C 4384   5.432   1.169  10.695  1.1994 -0.6140  0.6933
   33POPC   C11 4385   5.067   1.000  10.572  0.4892  0.6365 -0.5177
   33POPC  H11A 4386   5.050   1.062  10.481 -0.3542 -0.8632 -1.4268
   33POPC  H11B 4387   4.992   1.034  10.646  0.4787 -0.3559 -0.0563
   33POPC     P 4388   4.947   0.787  10.493  0.3697 -0.1202 -0.1256
   33POPC   O13 4389   4.831   0.838  10.574 -0.2999 -0.2691  0.0010
   33POPC   O14 4390   4.970   0.641  10.486  0.3347 -0.2816  0.2204
   33POPC   O12 4391   5.071   0.859  10.558  0.1518  0.3120 -0.1242
   33POPC   O11 4392   4.934   0.843  10.346  0.3529 -0.0792  0.2520
   33POPC    C1 4393   5.054   0.840  10.264  0.1979 -0.4291 -0.2158
   33POPC    HA 4394   5.129   0.894  10.325 -0.8409 -0.2226  0.9068
   33POPC    HB 4395   5.095   0.739  10.246  0.6622  0.1236 -2.6243
   33POPC    C2 4396   5.032   0.883  10.117 -0.5905 -0.1515  1.0887
   33POPC    HS 4397   5.136   0.884  10.077 -0.2160  2.4432  1.8968
   33POPC   O21 4398   4.971   1.015  10.101 -0.2917  0.4171  0.3830
   33POPC   C21 4399   5.048   1.117  10.146  0.5993 -0.2331  0.1603
   33POPC   O22 4400   5.158   1.112  10.191 -0.3766  0.7736  0.4420
   33POPC   C22 4401   4.961   1.246  10.144  0.2683  0.4485 -0.3186
   33POPC   H2R 4402   4.948   1.284  10.247 -2.7063 -1.6081  0.1912
   33POPC   H2S 4403   4.855   1.217  10.131  0.1449  1.2473 -1.1911
   33POPC    C3 4404   4.956   0.772  10.040  0.4261 -0.7187  0.5461
   33POPC    HX 4405   4.852   0.784  10.077 -0.0416 -1.3107 -0.5393
   33POPC    HY 4406   4.998   0.672  10.063  0.1439 -0.8013  0.7007
   33POPC   O31 4407   4.962   0.787   9.895  0.5416 -0.0205 -0.9350
   33POPC   C31 4408   4.862   0.856   9.836  0.4650 -0.1567 -0.2039
   33POPC   O32 4409   4.760   0.900   9.891  0.4210  0.0265  0.7341
   33POPC   C32 4410   4.906   0.868   9.692  0.8712 -0.5554 -0.8387
   33POPC   H2X 4411   4.866   0.781   9.636  0.0035 -0.0030 -1.0954
   33POPC   H2Y 4412   5.017   0.869   9.681  0.8506  0.9022 -1.1202
   33POPC   C23 4413   5.002   1.363  10.044 -0.0804  0.1497  0.1465
   33POPC   H3R 4414   5.112   1.376  10.052 -0.2716  1.9242  0.2092
   33POPC   H3S 4415   4.965   1.463  10.076  0.7403  0.2480  0.8254
   33POPC   C24 4416   4.935   1.349   9.905 -0.8197 -0.6489  0.3801
   33POPC   H4R 4417   4.826   1.360   9.920 -0.5030  1.9006  1.3075
   33POPC   H4S 4418   4.936   1.245   9.865  1.6800 -1.2771  1.8180
   33POPC   C25 4419   4.996   1.445   9.798  0.0115  0.8448 -0.0644
   33POPC   H5R 4420   5.107   1.448   9.807 -0.0813  1.6213  0.9207
   33POPC   H5S 4421   4.966   1.545   9.834 -0.0753  1.0888 -0.7996
   33POPC   C26 4422   4.957   1.410   9.651 -0.8940  0.3067 -0.2110
   33POPC   H6R 4423   4.852   1.440   9.632 -0.7724  1.1520  0.4104
   33POPC   H6S 4424   4.950   1.300   9.637 -0.5226  0.2989 -0.3433
   33POPC   C27 4425   5.052   1.459   9.542  0.0011  0.2202 -0.3612
   33POPC   H7R 4426   5.017   1.408   9.450 -3.3764  2.2758 -0.3884
   33POPC   H7S 4427   5.154   1.435   9.580 -0.4137  2.6859  2.7599
   33POPC   C28 4428   5.043   1.613   9.535  0.7102 -1.1720  0.3004
   33POPC   H8R 4429   5.068   1.666   9.629  3.4014  2.4813 -2.1897
   33POPC   H8S 4430   4.940   1.642   9.504  0.3500 -1.9345  0.7726
   33POPC   C29 4431   5.138   1.675   9.443 -0.0392 -0.5048  0.2257
   33POPC   H91 4432   5.226   1.717   9.495 -0.3748 -1.0802  1.2924
   33POPC  C210 4433   5.135   1.663   9.310  0.2231  0.0811 -0.4507
   33POPC  H101 4434   5.215   1.710   9.252  2.5377 -0.5838  2.0473
   33POPC  C211 4435   5.030   1.594   9.217  0.0066 -0.3045 -0.4917
   33POPC  H11R 4436   4.971   1.672   9.164  2.0919 -0.7386 -3.7078
   33POPC  H11S 4437   4.956   1.532   9.271 -0.6337 -1.8118 -2.9614
   33POPC  C212 4438   5.095   1.507   9.108 -0.0411  0.4991 -0.1235
   33POPC  H12R 4439   5.018   1.453   9.050  1.3147 -1.6933 -0.0094
   33POPC  H12S 4440   5.154   1.429   9.161 -0.3969 -0.8441 -1.6322
   33POPC  C213 4441   5.184   1.574   8.999  0.4519 -0.0015 -0.0877
   33POPC  H13R 4442   5.216   1.497   8.926  0.2786 -0.7675  0.6289
   33POPC  H13S 4443   5.278   1.605   9.051  1.2578 -1.6690 -0.4943
   33POPC  C214 4444   5.100   1.684   8.939 -0.1829  0.6677  0.1152
   33POPC  H14R 4445   5.074   1.771   9.003 -1.1389 -0.8389  1.8657
   33POPC  H14S 4446   5.003   1.645   8.901 -0.4341  1.2943  0.1095
   33POPC  C215 4447   5.153   1.731   8.799 -0.6158  0.5324 -0.3143
   33POPC  H15R 4448   5.162   1.644   8.731  2.2938  1.3547 -1.1280
   33POPC  H15S 4449   5.253   1.779   8.810  0.7825 -2.5943  1.9857
   33POPC  C216 4450   5.047   1.822   8.728 -0.5139 -0.4184  0.0451
   33POPC  H16R 4451   5.006   1.888   8.806  0.6399  0.1766  0.1689
   33POPC  H16S 4452   4.960   1.764   8.691 -1.1349  0.2497  0.4387
   33POPC  C217 4453   5.118   1.897   8.616 -0.2156  0.2866  0.1585
   33POPC  H17R 4454   5.167   1.824   8.548 -0.9827  0.0329 -0.1340
   33POPC  H17S 4455   5.200   1.949   8.671  1.0689  0.7934 -2.0977
   33POPC  C218 4456   5.040   2.001   8.546  0.4689  0.1830 -0.2769
   33POPC  H18R 4457   5.098   2.031   8.455 -0.0122  2.0999 -0.0062
   33POPC  H18S 4458   5.035   2.088   8.615  0.8891 -0.7714  0.9730
   33POPC  H18T 4459   4.940   1.974   8.506  0.5006 -0.7454  0.2546
   33POPC   C33 4460   4.859   1.006   9.647 -0.3578  0.6873  0.1378
   33POPC   H3X 4461   4.891   1.076   9.727 -1.9901  1.3307  0.2859
   33POPC   H3Y 4462   4.748   1.006   9.642 -0.4049  0.5955  1.0970
   33POPC   C34 4463   4.913   1.048   9.506 -0.6683 -0.0169  0.1013
   33POPC   H4X 4464   5.023   1.034   9.513 -0.6822 -3.0807 -3.0976
   33POPC   H4Y 4465   4.890   1.153   9.480 -0.3579  0.2513  0.8650
   33POPC   C35 4466   4.879   0.946   9.401  0.3877  0.1676 -0.0860
   33POPC   H5X 4467   4.771   0.937   9.378  0.6547  0.5068 -1.5767
   33POPC   H5Y 4468   4.895   0.839   9.423  1.1388  0.3787  0.4283
   33POPC   C36 4469   4.953   0.974   9.265  0.2822  0.0252 -0.0277
   33POPC   H6X 4470   4.930   0.887   9.199 -0.4053 -0.7336  1.1838
   33POPC   H6Y 4471   5.061   0.977   9.292  0.2863 -2.6127  0.4513
   33POPC   C37 4472   4.919   1.106   9.188  1.0038  0.1060  0.6184
   33POPC   H7X 4473   4.965   1.184   9.252  3.1310 -1.6233  1.3324
   33POPC   H7Y 4474   4.808   1.110   9.182  0.8103 -3.6883 -1.6564
   33POPC   C38 4475   4.993   1.121   9.059 -0.0403  1.0300  0.8900
   33POPC   H8X 4476   5.102   1.124   9.077  0.6859 -1.5393 -2.1319
   33POPC   H8Y 4477   4.968   1.217   9.007 -0.6646 -0.2005 -1.2209
   33POPC   C39 4478   4.969   1.012   8.952  0.6724  0.1543  0.1976
   33POPC   H9X 4479   5.034   0.930   8.989  1.3630  0.0981 -1.0923
   33POPC   H9Y 4480   5.013   1.066   8.866 -0.1992  0.7112  0.0919
   33POPC  C310 4481   4.817   0.970   8.920  0.0466  0.4832 -0.7882
   33POPC  H10X 4482   4.775   1.068   8.891 -1.1959  0.2371  0.1368
   33POPC  H10Y 4483   4.766   0.921   9.005  1.7980 -0.4114 -0.1922
   33POPC  C311 4484   4.802   0.871   8.809  0.5926  0.8820  0.1931
   33POPC  H11X 4485   4.859   0.782   8.845 -0.8830  0.6424  2.1688
   33POPC  H11Y 4486   4.839   0.906   8.711 -1.3559 -0.3307 -1.0631
   33POPC  C312 4487   4.654   0.832   8.785  0.2135  0.7761 -0.0811
   33POPC  H12X 4488   4.598   0.924   8.756 -1.2474  0.4895  1.6246
   33POPC  H12Y 4489   4.623   0.791   8.884  1.4808  0.0508  0.0312
   33POPC  C313 4490   4.632   0.715   8.680 -0.0347 -0.1532 -0.3508
   33POPC  H13X 4491   4.523   0.694   8.671  0.5679 -4.1198 -0.1322
   33POPC  H13Y 4492   4.675   0.622   8.723  1.8624  1.8290  2.3841
   33POPC  C314 4493   4.677   0.750   8.538  0.5253  0.6151 -0.2807
   33POPC  H14X 4494   4.779   0.793   8.535  0.7813  0.3309  2.0453
   33POPC  H14Y 4495   4.605   0.820   8.492 -0.0583  2.3937  3.0231
   33POPC  C315 4496   4.664   0.620   8.446 -0.2175 -0.6134 -0.5386
   33POPC  H15X 4497   4.557   0.599   8.423  0.2462 -3.4587 -0.4130
   33POPC  H15Y 4498   4.707   0.536   8.505  2.2573  0.8104 -0.1909
   33POPC  C316 4499   4.734   0.635   8.310  0.2043  0.2048 -0.1345
   33POPC  H16X 4500   4.839   0.653   8.343  0.1997  0.3418 -0.1931
   33POPC  H16Y 4501   4.705   0.717   8.241 -0.6137  0.1509  0.1391
   33POPC  H16Z 4502   4.740   0.536   8.259 -3.3025 -0.7099  0.9817
   34POPC     N 4503   5.356   1.933  10.917  0.0465  0.1551  0.0439
   34POPC   C12 4504   5.284   1.873  10.794 -0.5935  0.0171 -0.8094
   34POPC  H12A 4505   5.193   1.822  10.821  0.4433 -1.6299 -0.2259
   34POPC  H12B 4506   5.350   1.797  10.754  0.9385 -0.4173  2.1863
   34POPC   C13 4507   5.276   2.033  10.986 -0.0771 -0.1195  0.2037
   34POPC  H13A 4508   5.331   2.082  11.065 -1.4134 -0.0126  1.1104
   34POPC  H13B 4509   5.240   2.099  10.909  2.1069 -1.4381 -2.0894
   34POPC  H13C 4510   5.198   1.985  11.044 -1.7200  0.9285 -1.0756
   34POPC   C14 4511   5.385   1.827  11.019 -0.1830  0.7031 -0.6436
   34POPC  H14A 4512   5.428   1.883  11.100 -0.6535  3.3521 -2.1252
   34POPC  H14B 4513   5.290   1.788  11.050 -0.4099  1.1208 -0.8073
   34POPC  H14C 4514   5.458   1.754  10.984 -0.3737  1.1014 -1.9188
   34POPC   C15 4515   5.493   1.986  10.887 -0.1145  0.0768  0.5472
   34POPC  H15A 4516   5.562   1.907  10.861  1.1762  1.0584  0.8649
   34POPC  H15B 4517   5.525   2.038  10.976  0.4214  0.0029  0.4016
   34POPC  H15C 4518   5.489   2.052  10.801 -1.8979 -1.6112 -0.7506
   34POPC   C11 4519   5.247   1.971  10.677  0.8899 -0.0199 -0.0650
   34POPC  H11A 4520   5.161   2.032  10.710  1.7090  0.5586  1.1008
   34POPC  H11B 4521   5.220   1.909  10.589  1.5511  0.2924 -0.4998
   34POPC     P 4522   5.343   2.162  10.538 -0.3160  0.0795 -0.0124
   34POPC   O13 4523   5.439   2.152  10.426  0.1332 -0.5028  0.5021
   34POPC   O14 4524   5.336   2.287  10.616  0.2852 -0.0670 -0.7183
   34POPC   O12 4525   5.361   2.046  10.645  0.0746  0.1685  0.1281
   34POPC   O11 4526   5.197   2.148  10.482  0.0709  0.0595 -0.7935
   34POPC    C1 4527   5.173   2.054  10.375  0.1124  0.0631 -0.5146
   34POPC    HA 4528   5.083   1.992  10.397 -0.3407  0.2190 -1.8603
   34POPC    HB 4529   5.248   1.974  10.361  0.1670 -0.1942  1.1124
   34POPC    C2 4530   5.146   2.116  10.233  0.6557 -0.2660  0.0068
   34POPC    HS 4531   5.150   2.032  10.161  1.0165 -0.8112  0.6582
   34POPC   O21 4532   5.232   2.230  10.199  0.7020  0.1070  0.4703
   34POPC   C21 4533   5.352   2.188  10.162 -0.4568 -0.1542 -1.1202
   34POPC   O22 4534   5.385   2.071  10.144  0.0462 -0.1794  0.6042
   34POPC   C22 4535   5.458   2.299  10.156  0.5336 -0.4822 -0.1917
   34POPC   H2R 4536   5.550   2.239  10.175 -0.4274 -2.3546 -1.2044
   34POPC   H2S 4537   5.430   2.363  10.243  3.1448 -1.0990  1.2342
   34POPC    C3 4538   5.000   2.158  10.243  0.4768  0.3419 -0.3939
   34POPC    HX 4539   4.980   2.226  10.329 -0.1361  1.0565 -1.0956
   34POPC    HY 4540   4.933   2.073  10.270 -0.7348  2.1047  2.6768
   34POPC   O31 4541   4.961   2.212  10.119  0.2228 -0.8285 -0.8011
   34POPC   C31 4542   4.980   2.344  10.100  0.1923 -0.1275  0.3823
   34POPC   O32 4543   4.992   2.429  10.185  0.2156 -0.0266 -1.1407
   34POPC   C32 4544   4.962   2.374   9.947 -0.1303  0.2849  0.9134
   34POPC   H2X 4545   4.904   2.295   9.895  2.4836 -0.3330 -1.2792
   34POPC   H2Y 4546   5.059   2.360   9.895  0.6294  1.0223  2.1026
   34POPC   C23 4547   5.449   2.367  10.020 -0.3509 -0.3351 -0.4278
   34POPC   H3R 4548   5.537   2.434  10.012 -1.2647  0.8333 -1.1124
   34POPC   H3S 4549   5.360   2.435  10.020  1.4297  2.1420 -0.9550
   34POPC   C24 4550   5.446   2.271   9.906 -0.8316 -0.0225 -0.2628
   34POPC   H4R 4551   5.357   2.205   9.899 -0.2633 -0.8185 -0.0117
   34POPC   H4S 4552   5.535   2.205   9.914 -0.2268  0.8679  0.4896
   34POPC   C25 4553   5.462   2.345   9.768 -0.0117 -0.4698  0.4447
   34POPC   H5R 4554   5.486   2.267   9.693 -0.4414  0.8634 -1.1476
   34POPC   H5S 4555   5.548   2.415   9.770  0.7094 -1.3301  0.2773
   34POPC   C26 4556   5.336   2.425   9.713 -0.3602  0.6308  0.5192
   34POPC   H6R 4557   5.310   2.487   9.802 -1.5164  1.0577 -0.0924
   34POPC   H6S 4558   5.247   2.359   9.700  1.2888 -1.4732 -0.5896
   34POPC   C27 4559   5.364   2.520   9.598 -1.3605 -0.0124 -0.0536
   34POPC   H7R 4560   5.436   2.596   9.635  2.1327 -0.9379 -4.1734
   34POPC   H7S 4561   5.268   2.572   9.576 -0.7409 -0.0713 -3.4206
   34POPC   C28 4562   5.427   2.463   9.468  0.6149  0.4827  0.4074
   34POPC   H8R 4563   5.379   2.366   9.443 -0.2286  1.3416 -1.4819
   34POPC   H8S 4564   5.533   2.447   9.500  0.4628  0.7084  1.0579
   34POPC   C29 4565   5.419   2.559   9.348  0.3366 -0.8528 -0.0541
   34POPC   H91 4566   5.392   2.663   9.368 -0.6078 -1.0534 -0.2515
   34POPC  C210 4567   5.470   2.531   9.230 -0.5244  0.3975  0.6233
   34POPC  H101 4568   5.469   2.608   9.151  0.2685  0.7757  0.9756
   34POPC  C211 4569   5.529   2.400   9.186  0.0925 -0.0173 -0.5087
   34POPC  H11R 4570   5.532   2.318   9.260  1.3515  0.4542 -0.0047
   34POPC  H11S 4571   5.634   2.423   9.156 -0.5891  0.9239 -2.3285
   34POPC  C212 4572   5.459   2.340   9.061  0.2402  0.2600 -0.3039
   34POPC  H12R 4573   5.349   2.352   9.071 -0.1668 -3.0216  0.2165
   34POPC  H12S 4574   5.493   2.235   9.058  0.1572  0.2383 -0.5175
   34POPC  C213 4575   5.512   2.391   8.920  0.2368 -0.3945 -1.2351
   34POPC  H13R 4576   5.608   2.342   8.897  0.6934 -0.1809  0.0881
   34POPC  H13S 4577   5.531   2.501   8.917  0.1183 -0.3292 -0.2489
   34POPC  C214 4578   5.411   2.374   8.806 -0.0009 -0.1478 -0.1236
   34POPC  H14R 4579   5.329   2.448   8.802  0.2477  0.1210 -0.2713
   34POPC  H14S 4580   5.368   2.271   8.812  4.4303 -2.1111  2.6816
   34POPC  C215 4581   5.476   2.373   8.667  0.7772 -0.9982 -0.3584
   34POPC  H15R 4582   5.395   2.342   8.597  0.1829  0.0085 -0.1336
   34POPC  H15S 4583   5.559   2.299   8.661  0.1316 -1.6424 -2.1361
   34POPC  C216 4584   5.527   2.510   8.633  0.0292  0.2419  0.2081
   34POPC  H16R 4585   5.620   2.538   8.688  0.8045  0.5169 -1.2040
   34POPC  H16S 4586   5.454   2.588   8.663 -0.1951 -0.9347  3.0238
   34POPC  C217 4587   5.550   2.505   8.479  0.5433  0.1976 -0.6490
   34POPC  H17R 4588   5.445   2.511   8.443 -0.3636  1.9242  2.0024
   34POPC  H17S 4589   5.593   2.404   8.457  0.0333 -0.1452 -0.0729
   34POPC  C218 4590   5.630   2.627   8.419  0.6306  0.4535 -0.1804
   34POPC  H18R 4591   5.729   2.627   8.470  0.4012  0.8005  0.2702
   34POPC  H18S 4592   5.575   2.719   8.447  0.3271  0.0058  0.7648
   34POPC  H18T 4593   5.643   2.615   8.310  0.2989 -0.8568 -0.0951
   34POPC   C33 4594   4.895   2.510   9.900 -0.2995  1.0878  0.1555
   34POPC   H3X 4595   4.791   2.529   9.934  0.2118  1.7239  1.4229
   34POPC   H3Y 4596   4.884   2.496   9.790 -2.6473  0.5009  0.4282
   34POPC   C34 4597   4.998   2.623   9.923 -0.6377  0.3304 -0.3705
   34POPC   H4X 4598   5.099   2.580   9.905  0.6854  1.7980  2.8097
   34POPC   H4Y 4599   4.997   2.663  10.026 -1.5270 -1.7082  0.4780
   34POPC   C35 4600   4.972   2.746   9.829 -0.2919 -0.4081  0.3944
   34POPC   H5X 4601   5.027   2.835   9.866  1.1974 -0.1801 -2.1191
   34POPC   H5Y 4602   4.862   2.760   9.827 -0.5958 -2.4527 -2.9092
   34POPC   C36 4603   5.030   2.710   9.684  0.0361 -0.1213 -0.2176
   34POPC   H6X 4604   4.955   2.659   9.620  0.4180 -0.6963 -0.2120
   34POPC   H6Y 4605   5.117   2.642   9.695  0.2590  0.2671  0.4872
   34POPC   C37 4606   5.081   2.845   9.623 -0.3265  0.5300  0.2887
   34POPC   H7X 4607   5.171   2.872   9.683 -0.0953  2.4982 -0.8641
   34POPC   H7Y 4608   5.005   2.926   9.626  0.1406  1.1630 -2.4439
   34POPC   C38 4609   5.138   2.823   9.478  0.1211 -0.0064 -0.6372
   34POPC   H8X 4610   5.064   2.762   9.422 -1.6058  0.1940  1.3041
   34POPC   H8Y 4611   5.231   2.762   9.493 -0.2841 -0.7251 -0.9869
   34POPC   C39 4612   5.186   2.948   9.397  0.9718 -0.4679 -0.3993
   34POPC   H9X 4613   5.223   2.915   9.298  1.9661 -1.8383  0.3888
   34POPC   H9Y 4614   5.274   2.993   9.447  2.9744 -4.5332  0.1742
   34POPC  C310 4615   5.076   3.049   9.375  0.4748 -0.5499  0.1428
   34POPC  H10X 4616   5.035   3.078   9.474 -0.1035  1.4431 -0.6312
   34POPC  H10Y 4617   4.999   2.996   9.315 -0.1811  0.7957 -0.2286
   34POPC  C311 4618   5.102   3.182   9.307 -0.2188 -0.1536 -0.0823
   34POPC  H11X 4619   5.133   3.161   9.202 -1.9995  0.9772 -0.8833
   34POPC  H11Y 4620   5.185   3.236   9.357 -1.1524  0.9583  0.2996
   34POPC  C312 4621   4.974   3.267   9.286  1.0882  0.2276 -0.5562
   34POPC  H12X 4622   4.966   3.329   9.378 -0.0107  1.7626 -1.6449
   34POPC  H12Y 4623   4.887   3.200   9.272  0.0197  1.4147  0.1256
   34POPC  C313 4624   4.985   3.372   9.172 -0.6482  0.4450 -0.0779
   34POPC  H13X 4625   4.989   3.322   9.073 -2.1225  0.0905  0.0178
   34POPC  H13Y 4626   5.084   3.419   9.191  0.2095 -1.1011 -0.5370
   34POPC  C314 4627   4.874   3.478   9.175  0.3118 -0.7346  0.0537
   34POPC  H14X 4628   4.893   3.558   9.100  2.1201 -1.5487 -0.4315
   34POPC  H14Y 4629   4.885   3.522   9.276 -2.2259 -1.1468  0.5740
   34POPC  C315 4630   4.737   3.422   9.167 -0.1149 -0.8448  0.3612
   34POPC  H15X 4631   4.716   3.332   9.228  1.3368 -1.1027  0.5117
   34POPC  H15Y 4632   4.719   3.396   9.061  0.4383 -0.0386  0.0553
   34POPC  C316 4633   4.637   3.527   9.216 -0.5721 -0.4246 -0.0274
   34POPC  H16X 4634   4.616   3.516   9.324  0.1659  3.6250  0.7056
   34POPC  H16Y 4635   4.546   3.533   9.152 -1.0873 -2.3726  0.4748
   34POPC  H16Z 4636   4.686   3.625   9.196  0.1834 -1.2459 -2.6701
   35POPC     N 4637   3.299   4.492  11.325 -0.2888  0.4764 -0.8060
   35POPC   C12 4638   3.259   4.547  11.190 -0.1742  0.4451 -0.2379
   35POPC  H12A 4639   3.181   4.616  11.218 -0.1963  0.6262 -0.7502
   35POPC  H12B 4640   3.211   4.471  11.130 -1.1070  1.1472 -0.3893
   35POPC   C13 4641   3.422   4.407  11.316 -0.1300  0.2512 -0.0943
   35POPC  H13A 4642   3.436   4.365  11.415 -0.5562  1.6121  0.5737
   35POPC  H13B 4643   3.415   4.335  11.236  1.3885 -2.1134  1.7818
   35POPC  H13C 4644   3.502   4.477  11.298 -2.5622  2.6763 -2.4398
   35POPC   C14 4645   3.326   4.609  11.417  0.2214 -0.3440  0.6992
   35POPC  H14A 4646   3.320   4.584  11.522  2.0073 -0.9693  0.6859
   35POPC  H14B 4647   3.420   4.653  11.387  1.2458 -2.6134  0.2917
   35POPC  H14C 4648   3.249   4.682  11.396  1.1897  0.5126  0.0423
   35POPC   C15 4649   3.187   4.406  11.388 -0.8221 -0.4020 -0.4634
   35POPC  H15A 4650   3.099   4.463  11.413  1.2433  3.8830 -1.8529
   35POPC  H15B 4651   3.233   4.372  11.479 -0.1205 -0.8530 -0.9711
   35POPC  H15C 4652   3.170   4.324  11.319  0.2384 -0.6537 -0.4383
   35POPC   C11 4653   3.371   4.617  11.105  0.5430 -0.1229  0.0344
   35POPC  H11A 4654   3.319   4.658  11.015  0.0027 -0.1517  0.3327
   35POPC  H11B 4655   3.444   4.537  11.079 -1.0448 -1.5363 -0.2412
   35POPC     P 4656   3.591   4.741  11.164 -0.2889 -0.1444  0.0038
   35POPC   O13 4657   3.660   4.615  11.194 -0.4762 -0.0341 -0.7215
   35POPC   O14 4658   3.642   4.868  11.227  0.3608 -0.2932  0.6456
   35POPC   O12 4659   3.433   4.728  11.182  0.0776  0.6793 -0.4329
   35POPC   O11 4660   3.606   4.764  11.014 -0.2820  0.5197  0.2807
   35POPC    C1 4661   3.557   4.886  10.956  0.5048  0.2853  0.3506
   35POPC    HA 4662   3.598   4.975  11.010  2.3070  0.6369 -1.4552
   35POPC    HB 4663   3.447   4.881  10.967  0.3359 -1.2551 -1.5286
   35POPC    C2 4664   3.610   4.911  10.811 -0.3146  0.8220 -0.4588
   35POPC    HS 4665   3.613   5.020  10.789  0.0834  0.9299  0.1069
   35POPC   O21 4666   3.534   4.840  10.716  0.2646  0.3157 -0.1706
   35POPC   C21 4667   3.409   4.877  10.702 -0.3013 -0.8122 -0.0870
   35POPC   O22 4668   3.364   4.979  10.751 -0.6241 -0.6227 -0.4239
   35POPC   C22 4669   3.337   4.783  10.614 -0.1261 -0.0133  0.2119
   35POPC   H2R 4670   3.390   4.685  10.615  2.8510  1.4169  3.0774
   35POPC   H2S 4671   3.352   4.826  10.513  3.0801 -1.1267  0.0995
   35POPC    C3 4672   3.759   4.867  10.815 -0.0213  0.5525  0.6214
   35POPC    HX 4673   3.779   4.760  10.838 -0.5602  0.3498  0.1955
   35POPC    HY 4674   3.818   4.921  10.891 -1.6685  1.6696  1.1454
   35POPC   O31 4675   3.829   4.882  10.688  0.2294  0.5555  0.2847
   35POPC   C31 4676   3.814   4.781  10.594  0.4140 -0.1341  0.7520
   35POPC   O32 4677   3.732   4.691  10.612 -0.5332  0.2845 -0.3210
   35POPC   C32 4678   3.909   4.796  10.475  0.8383  0.0364 -0.3817
   35POPC   H2X 4679   4.004   4.750  10.508  2.7064  2.6781 -1.7210
   35POPC   H2Y 4680   3.940   4.903  10.467  0.7100  0.0291 -0.9944
   35POPC   C23 4681   3.185   4.769  10.641 -0.5270  0.6270  0.1827
   35POPC   H3R 4682   3.148   4.869  10.674 -2.2000 -0.2615  1.1179
   35POPC   H3S 4683   3.168   4.702  10.727 -0.6248  0.8774  0.3613
   35POPC   C24 4684   3.097   4.723  10.517  0.0269 -0.2505  0.8430
   35POPC   H4R 4685   3.101   4.612  10.517 -0.3932 -0.2761 -0.2709
   35POPC   H4S 4686   3.141   4.774  10.429  0.5008  1.3127  1.9381
   35POPC   C25 4687   2.949   4.769  10.517  0.1111 -0.6628  0.4083
   35POPC   H5R 4688   2.932   4.865  10.570 -0.0418 -1.0812  1.1353
   35POPC   H5S 4689   2.902   4.685  10.573  0.0830 -1.0433 -0.1841
   35POPC   C26 4690   2.886   4.762  10.372 -0.1484  0.3357 -0.0434
   35POPC   H6R 4691   2.928   4.684  10.305 -1.9563 -0.8273  0.1130
   35POPC   H6S 4692   2.905   4.861  10.325  2.5351 -0.1577 -0.1714
   35POPC   C27 4693   2.738   4.729  10.386  0.0433  0.3260 -0.2723
   35POPC   H7R 4694   2.690   4.805  10.451  1.7813  1.3449 -0.1343
   35POPC   H7S 4695   2.734   4.628  10.431 -1.9756  0.1280 -0.7919
   35POPC   C28 4696   2.667   4.734  10.249 -0.8096 -0.1313  0.1178
   35POPC   H8R 4697   2.705   4.652  10.184 -2.5802 -2.3603  1.7080
   35POPC   H8S 4698   2.692   4.832  10.203 -3.6812  0.7364  0.2227
   35POPC   C29 4699   2.523   4.718  10.273  0.0931 -0.1746 -0.8510
   35POPC   H91 4700   2.483   4.781  10.354 -0.4631 -0.4483 -0.9100
   35POPC  C210 4701   2.441   4.620  10.232  0.0081  0.0396  0.1522
   35POPC  H101 4702   2.336   4.626  10.262  0.6786  1.1595  2.4763
   35POPC  C211 4703   2.478   4.504  10.138 -0.0041  0.9173  0.7303
   35POPC  H11R 4704   2.588   4.490  10.136  0.0541  1.2932  1.1240
   35POPC  H11S 4705   2.458   4.532  10.032  1.5781 -0.0615  0.1391
   35POPC  C212 4706   2.409   4.377  10.190  0.0257 -0.3416  0.5172
   35POPC  H12R 4707   2.301   4.402  10.188 -0.4550 -2.2984  0.7342
   35POPC  H12S 4708   2.444   4.354  10.293  2.4628 -2.5403 -0.6870
   35POPC  C213 4709   2.426   4.253  10.097  0.0071  0.0009 -0.4686
   35POPC  H13R 4710   2.351   4.176  10.126  0.8683 -1.6736 -2.4214
   35POPC  H13S 4711   2.524   4.201  10.097  0.0891 -0.0408 -3.4851
   35POPC  C214 4712   2.372   4.290   9.960 -0.2290  0.5899 -0.2606
   35POPC  H14R 4713   2.429   4.371   9.910 -1.0553  2.6978  2.0050
   35POPC  H14S 4714   2.266   4.321   9.975 -1.3522 -2.8359 -0.0708
   35POPC  C215 4715   2.366   4.170   9.866 -0.0744 -0.8063 -0.3590
   35POPC  H15R 4716   2.282   4.190   9.797  0.3447  0.3575 -0.5694
   35POPC  H15S 4717   2.341   4.072   9.910  0.3577 -1.4317 -1.4668
   35POPC  C216 4718   2.489   4.160   9.777  0.0886 -0.6866 -0.1426
   35POPC  H16R 4719   2.567   4.116   9.842  0.7228  0.5031 -0.0742
   35POPC  H16S 4720   2.531   4.256   9.739 -0.9481 -0.5632 -1.0580
   35POPC  C217 4721   2.446   4.079   9.656  0.0610  0.3768 -0.2423
   35POPC  H17R 4722   2.359   4.128   9.608  0.5618 -0.9479 -2.7300
   35POPC  H17S 4723   2.409   3.979   9.686  0.7030 -0.0438 -0.8187
   35POPC  C218 4724   2.554   4.060   9.555  0.1673  0.0914  1.2868
   35POPC  H18R 4725   2.641   4.006   9.597 -0.5246 -1.6234  0.6075
   35POPC  H18S 4726   2.578   4.159   9.511 -3.4582 -0.7335 -3.4096
   35POPC  H18T 4727   2.523   4.007   9.463  1.8505 -0.4199  0.9904
   35POPC   C33 4728   3.863   4.745  10.338  0.4126  0.7540  0.7850
   35POPC   H3X 4729   3.827   4.640  10.349 -0.0588  0.8569  0.2893
   35POPC   H3Y 4730   3.946   4.742  10.265  1.2027 -0.0654  1.7013
   35POPC   C34 4731   3.745   4.823  10.277  0.0117 -0.6783 -0.1926
   35POPC   H4X 4732   3.774   4.930  10.268 -0.8680 -0.4905 -1.0461
   35POPC   H4Y 4733   3.650   4.821  10.335  1.1227  1.2231  1.8729
   35POPC   C35 4734   3.699   4.757  10.145  0.2525  0.5539  0.2213
   35POPC   H5X 4735   3.661   4.654  10.164 -2.7686  1.5432  0.0770
   35POPC   H5Y 4736   3.784   4.758  10.073  1.8183 -2.1474  1.8504
   35POPC   C36 4737   3.592   4.833  10.077  0.5325 -0.2804  0.2423
   35POPC   H6X 4738   3.632   4.934  10.053 -2.5059  0.7658 -0.9282
   35POPC   H6Y 4739   3.499   4.839  10.136  1.0026  0.8286  0.8888
   35POPC   C37 4740   3.539   4.773   9.946  0.8116  0.4828  0.5625
   35POPC   H7X 4741   3.452   4.709   9.970  2.2405 -0.5855  3.2419
   35POPC   H7Y 4742   3.609   4.703   9.896 -0.3520 -0.0514 -0.3692
   35POPC   C38 4743   3.488   4.871   9.829 -0.2511  0.0529 -0.8080
   35POPC   H8X 4744   3.571   4.942   9.809 -0.0836 -0.2762 -1.2960
   35POPC   H8Y 4745   3.400   4.928   9.867 -0.6284  0.4023 -2.1609
   35POPC   C39 4746   3.445   4.790   9.710 -0.7418  0.3835 -0.3382
   35POPC   H9X 4747   3.366   4.718   9.740 -2.0209  1.2636 -1.4530
   35POPC   H9Y 4748   3.534   4.729   9.681 -0.6016  0.8295 -0.8684
   35POPC  C310 4749   3.404   4.875   9.587 -0.1224  0.4751  0.1310
   35POPC  H10X 4750   3.306   4.916   9.620  0.5261  0.7394  1.8051
   35POPC  H10Y 4751   3.383   4.813   9.498  0.9504 -1.7114  1.3227
   35POPC  C311 4752   3.497   4.996   9.553  0.2585  0.0848 -0.4839
   35POPC  H11X 4753   3.598   4.961   9.522  0.2465  0.1346 -0.5805
   35POPC  H11Y 4754   3.506   5.052   9.648 -1.9487 -0.9966  0.4538
   35POPC  C312 4755   3.444   5.083   9.437  0.5296  0.3820 -0.3504
   35POPC  H12X 4756   3.489   5.182   9.458 -1.1948  0.8868  1.1523
   35POPC  H12Y 4757   3.334   5.078   9.448  0.5687 -1.5686 -0.4025
   35POPC  C313 4758   3.482   5.023   9.301 -0.1681  0.1801  1.0113
   35POPC  H13X 4759   3.457   4.915   9.300 -0.4059  0.2371  0.8640
   35POPC  H13Y 4760   3.594   5.026   9.302 -0.1722  2.4874  0.1947
   35POPC  C314 4761   3.419   5.108   9.188  0.1790  0.3198  0.2502
   35POPC  H14X 4762   3.455   5.213   9.198  0.4676  0.1054  1.5679
   35POPC  H14Y 4763   3.309   5.110   9.204 -0.1818 -0.3514 -1.8579
   35POPC  C315 4764   3.449   5.064   9.046  0.3035  0.2533  0.3493
   35POPC  H15X 4765   3.465   4.954   9.035  2.6041  0.3707  1.7755
   35POPC  H15Y 4766   3.549   5.104   9.017 -0.4311  1.9033  0.0096
   35POPC  C316 4767   3.356   5.121   8.942  0.9186  0.1034 -0.3791
   35POPC  H16X 4768   3.348   5.060   8.850 -1.1604  0.7627 -0.6930
   35POPC  H16Y 4769   3.378   5.227   8.918 -3.6414  1.0732 -1.0543
   35POPC  H16Z 4770   3.253   5.109   8.980  0.0775 -0.9851 -2.8180
   36POPC     N 4771   4.291   3.548  11.120 -0.2772  0.2121  0.5292
   36POPC   C12 4772   4.204   3.526  10.993 -0.1562 -0.0937 -0.2671
   36POPC  H12A 4773   4.159   3.620  10.964 -0.1654  0.0696  0.2792
   36POPC  H12B 4774   4.128   3.453  11.014  0.7639 -1.5213 -1.6805
   36POPC   C13 4775   4.350   3.416  11.168 -0.2200  0.5204 -0.1989
   36POPC  H13A 4776   4.403   3.440  11.259 -1.5826  2.3878  0.1656
   36POPC  H13B 4777   4.269   3.346  11.177 -1.4981  1.9492 -0.1595
   36POPC  H13C 4778   4.421   3.376  11.097 -1.4847 -0.8414 -0.7408
   36POPC   C14 4779   4.403   3.643  11.106 -0.5377 -0.3188 -0.3039
   36POPC  H14A 4780   4.464   3.647  11.194 -3.9729  1.7183  2.2347
   36POPC  H14B 4781   4.460   3.610  11.020 -0.2825 -0.4837 -0.0691
   36POPC  H14C 4782   4.374   3.742  11.074  1.9638  0.4092 -0.5378
   36POPC   C15 4783   4.201   3.593  11.235 -0.3699 -0.0196 -0.5826
   36POPC  H15A 4784   4.264   3.618  11.319 -1.3049  0.2499  0.0515
   36POPC  H15B 4785   4.143   3.503  11.251  1.7993 -1.2761  0.7522
   36POPC  H15C 4786   4.132   3.670  11.206 -0.6086 -1.1104 -3.1817
   36POPC   C11 4787   4.268   3.457  10.870  0.2339  0.3303 -0.7137
   36POPC  H11A 4788   4.353   3.522  10.839 -0.8582  1.3042 -1.8263
   36POPC  H11B 4789   4.198   3.463  10.784  0.2426  1.2802 -0.6737
   36POPC     P 4790   4.182   3.215  10.926  0.2572  0.2048 -0.2689
   36POPC   O13 4791   4.117   3.248  11.056  0.4135  0.6770 -0.3987
   36POPC   O14 4792   4.240   3.075  10.922 -0.4621  0.2604 -0.3282
   36POPC   O12 4793   4.297   3.320  10.887 -0.1206  0.2362  0.8212
   36POPC   O11 4794   4.073   3.230  10.810  0.2879  0.3736  0.7340
   36POPC    C1 4795   4.119   3.198  10.671  0.0193 -0.6148  0.5532
   36POPC    HA 4796   4.164   3.097  10.671  0.7180 -0.3102  0.6496
   36POPC    HB 4797   4.186   3.280  10.638 -0.8742  0.1003  0.4756
   36POPC    C2 4798   3.991   3.195  10.578 -0.0014  0.0747  0.1264
   36POPC    HS 4799   4.025   3.147  10.484 -0.0898  0.9837 -0.3801
   36POPC   O21 4800   3.951   3.330  10.557 -0.2768  0.3436 -0.6210
   36POPC   C21 4801   3.936   3.372  10.432  0.0531  0.6561 -0.2835
   36POPC   O22 4802   3.975   3.310  10.329  0.0337 -0.8555 -0.4549
   36POPC   C22 4803   3.878   3.516  10.439 -0.1375  0.0416  0.1471
   36POPC   H2R 4804   3.954   3.580  10.488  2.0042 -0.3756 -2.3920
   36POPC   H2S 4805   3.785   3.502  10.498 -0.2723  0.8245  0.1309
   36POPC    C3 4806   3.888   3.114  10.661 -0.0677 -0.4089  1.1257
   36POPC    HX 4807   3.847   3.173  10.746 -1.9150 -1.5139  1.0488
   36POPC    HY 4808   3.946   3.029  10.705  1.2173  0.7396  1.7200
   36POPC   O31 4809   3.785   3.067  10.574  0.1690  0.1694  0.7035
   36POPC   C31 4810   3.687   2.993  10.604  0.0446 -0.4069  0.0979
   36POPC   O32 4811   3.672   2.940  10.714  0.4650 -0.1007  0.0958
   36POPC   C32 4812   3.601   2.963  10.489  0.5657 -0.1981 -0.4286
   36POPC   H2X 4813   3.500   2.944  10.531  0.3196 -1.2898 -1.4798
   36POPC   H2Y 4814   3.638   2.875  10.432 -2.4239 -0.0995 -2.7420
   36POPC   C23 4815   3.851   3.587  10.311  0.4189 -0.0772 -0.0056
   36POPC   H3R 4816   3.796   3.680  10.334 -0.6765 -0.8671  0.6816
   36POPC   H3S 4817   3.798   3.516  10.243  0.4937 -0.0321 -0.1122
   36POPC   C24 4818   3.972   3.626  10.222 -0.0809 -0.5992  0.8002
   36POPC   H4R 4819   4.012   3.540  10.164 -0.3593 -1.1576  1.4285
   36POPC   H4S 4820   4.056   3.658  10.287  0.2132  0.5542 -0.1035
   36POPC   C25 4821   3.933   3.737  10.125 -0.1217 -0.4320 -0.1176
   36POPC   H5R 4822   3.869   3.810  10.178  1.4468  1.3511 -0.5610
   36POPC   H5S 4823   3.856   3.690  10.060 -1.2264  0.0632  0.7993
   36POPC   C26 4824   4.041   3.801  10.033 -0.0180  0.0012  0.3594
   36POPC   H6R 4825   4.058   3.734   9.946 -1.3690  0.0735  0.0183
   36POPC   H6S 4826   4.139   3.823  10.080  1.5646 -1.8344 -1.8274
   36POPC   C27 4827   3.985   3.934   9.986  0.0651 -0.1915  0.5928
   36POPC   H7R 4828   4.068   3.984   9.932 -0.5588  0.5962  0.3467
   36POPC   H7S 4829   3.967   3.999  10.074  0.8213 -2.0958  2.2270
   36POPC   C28 4830   3.861   3.936   9.894 -0.2011 -0.0285 -0.1783
   36POPC   H8R 4831   3.849   4.043   9.864  3.3665  0.6545  0.3818
   36POPC   H8S 4832   3.774   3.913   9.960  0.0805  1.3457  0.7338
   36POPC   C29 4833   3.862   3.863   9.766  0.0578  0.9882 -0.1417
   36POPC   H91 4834   3.866   3.756   9.790  0.8798  0.4873 -2.3410
   36POPC  C210 4835   3.858   3.898   9.636 -0.1882  0.5882 -0.3558
   36POPC  H101 4836   3.877   3.810   9.573  0.0045 -0.1884  0.7379
   36POPC  C211 4837   3.851   4.038   9.572 -0.0774 -0.5467  0.2632
   36POPC  H11R 4838   3.952   4.078   9.547 -0.5759 -0.1798 -1.2877
   36POPC  H11S 4839   3.809   4.107   9.648  2.4355 -0.2166  1.4627
   36POPC  C212 4840   3.775   4.033   9.433  0.0138  0.3945  0.0875
   36POPC  H12R 4841   3.669   4.000   9.439 -0.3811  1.5534 -0.1373
   36POPC  H12S 4842   3.837   3.973   9.363  0.5458  3.1418 -1.9883
   36POPC  C213 4843   3.783   4.169   9.368 -0.1959  0.4601 -0.2054
   36POPC  H13R 4844   3.886   4.205   9.390 -0.0997  0.4989 -0.7151
   36POPC  H13S 4845   3.711   4.231   9.426 -0.2623 -0.9554  1.2866
   36POPC  C214 4846   3.762   4.168   9.213  0.2896  0.5469  0.1861
   36POPC  H14R 4847   3.655   4.140   9.198 -0.4337  2.4344  1.3944
   36POPC  H14S 4848   3.813   4.081   9.165 -1.3691  1.2377 -3.0960
   36POPC  C215 4849   3.803   4.304   9.150  0.0931 -0.2439  0.5397
   36POPC  H15R 4850   3.907   4.322   9.185 -0.2401  1.3105  0.8170
   36POPC  H15S 4851   3.737   4.385   9.188 -0.1505  1.3642 -2.9504
   36POPC  C216 4852   3.791   4.297   8.995 -0.0447 -0.5498 -0.2328
   36POPC  H16R 4853   3.809   4.399   8.956  2.6422 -0.7368  0.3451
   36POPC  H16S 4854   3.686   4.277   8.962 -0.2827  0.5175 -0.1467
   36POPC  C217 4855   3.903   4.207   8.937 -0.7376 -0.0583 -0.1263
   36POPC  H17R 4856   3.871   4.102   8.954 -2.1459  0.2347 -0.8207
   36POPC  H17S 4857   3.995   4.230   8.994 -1.8685  2.0931  0.9231
   36POPC  C218 4858   3.926   4.231   8.784  0.1346  0.3881  0.5161
   36POPC  H18R 4859   3.844   4.186   8.724 -0.6148 -0.0148  1.7911
   36POPC  H18S 4860   4.025   4.189   8.757 -0.1281 -0.2714  0.5591
   36POPC  H18T 4861   3.922   4.339   8.759 -0.2627  0.4618  0.8668
   36POPC   C33 4862   3.581   3.082  10.393 -0.7906 -0.2862 -0.0088
   36POPC   H3X 4863   3.596   3.177  10.449  2.0532  0.0067 -1.0874
   36POPC   H3Y 4864   3.477   3.083  10.354 -2.2511  0.9561  3.4555
   36POPC   C34 4865   3.687   3.096  10.280 -0.0771 -0.0443  0.5038
   36POPC   H4X 4866   3.702   3.003  10.221  0.1712  1.3601 -1.7608
   36POPC   H4Y 4867   3.787   3.118  10.323  0.3943  2.2760 -1.5859
   36POPC   C35 4868   3.651   3.212  10.184 -0.3252  0.0259 -0.6749
   36POPC   H5X 4869   3.636   3.299  10.252  0.1461 -0.4369  0.0320
   36POPC   H5Y 4870   3.550   3.191  10.143 -1.5849  2.2579  1.0226
   36POPC   C36 4871   3.754   3.244  10.080  0.1727 -0.4889  0.3132
   36POPC   H6X 4872   3.775   3.159  10.012  1.4991 -0.0961  0.1974
   36POPC   H6Y 4873   3.853   3.263  10.128  0.3804  1.5997 -0.8253
   36POPC   C37 4874   3.708   3.358   9.995 -0.0681  0.3029  0.0657
   36POPC   H7X 4875   3.688   3.450  10.054 -0.4863  0.7220 -0.7175
   36POPC   H7Y 4876   3.608   3.336   9.950 -0.4058  0.8444  0.5411
   36POPC   C38 4877   3.808   3.387   9.885  0.2102 -0.2921 -0.2061
   36POPC   H8X 4878   3.856   3.294   9.846  1.4998 -0.0607  0.7595
   36POPC   H8Y 4879   3.890   3.450   9.926 -0.2363  0.1022  0.0931
   36POPC   C39 4880   3.744   3.457   9.761  0.1672  0.7726 -0.7623
   36POPC   H9X 4881   3.728   3.562   9.792  0.3755  0.1123  1.8080
   36POPC   H9Y 4882   3.647   3.406   9.745 -0.1924  0.5596  1.7258
   36POPC  C310 4883   3.831   3.459   9.632 -0.0985  0.3073 -0.1384
   36POPC  H10X 4884   3.877   3.358   9.621  0.2608  0.3979  0.4791
   36POPC  H10Y 4885   3.901   3.540   9.660 -0.1874  0.9872 -1.7901
   36POPC  C311 4886   3.754   3.491   9.506  0.0616 -0.3432  0.0517
   36POPC  H11X 4887   3.708   3.592   9.503 -0.5302 -0.6269 -0.7844
   36POPC  H11Y 4888   3.667   3.421   9.504  0.0662 -0.3334 -1.3651
   36POPC  C312 4889   3.842   3.482   9.382 -0.0398  0.1365  0.3385
   36POPC  H12X 4890   3.847   3.375   9.350  0.0189 -0.0286  0.8910
   36POPC  H12Y 4891   3.942   3.518   9.413  0.6311 -2.4991  1.5951
   36POPC  C313 4892   3.775   3.560   9.270 -0.4225  0.0209  0.4088
   36POPC  H13X 4893   3.849   3.591   9.193 -2.8581  4.0053 -0.6236
   36POPC  H13Y 4894   3.739   3.659   9.304 -0.8257  0.5375 -1.4195
   36POPC  C314 4895   3.661   3.482   9.208 -0.0429  0.0414  0.9011
   36POPC  H14X 4896   3.577   3.466   9.280  1.3864 -0.2500  2.5580
   36POPC  H14Y 4897   3.695   3.379   9.186  1.9660  0.6611  0.9612
   36POPC  C315 4898   3.605   3.546   9.078  0.1565  0.2051  0.0768
   36POPC  H15X 4899   3.580   3.650   9.106  0.9328  0.0099  1.6294
   36POPC  H15Y 4900   3.512   3.497   9.044  0.8829  0.0821 -1.8727
   36POPC  C316 4901   3.698   3.541   8.956  0.3819 -0.9248  0.0712
   36POPC  H16X 4902   3.640   3.570   8.866 -1.1719  0.6433  1.4848
   36POPC  H16Y 4903   3.737   3.440   8.933  1.2118 -0.6943  0.4079
   36POPC  H16Z 4904   3.786   3.609   8.961 -0.9800  0.8380  1.2539
   37POPC     N 4905   3.694   6.498   6.384 -0.0029 -0.5337  0.3037
   37POPC   C12 4906   3.683   6.437   6.522 -0.2478  0.2027  1.1930
   37POPC  H12A 4907   3.587   6.389   6.533  0.5769 -1.4071  1.7420
   37POPC  H12B 4908   3.696   6.517   6.593 -0.9986  3.0982 -1.7081
   37POPC   C13 4909   3.823   6.561   6.369 -0.2115 -0.0649  0.7851
   37POPC  H13A 4910   3.896   6.485   6.393 -0.2495  0.9590  4.7676
   37POPC  H13B 4911   3.837   6.589   6.265 -0.7565 -2.2734  0.0669
   37POPC  H13C 4912   3.844   6.642   6.437  2.6234 -2.1693  2.6139
   37POPC   C14 4913   3.661   6.402   6.270 -0.4895 -0.1644  0.2940
   37POPC  H14A 4914   3.559   6.368   6.285 -0.3106 -2.5709 -2.8745
   37POPC  H14B 4915   3.681   6.452   6.176  2.0281 -0.0878  0.8194
   37POPC  H14C 4916   3.711   6.307   6.278  1.3083  0.9150  3.3540
   37POPC   C15 4917   3.594   6.608   6.376 -0.1954 -0.7386  0.2773
   37POPC  H15A 4918   3.597   6.667   6.466  0.0588 -0.0294 -0.1890
   37POPC  H15B 4919   3.497   6.561   6.374 -0.7893  0.4900 -0.5523
   37POPC  H15C 4920   3.599   6.676   6.293 -3.5094 -0.9020 -0.1868
   37POPC   C11 4921   3.789   6.330   6.552  0.3246 -0.4686 -0.5300
   37POPC  H11A 4922   3.786   6.315   6.662 -0.1189  2.1385 -0.1256
   37POPC  H11B 4923   3.894   6.361   6.533  0.2359 -0.4986 -1.0943
   37POPC     P 4924   3.637   6.131   6.533  0.1240 -0.3399 -0.0230
   37POPC   O13 4925   3.633   6.019   6.440 -0.3136 -0.1250 -0.6561
   37POPC   O14 4926   3.512   6.206   6.549 -0.2252 -0.3582  0.2530
   37POPC   O12 4927   3.764   6.213   6.486  0.0693 -0.2233 -0.4162
   37POPC   O11 4928   3.685   6.086   6.675 -0.1744 -0.1889  0.6330
   37POPC    C1 4929   3.597   6.069   6.782 -0.8259 -0.1321 -0.6462
   37POPC    HA 4930   3.525   5.984   6.780 -2.3498  0.8300  3.3028
   37POPC    HB 4931   3.544   6.164   6.804  1.9428  1.0719  1.4677
   37POPC    C2 4932   3.676   6.054   6.916 -0.4202  0.5174  0.5807
   37POPC    HS 4933   3.712   5.949   6.928 -2.4245 -0.3647 -0.5958
   37POPC   O21 4934   3.593   6.079   7.028 -0.1719 -0.0300 -0.4104
   37POPC   C21 4935   3.497   5.991   7.050 -0.4890 -0.5163  0.5444
   37POPC   O22 4936   3.473   5.885   6.994  0.6606 -0.1957  0.1509
   37POPC   C22 4937   3.405   6.046   7.158  0.2155 -0.3612 -0.7002
   37POPC   H2R 4938   3.315   6.088   7.108 -0.0979  1.0741  0.9973
   37POPC   H2S 4939   3.448   6.139   7.199 -1.8860  0.2527  0.2524
   37POPC    C3 4940   3.796   6.154   6.920  0.4501  0.4608  0.0995
   37POPC    HX 4941   3.759   6.256   6.895  0.9649  0.5528 -0.3015
   37POPC    HY 4942   3.867   6.118   6.842  0.8287  0.5119  0.4152
   37POPC   O31 4943   3.854   6.141   7.052 -0.6764 -0.6991  0.4433
   37POPC   C31 4944   3.956   6.219   7.084 -0.0293 -0.1668  0.4146
   37POPC   O32 4945   4.000   6.306   7.007  1.0590 -0.5127  0.1342
   37POPC   C32 4946   3.983   6.188   7.231 -0.0204 -0.4774 -0.6286
   37POPC   H2X 4947   4.035   6.281   7.263 -1.5818  1.2337 -2.6983
   37POPC   H2Y 4948   4.048   6.100   7.244 -2.1248 -1.8204  1.6999
   37POPC   C23 4949   3.367   5.940   7.272  0.5545  0.1358  0.0470
   37POPC   H3R 4950   3.399   5.837   7.246 -0.6207 -1.0357  2.8153
   37POPC   H3S 4951   3.258   5.922   7.283  0.2952 -0.0181 -2.2718
   37POPC   C24 4952   3.416   5.979   7.410  0.5309 -0.0620  0.0338
   37POPC   H4R 4953   3.375   6.077   7.444  1.5525  0.1143  0.7970
   37POPC   H4S 4954   3.526   5.986   7.420  0.3671 -0.4172  2.9793
   37POPC   C25 4955   3.374   5.877   7.518  0.1664  0.3260 -0.0746
   37POPC   H5R 4956   3.413   5.777   7.490 -0.7057 -0.3793  1.1206
   37POPC   H5S 4957   3.264   5.868   7.509  0.2821  0.3196 -1.7004
   37POPC   C26 4958   3.428   5.914   7.663 -0.5128  1.0186 -0.1178
   37POPC   H6R 4959   3.434   6.024   7.677 -0.2636  1.2154 -1.5788
   37POPC   H6S 4960   3.528   5.867   7.680 -0.7209  1.2005  1.7588
   37POPC   C27 4961   3.339   5.852   7.777 -0.6605 -0.3660 -0.0825
   37POPC   H7R 4962   3.326   5.746   7.745  1.3740 -0.8680  0.6232
   37POPC   H7S 4963   3.241   5.905   7.774 -0.0799  0.8354  1.0711
   37POPC   C28 4964   3.397   5.866   7.917  0.0489 -0.6914 -1.0253
   37POPC   H8R 4965   3.432   5.968   7.941  0.4069 -0.9002 -0.6543
   37POPC   H8S 4966   3.483   5.796   7.925  0.4976 -0.1175 -0.8030
   37POPC   C29 4967   3.293   5.826   8.015 -0.9992 -0.1456 -0.7762
   37POPC   H91 4968   3.192   5.811   7.972 -0.4481  0.4060 -2.3224
   37POPC  C210 4969   3.300   5.829   8.149  0.3052  0.6738  0.8989
   37POPC  H101 4970   3.209   5.802   8.204 -0.5357  0.2556 -0.6509
   37POPC  C211 4971   3.402   5.871   8.253  0.7679  0.1634 -0.3294
   37POPC  H11R 4972   3.480   5.938   8.212  0.9056 -0.1569 -0.6012
   37POPC  H11S 4973   3.447   5.779   8.297  0.4660 -0.2635 -0.8943
   37POPC  C212 4974   3.330   5.934   8.376  0.9964  0.6713 -0.1928
   37POPC  H12R 4975   3.233   5.886   8.402  0.7104  0.8362 -0.9448
   37POPC  H12S 4976   3.293   6.036   8.353  0.5262  1.1328  2.3446
   37POPC  C213 4977   3.424   5.961   8.492  0.1723 -0.2199  0.3281
   37POPC  H13R 4978   3.514   6.008   8.447  0.6357 -1.6301 -0.3010
   37POPC  H13S 4979   3.460   5.865   8.535 -0.5954 -0.3980  0.5913
   37POPC  C214 4980   3.357   6.044   8.599  0.1270 -0.6387 -0.0837
   37POPC  H14R 4981   3.277   5.980   8.644  1.7547 -1.8639  1.1837
   37POPC  H14S 4982   3.304   6.126   8.547 -0.2046 -1.1277 -0.5382
   37POPC  C215 4983   3.439   6.080   8.717  0.1495 -0.0161 -0.4187
   37POPC  H15R 4984   3.475   6.185   8.704 -1.1096  1.0675  3.3498
   37POPC  H15S 4985   3.530   6.018   8.726  0.3353  0.3950  0.7829
   37POPC  C216 4986   3.364   6.072   8.856  0.2224  0.4404 -0.0865
   37POPC  H16R 4987   3.329   5.967   8.854  2.1825 -0.5013  4.2211
   37POPC  H16S 4988   3.275   6.137   8.851  1.3975  2.1824  0.5151
   37POPC  C217 4989   3.449   6.105   8.983  1.5271 -0.4498 -0.6384
   37POPC  H17R 4990   3.545   6.049   8.984 -0.3729 -4.0582  1.3856
   37POPC  H17S 4991   3.386   6.078   9.070  1.6941 -0.4028 -0.5030
   37POPC  C218 4992   3.488   6.258   9.003  0.3167  0.4298  0.4544
   37POPC  H18R 4993   3.553   6.271   9.092  0.8788  0.5479  0.0354
   37POPC  H18S 4994   3.398   6.322   9.018 -0.5339 -1.1048  2.3897
   37POPC  H18T 4995   3.543   6.300   8.916  1.0103 -0.1194  0.6209
   37POPC   C33 4996   3.859   6.168   7.323 -0.6601 -0.2416  0.3307
   37POPC   H3X 4997   3.823   6.063   7.318  1.5035 -1.2137  2.9693
   37POPC   H3Y 4998   3.780   6.231   7.277  1.2805  1.4125 -0.9187
   37POPC   C34 4999   3.884   6.197   7.472  0.1314  0.0434  0.6784
   37POPC   H4X 5000   3.958   6.278   7.490 -0.1029 -0.0635  2.2412
   37POPC   H4Y 5001   3.953   6.112   7.488  0.6013  0.5599  1.4413
   37POPC   C35 5002   3.763   6.205   7.575  0.5585  0.3088 -0.9068
   37POPC   H5X 5003   3.689   6.122   7.572  2.2364 -1.4162  1.2951
   37POPC   H5Y 5004   3.711   6.296   7.540  1.7236  0.6252 -1.8856
   37POPC   C36 5005   3.815   6.226   7.717 -0.0684  0.1396 -0.6321
   37POPC   H6X 5006   3.921   6.259   7.729  1.0918 -2.8174 -1.7104
   37POPC   H6Y 5007   3.827   6.128   7.770 -0.2239  1.1978  1.4893
   37POPC   C37 5008   3.712   6.293   7.811 -0.0821  0.6330  0.2659
   37POPC   H7X 5009   3.619   6.236   7.792  0.5797 -0.4321  0.1385
   37POPC   H7Y 5010   3.700   6.399   7.782 -0.7888  0.1734 -1.1931
   37POPC   C38 5011   3.732   6.273   7.960 -1.0037  0.4513 -0.0725
   37POPC   H8X 5012   3.806   6.347   7.998 -0.0183  0.4785 -1.9165
   37POPC   H8Y 5013   3.780   6.175   7.981  0.7111  1.5707  1.5582
   37POPC   C39 5014   3.608   6.270   8.048 -0.1745  0.0905 -0.3245
   37POPC   H9X 5015   3.532   6.208   7.997  1.2548 -0.8777 -1.3766
   37POPC   H9Y 5016   3.573   6.375   8.049  0.5302  0.3318  0.3648
   37POPC  C310 5017   3.625   6.216   8.192  0.3141  0.2648 -0.2513
   37POPC  H10X 5018   3.636   6.106   8.183 -2.0156 -0.2723  2.2358
   37POPC  H10Y 5019   3.539   6.235   8.259  1.6868 -0.8754  1.9455
   37POPC  C311 5020   3.741   6.284   8.267  0.1590  0.5993 -0.0251
   37POPC  H11X 5021   3.753   6.389   8.232 -1.3259  0.3215 -1.5503
   37POPC  H11Y 5022   3.831   6.229   8.232  1.2868  2.1455  0.3717
   37POPC  C312 5023   3.752   6.282   8.419 -0.1604 -0.2144  0.0676
   37POPC  H12X 5024   3.837   6.337   8.464  0.8168 -1.7659  0.1925
   37POPC  H12Y 5025   3.763   6.179   8.459 -1.2069 -0.9176 -1.3873
   37POPC  C313 5026   3.625   6.344   8.483  0.0719 -0.9999  0.0538
   37POPC  H13X 5027   3.535   6.280   8.477 -0.4779 -0.4647  1.9602
   37POPC  H13Y 5028   3.604   6.439   8.429  1.5404 -1.7045 -1.8808
   37POPC  C314 5029   3.638   6.373   8.627 -0.5794 -0.3124 -0.5557
   37POPC  H14X 5030   3.676   6.294   8.694  3.3706  1.0292 -0.9620
   37POPC  H14Y 5031   3.541   6.409   8.667  0.9329  1.3199  1.9138
   37POPC  C315 5032   3.740   6.490   8.661 -0.2105 -0.2848  0.3227
   37POPC  H15X 5033   3.709   6.579   8.602 -0.7036 -0.6604  0.0129
   37POPC  H15Y 5034   3.835   6.451   8.619 -1.2375 -1.7988 -0.6715
   37POPC  C316 5035   3.745   6.515   8.808 -0.0055 -0.0730  0.4214
   37POPC  H16X 5036   3.814   6.598   8.832 -0.1321  0.6288 -1.4797
   37POPC  H16Y 5037   3.777   6.420   8.857  1.3952  0.0334 -0.2397
   37POPC  H16Z 5038   3.641   6.544   8.835  0.3625  0.6200  1.1297
   38POPC     N 5039   5.069   1.662   6.277 -0.3135 -0.7484 -0.1721
   38POPC   C12 5040   5.184   1.709   6.359  0.0742  0.1006  0.2259
   38POPC  H12A 5041   5.262   1.747   6.294 -0.8642  0.7988 -0.5262
   38POPC  H12B 5042   5.225   1.618   6.402 -0.1125  0.0442  0.2835
   38POPC   C13 5043   4.997   1.780   6.221 -0.5300 -0.5739  0.6377
   38POPC  H13A 5044   4.909   1.756   6.163 -1.2865  0.4869  1.3055
   38POPC  H13B 5045   4.965   1.854   6.293  0.7950  1.2437 -0.5634
   38POPC  H13C 5046   5.057   1.829   6.146 -0.7336  0.5146  1.1615
   38POPC   C14 5047   5.120   1.580   6.158 -0.0643 -0.1054 -0.1799
   38POPC  H14A 5048   5.179   1.647   6.096 -1.1661 -0.8892 -2.1865
   38POPC  H14B 5049   5.181   1.495   6.184 -1.9883 -2.8888 -3.8642
   38POPC  H14C 5050   5.040   1.554   6.089  0.2266  1.2306 -1.0606
   38POPC   C15 5051   4.974   1.590   6.360  0.1637  0.3041  0.0262
   38POPC  H15A 5052   5.025   1.503   6.401 -0.4907  0.2039  0.6360
   38POPC  H15B 5053   4.877   1.571   6.316  0.0409 -0.6226  0.6606
   38POPC  H15C 5054   4.949   1.656   6.441  0.3670  1.3177 -0.7216
   38POPC   C11 5055   5.161   1.816   6.473 -0.4471  0.3031  0.7823
   38POPC  H11A 5056   5.242   1.801   6.548 -0.0554 -0.6824  0.1994
   38POPC  H11B 5057   5.069   1.777   6.520 -0.5604  0.5676  0.7782
   38POPC     P 5058   5.265   2.024   6.360  0.0430  0.5476 -0.7249
   38POPC   O13 5059   5.210   2.149   6.306 -0.0107 -0.0899  0.1582
   38POPC   O14 5060   5.355   1.944   6.271 -0.1985 -0.4105 -0.2026
   38POPC   O12 5061   5.142   1.944   6.418 -0.4338 -0.5802  0.0959
   38POPC   O11 5062   5.350   2.060   6.487 -0.2384 -0.0910  0.5042
   38POPC    C1 5063   5.325   2.158   6.587 -0.9522 -0.7671 -0.1700
   38POPC    HA 5064   5.215   2.176   6.590 -1.3741 -3.0831  2.0879
   38POPC    HB 5065   5.376   2.251   6.555  3.2493 -3.2456 -1.6064
   38POPC    C2 5066   5.369   2.093   6.724  0.0512  0.3353  0.6433
   38POPC    HS 5067   5.462   2.036   6.703  1.5299  2.3144  1.4607
   38POPC   O21 5068   5.262   2.010   6.787  0.0961 -0.4449  0.6019
   38POPC   C21 5069   5.300   1.895   6.835  0.4073  0.7415 -0.2707
   38POPC   O22 5070   5.417   1.858   6.826  0.0279  0.1600  0.3377
   38POPC   C22 5071   5.193   1.813   6.895  0.0954 -0.3990  0.8752
   38POPC   H2R 5072   5.098   1.847   6.849  2.1184  0.9818 -2.6702
   38POPC   H2S 5073   5.185   1.850   7.000  0.3843  0.7987  0.4911
   38POPC    C3 5074   5.422   2.209   6.822 -0.2910  0.3145 -0.2472
   38POPC    HX 5075   5.339   2.272   6.861  0.5724 -0.1889  2.6914
   38POPC    HY 5076   5.483   2.282   6.766  0.9434 -1.6878 -1.6431
   38POPC   O31 5077   5.477   2.157   6.948 -0.4460  0.3868 -0.3857
   38POPC   C31 5078   5.598   2.097   6.950 -0.0544  0.5500 -0.1061
   38POPC   O32 5079   5.672   2.089   6.855 -0.0220 -0.6959  0.0954
   38POPC   C32 5080   5.617   2.024   7.085 -0.0834  0.1478  0.2926
   38POPC   H2X 5081   5.520   1.978   7.115 -1.1964  1.6073 -0.8663
   38POPC   H2Y 5082   5.636   2.106   7.157 -0.0788 -0.6749  1.2500
   38POPC   C23 5083   5.216   1.660   6.890 -0.0431 -0.4895  0.2196
   38POPC   H3R 5084   5.319   1.634   6.921  1.1263  1.4884 -1.7384
   38POPC   H3S 5085   5.190   1.633   6.786  0.4977 -0.2841  0.0318
   38POPC   C24 5086   5.133   1.585   6.997 -0.2773 -0.0577 -0.2518
   38POPC   H4R 5087   5.028   1.621   6.996  0.7886  3.4951 -2.6671
   38POPC   H4S 5088   5.174   1.615   7.096 -0.9094 -0.4338  0.1351
   38POPC   C25 5089   5.132   1.438   6.970  0.0156 -0.2721  0.1344
   38POPC   H5R 5090   5.231   1.394   6.991 -0.7475 -1.0704  2.3623
   38POPC   H5S 5091   5.111   1.426   6.861  1.0040  4.4958 -0.8003
   38POPC   C26 5092   5.031   1.359   7.053 -0.2188 -0.6271 -0.0524
   38POPC   H6R 5093   5.025   1.254   7.016  0.3583 -0.3708 -0.8920
   38POPC   H6S 5094   4.931   1.404   7.037  0.3366  0.4978 -0.4241
   38POPC   C27 5095   5.068   1.343   7.197 -0.1354 -0.5203  0.1300
   38POPC   H7R 5096   5.108   1.441   7.232  0.3841  0.4047 -2.8220
   38POPC   H7S 5097   5.151   1.272   7.209 -0.5493 -1.2844 -1.3718
   38POPC   C28 5098   4.949   1.300   7.285  0.1765 -0.0917 -0.4614
   38POPC   H8R 5099   4.898   1.211   7.242 -0.8937 -2.4503  4.8106
   38POPC   H8S 5100   4.880   1.386   7.301 -1.8916 -1.6132 -0.7448
   38POPC   C29 5101   5.006   1.255   7.415  0.5795 -0.2844 -0.3827
   38POPC   H91 5102   5.024   1.331   7.493 -1.1402  0.1614 -0.3860
   38POPC  C210 5103   5.046   1.128   7.444  0.1138  0.5206  0.2518
   38POPC  H101 5104   5.072   1.107   7.549  0.0880 -0.7469  0.0249
   38POPC  C211 5105   5.035   1.007   7.354 -0.7052  0.1353  0.6731
   38POPC  H11R 5106   5.123   0.943   7.380 -0.5574  0.2694  0.5052
   38POPC  H11S 5107   5.037   1.031   7.245  0.6296  0.5154  0.7571
   38POPC  C212 5108   4.913   0.914   7.395 -0.1352 -0.4397 -0.7631
   38POPC  H12R 5109   4.922   0.835   7.317 -0.0755  1.0628 -2.3370
   38POPC  H12S 5110   4.820   0.972   7.381  0.6547  1.1554  0.3355
   38POPC  C213 5111   4.912   0.880   7.548 -0.1461  0.0975  0.5514
   38POPC  H13R 5112   4.898   0.967   7.615 -2.4110 -0.6105  1.0837
   38POPC  H13S 5113   5.012   0.841   7.576 -0.7310 -1.0763  1.0822
   38POPC  C214 5114   4.815   0.767   7.594  0.2751  1.1067 -0.3012
   38POPC  H14R 5115   4.854   0.669   7.558  0.1788 -0.1811  2.8259
   38POPC  H14S 5116   4.712   0.790   7.557 -0.7101 -0.2948  1.4121
   38POPC  C215 5117   4.804   0.761   7.746  0.1597 -0.2984  0.0112
   38POPC  H15R 5118   4.751   0.851   7.784 -0.4152 -1.7809  3.0173
   38POPC  H15S 5119   4.904   0.771   7.793  0.5134  0.3376 -0.8300
   38POPC  C216 5120   4.735   0.636   7.800 -0.2557  0.0512 -0.0385
   38POPC  H16R 5121   4.815   0.559   7.801 -0.0359  0.2709  1.2719
   38POPC  H16S 5122   4.651   0.625   7.728 -0.3163  3.5257 -0.6827
   38POPC  C217 5123   4.680   0.646   7.938  0.2858  0.5133  0.4949
   38POPC  H17R 5124   4.622   0.738   7.961  0.4371  0.8443 -0.3948
   38POPC  H17S 5125   4.767   0.633   8.006  0.3048  0.2992  0.4305
   38POPC  C218 5126   4.585   0.530   7.973  0.2654  0.2348  0.9588
   38POPC  H18R 5127   4.496   0.530   7.907  0.4600  2.2552  0.6321
   38POPC  H18S 5128   4.561   0.523   8.082  1.3856 -2.9176  1.0955
   38POPC  H18T 5129   4.634   0.431   7.960 -1.1452 -0.4622  0.7116
   38POPC   C33 5130   5.733   1.927   7.088  0.7989  0.0138  0.2519
   38POPC   H3X 5131   5.835   1.972   7.085  0.9602 -0.3303  0.4416
   38POPC   H3Y 5132   5.728   1.856   7.002 -3.0566  0.6464 -0.1912
   38POPC   C34 5133   5.726   1.837   7.211 -0.4245 -0.3408 -0.3774
   38POPC   H4X 5134   5.765   1.735   7.192  0.7916 -0.0406  0.4087
   38POPC   H4Y 5135   5.621   1.831   7.247 -0.3907  2.1672  0.3851
   38POPC   C35 5136   5.792   1.905   7.337  0.6173  0.3665  0.1018
   38POPC   H5X 5137   5.732   1.998   7.351  0.5884  0.2688  0.6429
   38POPC   H5Y 5138   5.894   1.946   7.322  0.6296  0.5306  0.6403
   38POPC   C36 5139   5.794   1.821   7.462 -0.1682  0.1941 -0.1409
   38POPC   H6X 5140   5.887   1.851   7.515  0.1157 -2.2602  0.8787
   38POPC   H6Y 5141   5.801   1.713   7.438 -1.8834  0.0400 -0.0691
   38POPC   C37 5142   5.691   1.851   7.566  0.4291 -0.0458  0.2287
   38POPC   H7X 5143   5.600   1.800   7.529 -0.5690  2.4671 -0.9895
   38POPC   H7Y 5144   5.670   1.960   7.566 -0.0104 -0.1318 -0.3596
   38POPC   C38 5145   5.728   1.824   7.709 -0.5360  0.2540  0.1825
   38POPC   H8X 5146   5.833   1.859   7.724 -0.6354  0.4043  0.5556
   38POPC   H8Y 5147   5.726   1.717   7.739 -0.1984 -0.3839 -1.9018
   38POPC   C39 5148   5.640   1.901   7.805 -0.1012  0.2811 -0.2678
   38POPC   H9X 5149   5.539   1.888   7.759 -0.0713 -0.4988 -0.1386
   38POPC   H9Y 5150   5.669   2.008   7.810 -2.1153  0.8007  2.9680
   38POPC  C310 5151   5.631   1.848   7.944 -0.0155  0.1428 -0.6736
   38POPC  H10X 5152   5.607   1.740   7.934  0.6960 -0.0837  0.0037
   38POPC  H10Y 5153   5.543   1.895   7.995 -0.3285 -1.0288 -0.0926
   38POPC  C311 5154   5.755   1.855   8.033  0.0987 -0.1682  0.6963
   38POPC  H11X 5155   5.766   1.964   8.052 -2.8733  0.3753 -0.2306
   38POPC  H11Y 5156   5.850   1.832   7.979 -1.3052 -1.8021 -1.2460
   38POPC  C312 5157   5.752   1.783   8.167 -0.2395  0.5574  0.5216
   38POPC  H12X 5158   5.757   1.678   8.131  0.3395  1.3279 -1.8259
   38POPC  H12Y 5159   5.647   1.794   8.203 -1.2712  1.5253 -2.4216
   38POPC  C313 5160   5.863   1.816   8.267  0.5056 -0.3305  0.5089
   38POPC  H13X 5161   5.832   1.778   8.367 -1.6792 -0.0420 -0.0071
   38POPC  H13Y 5162   5.869   1.926   8.280  0.5241 -0.0933 -1.2638
   38POPC  C314 5163   6.001   1.781   8.218 -0.8354 -0.1737 -0.3398
   38POPC  H14X 5164   6.025   1.845   8.130 -3.2347 -0.9025 -1.6467
   38POPC  H14Y 5165   6.003   1.680   8.171 -0.2451  0.4274 -1.6342
   38POPC  C315 5166   6.107   1.779   8.327 -0.8068 -0.0505 -0.6472
   38POPC  H15X 5167   6.205   1.743   8.290  0.3007  2.5940 -0.5135
   38POPC  H15Y 5168   6.077   1.721   8.417  0.9221  1.1478  0.7676
   38POPC  C316 5169   6.133   1.916   8.376 -1.1885  0.7623 -0.0728
   38POPC  H16X 5170   6.048   1.977   8.413 -1.1583  0.8971 -0.2266
   38POPC  H16Y 5171   6.197   1.979   8.311  0.5928 -0.6770  0.1951
   38POPC  H16Z 5172   6.183   1.911   8.475  3.1092  0.6559 -2.0213
   39POPC     N 5173   2.010   1.257   5.804 -0.1041  0.3496 -0.3106
   39POPC   C12 5174   1.946   1.288   5.932 -0.4221 -0.4551 -0.3490
   39POPC  H12A 5175   1.908   1.195   5.971 -0.0458 -0.4735 -0.0138
   39POPC  H12B 5176   1.866   1.359   5.920 -1.0332 -1.0831 -0.1108
   39POPC   C13 5177   2.063   1.382   5.732  0.2671  0.0206 -0.2330
   39POPC  H13A 5178   2.107   1.360   5.636 -1.2805 -1.7465 -0.6067
   39POPC  H13B 5179   1.978   1.446   5.713  0.7645  0.9757  0.6795
   39POPC  H13C 5180   2.129   1.453   5.779 -0.4912  2.1333 -2.2023
   39POPC   C14 5181   2.124   1.163   5.815 -0.2606  0.1060 -0.4807
   39POPC  H14A 5182   2.146   1.125   5.717 -0.0286  0.8731 -0.7305
   39POPC  H14B 5183   2.212   1.212   5.856  0.6754 -1.2937 -0.7435
   39POPC  H14C 5184   2.112   1.077   5.880  0.0666 -0.3759 -1.0523
   39POPC   C15 5185   1.914   1.201   5.707 -0.5761  0.0833  0.1795
   39POPC  H15A 5186   1.867   1.107   5.734  0.3847  0.0130  1.7243
   39POPC  H15B 5187   1.958   1.184   5.609  1.5885 -0.7422  1.2264
   39POPC  H15C 5188   1.832   1.267   5.683 -2.2016 -1.2710  1.7364
   39POPC   C11 5189   2.044   1.354   6.030  0.0848  0.2317  0.9630
   39POPC  H11A 5190   2.149   1.322   6.011 -0.3124 -0.6083  0.0759
   39POPC  H11B 5191   2.017   1.328   6.135 -0.3136 -0.0345  0.7963
   39POPC     P 5192   1.912   1.587   6.042  0.0001  0.0581  0.0459
   39POPC   O13 5193   1.789   1.527   5.988  0.6753  0.0255  0.0472
   39POPC   O14 5194   1.947   1.729   6.000  0.0785 -0.0526  0.4223
   39POPC   O12 5195   2.039   1.497   6.003  0.0289  0.4682 -0.1872
   39POPC   O11 5196   1.897   1.590   6.202 -0.0995 -0.1312  0.4072
   39POPC    C1 5197   1.983   1.667   6.286 -0.1496  1.2906  0.3945
   39POPC    HA 5198   1.915   1.715   6.360 -2.0281 -1.1975  0.4245
   39POPC    HB 5199   2.027   1.746   6.223  0.7944 -0.4171 -1.1641
   39POPC    C2 5200   2.080   1.572   6.358 -0.0073  0.0387  0.1193
   39POPC    HS 5201   2.124   1.511   6.276  0.4199  0.8316 -0.2525
   39POPC   O21 5202   2.012   1.494   6.455  0.2216 -0.1771  0.1789
   39POPC   C21 5203   2.071   1.378   6.491 -1.0253  0.0615 -0.5017
   39POPC   O22 5204   2.176   1.337   6.442 -0.0573 -0.2365 -0.0389
   39POPC   C22 5205   1.993   1.312   6.601 -0.0720  0.0533 -0.4930
   39POPC   H2R 5206   2.008   1.202   6.587  0.2591  0.1583 -1.0245
   39POPC   H2S 5207   1.883   1.327   6.597 -0.2840 -1.2525 -0.1471
   39POPC    C3 5208   2.193   1.660   6.422  0.3329 -0.3030  0.9894
   39POPC    HX 5209   2.147   1.708   6.511 -1.5566 -0.4102  0.1200
   39POPC    HY 5210   2.220   1.733   6.342 -4.3799  1.6217  0.8820
   39POPC   O31 5211   2.311   1.580   6.460  0.7781  0.6966  0.1737
   39POPC   C31 5212   2.423   1.644   6.470 -0.0962 -0.3865  0.3971
   39POPC   O32 5213   2.446   1.763   6.458  0.6939  0.5606 -0.6868
   39POPC   C32 5214   2.537   1.540   6.477  0.5582 -0.2264  0.0018
   39POPC   H2X 5215   2.503   1.447   6.428 -4.1634  2.0059 -1.5413
   39POPC   H2Y 5216   2.629   1.581   6.429 -0.0334 -0.4514 -1.3409
   39POPC   C23 5217   2.050   1.350   6.740  0.1328  0.0594 -0.2286
   39POPC   H3R 5218   2.156   1.316   6.743  0.5978  1.5101  0.9196
   39POPC   H3S 5219   2.004   1.290   6.823 -1.0312 -2.3658 -2.4787
   39POPC   C24 5220   2.055   1.501   6.759 -0.8336  0.5148 -0.6758
   39POPC   H4R 5221   1.958   1.549   6.784 -0.4886  1.9927 -2.0124
   39POPC   H4S 5222   2.090   1.561   6.672 -0.2024  1.3817  0.1553
   39POPC   C25 5223   2.155   1.535   6.863  0.5880  0.0544  0.6241
   39POPC   H5R 5224   2.167   1.645   6.869  0.8008  0.3008 -2.4972
   39POPC   H5S 5225   2.255   1.501   6.829  0.3806 -0.4529  0.5052
   39POPC   C26 5226   2.142   1.491   7.009 -0.8933 -0.0495  0.0845
   39POPC   H6R 5227   2.127   1.381   7.010 -0.1476 -0.2620 -2.9432
   39POPC   H6S 5228   2.063   1.548   7.062  0.6123  1.7062  0.5773
   39POPC   C27 5229   2.275   1.513   7.088  0.7889 -0.2070 -0.1603
   39POPC   H7R 5230   2.312   1.605   7.038  0.2513 -0.9982 -2.1269
   39POPC   H7S 5231   2.349   1.432   7.070  0.3259 -1.1957  2.0212
   39POPC   C28 5232   2.257   1.519   7.238 -0.4610  0.2973  0.6901
   39POPC   H8R 5233   2.264   1.421   7.292 -0.9023 -0.5900 -0.8154
   39POPC   H8S 5234   2.157   1.557   7.267 -0.5102 -0.2806  1.3195
   39POPC   C29 5235   2.367   1.606   7.290  0.7779  0.0097  0.0425
   39POPC   H91 5236   2.390   1.694   7.229 -1.6169  0.3487 -0.4785
   39POPC  C210 5237   2.426   1.589   7.412 -0.1415  0.0986  0.3819
   39POPC  H101 5238   2.514   1.650   7.439  1.9559 -2.7119  0.4376
   39POPC  C211 5239   2.416   1.480   7.515 -0.3776  0.1149  0.1719
   39POPC  H11R 5240   2.518   1.448   7.544 -0.0657  1.0543  0.1500
   39POPC  H11S 5241   2.367   1.386   7.481  0.7025 -1.0005  1.5731
   39POPC  C212 5242   2.360   1.521   7.654 -0.1108 -0.3097 -0.4953
   39POPC  H12R 5243   2.348   1.431   7.719 -0.0064  0.2001  0.2438
   39POPC  H12S 5244   2.257   1.562   7.654 -1.5666 -3.5560  1.0233
   39POPC  C213 5245   2.458   1.630   7.720 -0.4715  0.3072 -0.3153
   39POPC  H13R 5246   2.451   1.729   7.670  0.3794  0.5945  0.1132
   39POPC  H13S 5247   2.556   1.584   7.695 -0.7530 -0.2627 -0.3837
   39POPC  C214 5248   2.429   1.636   7.873  0.3520 -0.5484  0.2020
   39POPC  H14R 5249   2.319   1.646   7.886  0.0375 -3.4682  0.4058
   39POPC  H14S 5250   2.460   1.729   7.925 -1.1260  0.8716 -1.3435
   39POPC  C215 5251   2.472   1.509   7.948 -0.1618 -0.4597 -0.8895
   39POPC  H15R 5252   2.581   1.498   7.929 -0.1090  0.3620 -1.1165
   39POPC  H15S 5253   2.421   1.415   7.922  2.7583 -2.8424  1.2783
   39POPC  C216 5254   2.493   1.534   8.100  0.5103  0.4871 -0.6422
   39POPC  H16R 5255   2.545   1.629   8.125  0.3175  0.0766  1.5263
   39POPC  H16S 5256   2.537   1.444   8.147 -0.1364  0.8210  0.6446
   39POPC  C217 5257   2.372   1.560   8.191  0.5589 -0.4847 -0.1341
   39POPC  H17R 5258   2.306   1.470   8.188 -1.1285  0.7230 -1.0567
   39POPC  H17S 5259   2.300   1.637   8.157 -0.7045 -0.5025  2.2705
   39POPC  C218 5260   2.409   1.582   8.341  0.3369 -0.4770  0.5487
   39POPC  H18R 5261   2.448   1.685   8.354  1.3737 -0.3804 -2.5685
   39POPC  H18S 5262   2.489   1.513   8.374  1.7078  0.5537 -0.4988
   39POPC  H18T 5263   2.325   1.571   8.414  0.9295 -0.9633  1.1659
   39POPC   C33 5264   2.575   1.517   6.627 -1.1103 -0.5331  0.4377
   39POPC   H3X 5265   2.560   1.613   6.681 -0.9044  0.0224 -0.4632
   39POPC   H3Y 5266   2.682   1.489   6.631 -1.6182 -2.7479 -0.0415
   39POPC   C34 5267   2.498   1.402   6.695  0.2425 -0.4210  0.0548
   39POPC   H4X 5268   2.531   1.315   6.635 -0.6262 -0.9659  0.3621
   39POPC   H4Y 5269   2.387   1.410   6.697  0.1925 -0.4943 -1.4319
   39POPC   C35 5270   2.546   1.372   6.834 -0.5925  0.2362  0.0182
   39POPC   H5X 5271   2.483   1.304   6.896  0.3663 -0.9282 -0.2642
   39POPC   H5Y 5272   2.554   1.475   6.875  2.2810  0.9450 -2.0591
   39POPC   C36 5273   2.683   1.305   6.837  1.0315 -0.1512  0.0127
   39POPC   H6X 5274   2.771   1.373   6.836  0.4700  0.6226 -1.9988
   39POPC   H6Y 5275   2.698   1.246   6.744  2.6174 -0.3163  0.3576
   39POPC   C37 5276   2.711   1.209   6.959 -0.2915  0.5233  0.7787
   39POPC   H7X 5277   2.806   1.154   6.940 -0.2349  0.9482 -0.2345
   39POPC   H7Y 5278   2.630   1.134   6.946 -0.5540  1.0825 -1.2072
   39POPC   C38 5279   2.714   1.283   7.091  0.9497 -0.0121  0.1172
   39POPC   H8X 5280   2.648   1.372   7.102 -1.1762 -1.6454  1.4762
   39POPC   H8Y 5281   2.813   1.331   7.102  0.6344  0.9771 -1.1195
   39POPC   C39 5282   2.682   1.195   7.214 -0.3347 -0.1805  0.2493
   39POPC   H9X 5283   2.750   1.108   7.218 -1.3561 -0.9832  0.7823
   39POPC   H9Y 5284   2.581   1.152   7.193 -1.8019  1.2119  3.6184
   39POPC  C310 5285   2.691   1.259   7.355  0.0710  0.2081 -0.1374
   39POPC  H10X 5286   2.632   1.353   7.350 -2.2620 -1.1424  0.4056
   39POPC  H10Y 5287   2.798   1.281   7.374  0.2182 -1.4050  1.1350
   39POPC  C311 5288   2.630   1.176   7.474  0.2865  0.3030 -0.0311
   39POPC  H11X 5289   2.642   1.071   7.441  2.3941  0.8092 -1.1127
   39POPC  H11Y 5290   2.520   1.186   7.473  0.2378 -0.1582  0.3263
   39POPC  C312 5291   2.689   1.208   7.608 -0.2018 -0.0479  0.5296
   39POPC  H12X 5292   2.691   1.318   7.620  2.1595 -0.1886  2.1297
   39POPC  H12Y 5293   2.793   1.168   7.617  0.7596  1.3977 -2.5701
   39POPC  C313 5294   2.602   1.154   7.722 -0.1065  0.1929  0.3468
   39POPC  H13X 5295   2.592   1.046   7.702  1.4058 -0.1071  1.0673
   39POPC  H13Y 5296   2.507   1.210   7.706 -0.6912 -1.3925 -2.1623
   39POPC  C314 5297   2.669   1.174   7.852 -0.3273 -0.0641 -0.9691
   39POPC  H14X 5298   2.693   1.283   7.859  2.3775 -0.6790  2.2702
   39POPC  H14Y 5299   2.765   1.118   7.857 -0.3662 -0.2294 -1.9196
   39POPC  C315 5300   2.584   1.138   7.972  0.9708  0.7458 -0.4357
   39POPC  H15X 5301   2.551   1.034   7.953  2.1376  0.4715 -1.0903
   39POPC  H15Y 5302   2.492   1.197   7.988  0.5852 -0.2008  1.0033
   39POPC  C316 5303   2.677   1.132   8.098 -0.1403 -0.2964 -0.0413
   39POPC  H16X 5304   2.625   1.106   8.192 -0.6201  1.0192  0.0746
   39POPC  H16Y 5305   2.737   1.226   8.101 -1.9025  1.0376 -2.4874
   39POPC  H16Z 5306   2.753   1.053   8.080 -0.2307 -0.3274 -0.2974
   40POPC     N 5307   1.331   4.024   5.966  0.2780 -0.3572 -0.9932
   40POPC   C12 5308   1.291   4.123   6.074 -0.8948  0.2909  0.4091
   40POPC  H12A 5309   1.184   4.137   6.067 -1.2772 -1.3675  1.9252
   40POPC  H12B 5310   1.335   4.220   6.060  0.5069 -0.2654  0.7824
   40POPC   C13 5311   1.285   4.078   5.838 -0.0930 -0.0955 -0.0447
   40POPC  H13A 5312   1.338   4.163   5.799 -1.2512  0.8744  0.4395
   40POPC  H13B 5313   1.294   3.998   5.766 -1.1320 -1.7390  1.5596
   40POPC  H13C 5314   1.182   4.107   5.851  0.0417  0.7344 -0.7185
   40POPC   C14 5315   1.477   3.997   5.969 -0.0500  0.1703 -0.4897
   40POPC  H14A 5316   1.497   3.923   5.893 -3.4369 -2.4365  0.8461
   40POPC  H14B 5317   1.536   4.085   5.953  2.4692 -1.3647 -0.1155
   40POPC  H14C 5318   1.499   3.957   6.067  0.5379  1.3364 -0.1300
   40POPC   C15 5319   1.263   3.900   5.986 -0.4951  0.3407 -0.5216
   40POPC  H15A 5320   1.308   3.812   5.942 -0.1499 -0.5801  1.5589
   40POPC  H15B 5321   1.159   3.917   5.960 -0.4931 -0.7756 -1.3662
   40POPC  H15C 5322   1.271   3.874   6.091  1.4294  3.8677  0.3583
   40POPC   C11 5323   1.321   4.079   6.222 -0.1342 -0.9067  0.2136
   40POPC  H11A 5324   1.262   3.987   6.240 -2.8829  0.6563 -0.1359
   40POPC  H11B 5325   1.284   4.157   6.293 -1.7044 -2.8429  1.6526
   40POPC     P 5326   1.549   4.185   6.303  0.0964 -0.0837  0.0587
   40POPC   O13 5327   1.533   4.296   6.203  0.3176  0.0419 -0.0591
   40POPC   O14 5328   1.689   4.140   6.331  0.3487 -0.2924  0.2369
   40POPC   O12 5329   1.458   4.064   6.251  0.2029  0.0460  0.1899
   40POPC   O11 5330   1.475   4.231   6.428 -0.0207  0.0185  0.1945
   40POPC    C1 5331   1.475   4.161   6.557 -0.2716 -0.0861 -0.7045
   40POPC    HA 5332   1.472   4.052   6.538 -1.1994 -0.3063  0.5330
   40POPC    HB 5333   1.379   4.179   6.610 -0.0551 -1.4819  0.2202
   40POPC    C2 5334   1.604   4.202   6.634 -0.1703  0.2334 -0.4326
   40POPC    HS 5335   1.697   4.213   6.574  1.4548  1.0299  2.0462
   40POPC   O21 5336   1.622   4.111   6.741  0.3501 -0.0547  0.0838
   40POPC   C21 5337   1.727   4.119   6.809  0.0434  0.9706  0.3015
   40POPC   O22 5338   1.822   4.195   6.787 -0.0222 -0.4227 -0.0611
   40POPC   C22 5339   1.736   4.012   6.916  0.6247  0.4530 -0.0485
   40POPC   H2R 5340   1.839   3.986   6.946  0.6182  0.9008  0.3790
   40POPC   H2S 5341   1.691   3.921   6.871 -1.2725  0.9437  0.7312
   40POPC    C3 5342   1.582   4.348   6.684 -0.4500 -0.3643 -0.5185
   40POPC    HX 5343   1.513   4.393   6.610 -1.6236  1.1651  1.4153
   40POPC    HY 5344   1.683   4.394   6.689 -0.3826 -0.4740 -0.8749
   40POPC   O31 5345   1.518   4.355   6.815  0.0572 -0.5610 -0.2181
   40POPC   C31 5346   1.532   4.475   6.874 -0.8663  0.0736 -0.2274
   40POPC   O32 5347   1.585   4.571   6.826 -0.0869 -0.2570 -0.5847
   40POPC   C32 5348   1.482   4.463   7.022  0.1142  0.3739 -0.5368
   40POPC   H2X 5349   1.512   4.358   7.045  1.9902  1.2230  1.2774
   40POPC   H2Y 5350   1.372   4.469   7.015  0.2392  0.8612 -2.7908
   40POPC   C23 5351   1.645   4.043   7.039 -0.1977 -0.5844 -0.0881
   40POPC   H3R 5352   1.598   3.950   7.079 -1.1241  0.1667  0.6269
   40POPC   H3S 5353   1.570   4.117   7.005  0.8445  0.0549 -1.0521
   40POPC   C24 5354   1.723   4.125   7.145 -0.8204  0.1000  0.5137
   40POPC   H4R 5355   1.771   4.221   7.115  3.0309 -1.2878  1.5738
   40POPC   H4S 5356   1.801   4.059   7.190 -3.0119 -1.9272  1.5595
   40POPC   C25 5357   1.633   4.174   7.257  0.3900  0.3985  0.6934
   40POPC   H5R 5358   1.553   4.246   7.228 -0.1061 -1.0413 -1.8294
   40POPC   H5S 5359   1.690   4.243   7.323 -0.8730  1.3890  0.7984
   40POPC   C26 5360   1.583   4.064   7.352 -0.4995 -0.0711  0.8658
   40POPC   H6R 5361   1.658   3.982   7.361 -0.8011 -0.5181 -0.4745
   40POPC   H6S 5362   1.505   3.998   7.309 -0.2096 -0.1649  0.4761
   40POPC   C27 5363   1.544   4.124   7.489 -0.1219  0.1856  0.2101
   40POPC   H7R 5364   1.470   4.207   7.488  0.1845  0.4575 -0.3679
   40POPC   H7S 5365   1.639   4.164   7.532 -0.4627 -0.2718  1.4374
   40POPC   C28 5366   1.508   4.016   7.586 -0.3841  0.2869  0.2552
   40POPC   H8R 5367   1.415   3.966   7.553 -2.2794  0.9145  4.0095
   40POPC   H8S 5368   1.468   4.069   7.676  0.2976  2.5730 -0.7096
   40POPC   C29 5369   1.609   3.910   7.614 -0.2233  0.2526 -0.3416
   40POPC   H91 5370   1.619   3.834   7.535 -0.5899  0.1786 -0.3207
   40POPC  C210 5371   1.687   3.910   7.730  0.1566 -0.2141  0.0126
   40POPC  H101 5372   1.748   3.819   7.743 -0.0761 -0.6912 -1.8950
   40POPC  C211 5373   1.685   4.004   7.846  0.0298  0.3937 -0.3835
   40POPC  H11R 5374   1.636   4.101   7.820 -1.4532 -0.1413  0.2770
   40POPC  H11S 5375   1.791   4.027   7.869 -0.1567  3.7195 -2.1147
   40POPC  C212 5376   1.606   3.962   7.969 -0.3457 -0.1901 -0.2860
   40POPC  H12R 5377   1.657   3.869   8.001 -1.5489 -0.5677  0.6126
   40POPC  H12S 5378   1.504   3.945   7.931 -0.6684 -0.7048  0.7679
   40POPC  C213 5379   1.609   4.052   8.088  0.3141  0.2530 -0.6909
   40POPC  H13R 5380   1.602   4.155   8.046 -0.3990  0.2148 -0.6636
   40POPC  H13S 5381   1.709   4.051   8.137  0.6326  0.4146 -1.3236
   40POPC  C214 5382   1.500   4.004   8.184  0.6966  0.2800 -0.4551
   40POPC  H14R 5383   1.506   3.895   8.203  1.8376  0.3897 -0.1029
   40POPC  H14S 5384   1.398   4.013   8.142 -1.4935  0.7884  4.4050
   40POPC  C215 5385   1.501   4.077   8.328 -0.0897  0.4079  0.0329
   40POPC  H15R 5386   1.415   4.041   8.390  0.3860  1.1854  1.1831
   40POPC  H15S 5387   1.505   4.187   8.313  2.7601  0.3980  0.2293
   40POPC  C216 5388   1.629   4.033   8.411  0.2541 -0.0399  0.8176
   40POPC  H16R 5389   1.710   4.105   8.383  0.2188  0.1294  1.1469
   40POPC  H16S 5390   1.662   3.930   8.387 -0.1966 -0.1581  0.7045
   40POPC  C217 5391   1.618   4.048   8.565 -0.0027  0.1207 -0.3828
   40POPC  H17R 5392   1.524   3.993   8.588 -0.9541  1.1334 -1.6427
   40POPC  H17S 5393   1.619   4.149   8.612 -3.2263 -0.5798  1.4818
   40POPC  C218 5394   1.740   3.979   8.631  0.4136  0.1801 -0.0920
   40POPC  H18R 5395   1.754   3.874   8.600  0.1136 -0.3245  1.4290
   40POPC  H18S 5396   1.741   3.988   8.742  0.2895 -2.0819  0.1303
   40POPC  H18T 5397   1.833   4.028   8.593  1.1194  1.3479  2.8472
   40POPC   C33 5398   1.548   4.564   7.120  0.0448 -0.4065  0.2135
   40POPC   H3X 5399   1.519   4.668   7.093 -2.0463 -0.7204  1.0319
   40POPC   H3Y 5400   1.654   4.552   7.090 -0.2559 -0.6811 -0.8028
   40POPC   C34 5401   1.534   4.532   7.281  0.0971 -0.0895 -0.0422
   40POPC   H4X 5402   1.507   4.425   7.285 -0.2062 -0.0153 -0.0972
   40POPC   H4Y 5403   1.439   4.576   7.317  0.8043  1.2075  0.2951
   40POPC   C35 5404   1.654   4.568   7.360 -0.4352 -0.5803  0.2154
   40POPC   H5X 5405   1.684   4.673   7.342 -1.7552 -0.3868 -1.0608
   40POPC   H5Y 5406   1.742   4.506   7.332  1.3739  1.4429  1.1583
   40POPC   C36 5407   1.632   4.556   7.510 -0.1765  0.0186 -1.0945
   40POPC   H6X 5408   1.621   4.450   7.541  0.9297  0.5458  1.3467
   40POPC   H6Y 5409   1.535   4.606   7.534  1.7465  3.1916  0.7143
   40POPC   C37 5410   1.742   4.621   7.589  0.3133  0.5313  0.0434
   40POPC   H7X 5411   1.748   4.727   7.556 -0.5374  0.8963  1.0095
   40POPC   H7Y 5412   1.834   4.566   7.560  0.4736  0.6643  0.2952
   40POPC   C38 5413   1.722   4.615   7.739  0.4464 -0.6479 -0.1808
   40POPC   H8X 5414   1.679   4.706   7.785  0.7559 -0.2734 -0.6175
   40POPC   H8Y 5415   1.828   4.614   7.773 -0.2965 -0.7981  2.3099
   40POPC   C39 5416   1.668   4.486   7.799 -0.1687 -0.7895 -0.2246
   40POPC   H9X 5417   1.731   4.412   7.744 -0.0939  0.0649 -1.3328
   40POPC   H9Y 5418   1.560   4.468   7.777 -0.2107  0.6680 -1.4161
   40POPC  C310 5419   1.701   4.454   7.950  0.1766 -0.5161  0.1132
   40POPC  H10X 5420   1.795   4.509   7.970  0.5340 -1.0788  0.0157
   40POPC  H10Y 5421   1.737   4.349   7.953  2.4240  0.1653 -0.8846
   40POPC  C311 5422   1.582   4.480   8.042 -0.2529 -0.1870  0.7318
   40POPC  H11X 5423   1.506   4.400   8.024 -0.2308 -0.0040 -0.2298
   40POPC  H11Y 5424   1.536   4.579   8.022  0.0134 -0.0953  0.5759
   40POPC  C312 5425   1.626   4.491   8.183  0.0704 -0.3637  0.0418
   40POPC  H12X 5426   1.697   4.576   8.188  1.4283 -1.2377 -2.6767
   40POPC  H12Y 5427   1.687   4.401   8.205  0.7523  0.5345  2.1557
   40POPC  C313 5428   1.508   4.506   8.282 -0.5289 -0.4139  0.1144
   40POPC  H13X 5429   1.443   4.416   8.278 -1.9572  0.5941 -3.6786
   40POPC  H13Y 5430   1.456   4.601   8.255  3.0933  1.5827 -0.4699
   40POPC  C314 5431   1.557   4.532   8.422 -0.9098  0.0917  0.6911
   40POPC  H14X 5432   1.632   4.614   8.420  0.5057 -1.1449  1.1654
   40POPC  H14Y 5433   1.616   4.447   8.463  0.0928  1.0806  1.3384
   40POPC  C315 5434   1.443   4.561   8.518 -0.1082  1.0099  0.0533
   40POPC  H15X 5435   1.348   4.508   8.494 -2.3756  2.2360  5.0123
   40POPC  H15Y 5436   1.426   4.668   8.495 -2.6568  0.2197 -2.3354
   40POPC  C316 5437   1.470   4.531   8.665 -0.2694 -0.1430  0.8408
   40POPC  H16X 5438   1.579   4.537   8.685 -0.1453  1.8253 -0.1846
   40POPC  H16Y 5439   1.439   4.425   8.675  2.0210 -0.8989  0.3613
   40POPC  H16Z 5440   1.411   4.595   8.735  0.8069 -0.2186  1.8612
   41CHL1    C3 5441   6.389   1.776  10.260  0.0540 -0.2646  0.2035
   41CHL1    H3 5442   6.381   1.878  10.216  1.3303 -0.2034  0.0783
   41CHL1    O3 5443   6.401   1.761  10.401  0.0494  0.1233 -0.1554
   41CHL1   H3' 5444   6.380   1.668  10.414  1.4694 -0.2781 -0.5812
   41CHL1    C4 5445   6.274   1.688  10.208 -0.1290  0.4264 -0.3221
   41CHL1   H4A 5446   6.282   1.579  10.227  0.7492  0.3766 -0.8800
   41CHL1   H4B 5447   6.180   1.720  10.256 -1.9048 -1.2938 -2.4518
   41CHL1    C5 5448   6.274   1.709  10.055 -0.9834  0.1482 -0.2482
   41CHL1    C6 5449   6.157   1.747  10.005  0.2431 -0.4621 -0.2995
   41CHL1    H6 5450   6.073   1.768  10.073  0.6777 -0.6994  0.3203
   41CHL1    C7 5451   6.139   1.768   9.852  0.6135  0.2544 -0.9654
   41CHL1   H7A 5452   6.037   1.740   9.818  0.1764  1.4345 -0.6726
   41CHL1   H7B 5453   6.140   1.877   9.827 -0.5528  0.3547 -0.6388
   41CHL1    C8 5454   6.248   1.700   9.765 -0.1289  0.2059  0.5422
   41CHL1    H8 5455   6.218   1.593   9.761 -2.0781  0.7326 -0.3129
   41CHL1   C14 5456   6.245   1.757   9.627  0.0443 -0.0637 -0.2476
   41CHL1   H14 5457   6.281   1.862   9.633 -2.2749  0.9725 -2.6138
   41CHL1   C15 5458   6.103   1.771   9.567  0.1958  0.0188  0.2708
   41CHL1  H15A 5459   6.043   1.678   9.573 -0.6424  0.5376  0.1140
   41CHL1  H15B 5460   6.042   1.855   9.608  1.3680  0.1871  1.7558
   41CHL1   C16 5461   6.139   1.793   9.415 -0.7787  0.1008  0.0333
   41CHL1  H16A 5462   6.074   1.718   9.366 -0.0171 -1.9908  2.0559
   41CHL1  H16B 5463   6.124   1.897   9.377  1.0331  0.5717  0.5060
   41CHL1   C17 5464   6.291   1.761   9.397  0.6585  0.1011 -1.3030
   41CHL1   H17 5465   6.330   1.865   9.408  1.8945 -0.5049  0.9462
   41CHL1   C13 5466   6.342   1.694   9.527 -0.4716 -0.0744 -0.6183
   41CHL1   C18 5467   6.319   1.538   9.520  0.1529 -0.0299  0.0577
   41CHL1  H18A 5468   6.330   1.485   9.617 -1.4126  1.1726  0.9315
   41CHL1  H18B 5469   6.218   1.511   9.481  0.7227  1.0228 -2.3149
   41CHL1  H18C 5470   6.388   1.486   9.450 -0.2954 -1.7231  0.8208
   41CHL1   C12 5471   6.479   1.727   9.589 -1.4075 -0.3500 -0.4901
   41CHL1  H12A 5472   6.560   1.689   9.523 -0.3852  3.8682 -1.9370
   41CHL1  H12B 5473   6.501   1.836   9.592  4.6073 -1.0940 -2.7887
   41CHL1   C11 5474   6.505   1.685   9.736 -0.3318  0.4862  0.7206
   41CHL1  H11A 5475   6.529   1.578   9.754  0.6252  0.8003  1.4081
   41CHL1  H11B 5476   6.603   1.719   9.778  2.4941 -3.4837 -2.0040
   41CHL1    C9 5477   6.389   1.726   9.829  0.1259  1.0361  0.3691
   41CHL1    H9 5478   6.396   1.837   9.836  0.9398  0.9777  0.5246
   41CHL1   C10 5479   6.404   1.675   9.976  0.1469 -0.3561 -0.3981
   41CHL1   C19 5480   6.404   1.528   9.987  0.1772  0.2938 -0.4830
   41CHL1  H19A 5481   6.503   1.485   9.965  1.6346  2.9234  0.4911
   41CHL1  H19B 5482   6.389   1.482  10.087 -0.2168 -2.8899 -1.8683
   41CHL1  H19C 5483   6.320   1.474   9.937  0.4808 -0.9116  0.2584
   41CHL1    C1 5484   6.527   1.744  10.043  0.0043  0.4519  0.3778
   41CHL1   H1A 5485   6.625   1.706  10.007 -0.3295 -1.9333  1.7981
   41CHL1   H1B 5486   6.522   1.853  10.019  0.6620  0.1739 -1.1681
   41CHL1    C2 5487   6.524   1.727  10.198  0.4113  0.1260  0.6054
   41CHL1   H2A 5488   6.617   1.767  10.243  0.4138 -0.1909  0.8875
   41CHL1   H2B 5489   6.529   1.617  10.212 -3.2929 -0.4169 -0.9985
   41CHL1   C20 5490   6.343   1.715   9.262 -0.5690  0.1815  0.5584
   41CHL1   H20 5491   6.339   1.604   9.262 -0.2998  0.1455 -0.8162
   41CHL1   C21 5492   6.495   1.748   9.250  0.5956 -0.6131  0.2591
   41CHL1  H21A 5493   6.501   1.856   9.224 -0.4597 -1.0380 -1.9851
   41CHL1  H21B 5494   6.533   1.675   9.175  2.0847 -1.5437  1.8474
   41CHL1  H21C 5495   6.557   1.717   9.337  2.0078 -2.9551 -1.4864
   41CHL1   C22 5496   6.261   1.770   9.138 -0.3341 -0.0552  0.4801
   41CHL1  H22A 5497   6.172   1.704   9.129  0.7786 -1.4836 -0.4751
   41CHL1  H22B 5498   6.240   1.879   9.152 -2.2422 -0.3638  0.2734
   41CHL1   C23 5499   6.328   1.745   9.003  0.7255  0.4889  0.0333
   41CHL1  H23A 5500   6.434   1.778   9.004  1.8312 -2.7173 -0.0986
   41CHL1  H23B 5501   6.318   1.635   8.998 -4.6513  0.6323  1.6961
   41CHL1   C24 5502   6.251   1.800   8.886  0.0649 -0.7893 -0.2861
   41CHL1  H24A 5503   6.146   1.764   8.884 -0.1511 -0.1560 -1.7427
   41CHL1  H24B 5504   6.236   1.908   8.903  0.1946 -0.7662 -0.3131
   41CHL1   C25 5505   6.310   1.766   8.745 -0.2403  0.7396  0.9730
   41CHL1   H25 5506   6.240   1.815   8.673 -2.1234  0.4625  2.5192
   41CHL1   C26 5507   6.448   1.825   8.729 -0.2632 -0.0668 -0.0797
   41CHL1  H26A 5508   6.479   1.830   8.622 -0.0885 -1.2700 -0.1015
   41CHL1  H26B 5509   6.443   1.931   8.763 -1.0396 -0.4811  1.1804
   41CHL1  H26C 5510   6.521   1.770   8.792  0.5375  1.3589  0.2902
   41CHL1   C27 5511   6.310   1.617   8.723  0.4392 -0.4512 -0.0774
   41CHL1  H27A 5512   6.322   1.598   8.614 -0.7841 -1.5841 -0.0352
   41CHL1  H27B 5513   6.382   1.558   8.784  0.8748  0.0251 -0.1338
   41CHL1  H27C 5514   6.206   1.587   8.750  0.0520 -0.6234 -1.6750
   42CHL1    C3 5515   5.792   1.834  10.003  0.0959  0.4985  0.8924
   42CHL1    H3 5516   5.883   1.802   9.949 -0.6001  0.2337 -0.1485
   42CHL1    O3 5517   5.825   1.820  10.144 -0.2295 -0.0713  0.1345
   42CHL1   H3' 5518   5.829   1.908  10.183  0.8006 -0.5616  1.2124
   42CHL1    C4 5519   5.749   1.978   9.975 -0.0362  1.2355 -0.0501
   42CHL1   H4A 5520   5.648   1.995  10.020  0.7084  0.9833  1.8215
   42CHL1   H4B 5521   5.823   2.054  10.008  0.7788 -0.4332  2.2771
   42CHL1    C5 5522   5.743   1.981   9.818  0.1497 -0.3866  0.0285
   42CHL1    C6 5523   5.828   2.057   9.754 -0.3700  0.2254  0.3549
   42CHL1    H6 5524   5.897   2.122   9.809 -0.8533  1.1279 -0.0938
   42CHL1    C7 5525   5.831   2.085   9.604  0.7154  0.3356  0.4944
   42CHL1   H7A 5526   5.829   2.195   9.590  1.9996  0.2020 -0.9876
   42CHL1   H7B 5527   5.929   2.051   9.564  1.2671  0.0609  1.9850
   42CHL1    C8 5528   5.711   2.019   9.532 -0.4091 -0.4938  0.2029
   42CHL1    H8 5529   5.620   2.082   9.547  1.3829  1.5765  3.8943
   42CHL1   C14 5530   5.730   2.007   9.386  0.5292  0.1744  0.1967
   42CHL1   H14 5531   5.819   1.943   9.368 -0.4527 -1.5613  1.2119
   42CHL1   C15 5532   5.770   2.126   9.303 -0.1858 -0.5546  0.1010
   42CHL1  H15A 5533   5.695   2.203   9.331  1.9996  1.3363  1.0882
   42CHL1  H15B 5534   5.872   2.161   9.330  0.1503 -0.1017 -1.6458
   42CHL1   C16 5535   5.741   2.073   9.162 -0.5820  0.2904  0.9430
   42CHL1  H16A 5536   5.683   2.148   9.104 -0.8923 -1.1191 -0.6592
   42CHL1  H16B 5537   5.836   2.051   9.108 -1.3872 -0.3187 -0.2681
   42CHL1   C17 5538   5.674   1.932   9.165  0.1899  0.4747  0.7423
   42CHL1   H17 5539   5.757   1.859   9.160  2.2807  2.6572  2.0248
   42CHL1   C13 5540   5.617   1.923   9.310 -1.5006  0.1007  0.0232
   42CHL1   C18 5541   5.484   1.990   9.320  0.5696 -0.2326  0.4796
   42CHL1  H18A 5542   5.469   2.016   9.427  0.7957 -0.1577  0.4940
   42CHL1  H18B 5543   5.474   2.088   9.268 -0.9774 -0.0385  1.0860
   42CHL1  H18C 5544   5.404   1.921   9.285 -1.0082  2.2233 -1.0809
   42CHL1   C12 5545   5.621   1.784   9.375  0.0994  0.6928  0.0170
   42CHL1  H12A 5546   5.552   1.717   9.320  0.9887  0.2789 -0.6105
   42CHL1  H12B 5547   5.724   1.745   9.358 -0.1322  0.1087 -0.0421
   42CHL1   C11 5548   5.584   1.790   9.519 -0.4119 -0.0680 -0.2347
   42CHL1  H11A 5549   5.483   1.835   9.525 -1.5933 -2.3520 -1.4184
   42CHL1  H11B 5550   5.562   1.692   9.568 -2.3763 -0.2274 -1.3345
   42CHL1    C9 5551   5.683   1.876   9.597 -0.2635  0.2076 -1.1249
   42CHL1    H9 5552   5.784   1.829   9.589 -0.8411 -1.7610  1.5575
   42CHL1   C10 5553   5.651   1.891   9.751  0.8393 -0.1244  0.0857
   42CHL1   C19 5554   5.519   1.971   9.768 -0.6046  0.1308 -0.0950
   42CHL1  H19A 5555   5.509   2.057   9.698  0.0429 -0.3147 -0.7590
   42CHL1  H19B 5556   5.438   1.903   9.734 -1.1556  0.3392  0.7752
   42CHL1  H19C 5557   5.498   1.991   9.875 -1.6875 -0.7684 -0.1228
   42CHL1    C1 5558   5.639   1.751   9.821  0.2050 -0.9026  0.5046
   42CHL1   H1A 5559   5.535   1.716   9.802 -0.7748  0.6392  2.6877
   42CHL1   H1B 5560   5.709   1.671   9.787  0.8692 -0.8794  1.7588
   42CHL1    C2 5561   5.675   1.741   9.963 -0.2459  0.2053 -0.0992
   42CHL1   H2A 5562   5.698   1.634   9.983  1.9052  0.3457 -1.5285
   42CHL1   H2B 5563   5.589   1.778  10.023  0.8465  2.3473  0.2617
   42CHL1   C20 5564   5.578   1.913   9.052  0.0398 -0.0384  0.4401
   42CHL1   H20 5565   5.499   1.991   9.057 -0.1020 -0.0193 -1.3304
   42CHL1   C21 5566   5.520   1.767   9.057  1.1499  0.1796 -0.8759
   42CHL1  H21A 5567   5.446   1.745   9.137  2.4422 -0.8205  0.0654
   42CHL1  H21B 5568   5.600   1.691   9.062 -0.9676 -2.1652 -0.6982
   42CHL1  H21C 5569   5.449   1.753   8.972  0.4810 -1.2258 -0.1091
   42CHL1   C22 5570   5.644   1.941   8.911  0.1191 -0.5789  1.0426
   42CHL1  H22A 5571   5.695   2.039   8.904 -1.8615  0.3661 -3.1822
   42CHL1  H22B 5572   5.722   1.865   8.890  0.5247  0.2176 -0.4608
   42CHL1   C23 5573   5.545   1.951   8.793  0.4793  0.1449 -0.2195
   42CHL1  H23A 5574   5.500   1.850   8.780  2.2217 -0.5202 -1.6362
   42CHL1  H23B 5575   5.472   2.029   8.824  1.9402  1.8868 -0.9722
   42CHL1   C24 5576   5.605   2.002   8.658  0.4898  0.2437 -0.2299
   42CHL1  H24A 5577   5.645   2.103   8.680 -0.1111  0.5157 -0.3830
   42CHL1  H24B 5578   5.687   1.935   8.624  0.0041 -0.9398  0.8117
   42CHL1   C25 5579   5.505   2.003   8.548 -0.0844  0.2218  0.7577
   42CHL1   H25 5580   5.410   2.052   8.580 -0.1209 -0.3485  1.5446
   42CHL1   C26 5581   5.579   2.064   8.425  1.3214  0.2537  0.3147
   42CHL1  H26A 5582   5.663   1.999   8.392 -0.2654 -1.5044 -0.4601
   42CHL1  H26B 5583   5.499   2.069   8.347 -2.3993  0.8058  3.8215
   42CHL1  H26C 5584   5.624   2.165   8.437 -0.5519  0.8814  2.7974
   42CHL1   C27 5585   5.460   1.859   8.502  0.0179 -0.1315  0.4203
   42CHL1  H27A 5586   5.554   1.809   8.471 -0.9062 -0.8168 -1.4075
   42CHL1  H27B 5587   5.414   1.805   8.588 -0.0992 -0.4866  0.1354
   42CHL1  H27C 5588   5.390   1.850   8.417 -1.9062  1.9129  1.6617
   43CHL1    C3 5589   6.102   0.351  10.044  0.3268  0.7667 -0.1508
   43CHL1    H3 5590   6.125   0.243  10.033 -2.4778 -0.2426  2.4734
   43CHL1    O3 5591   6.036   0.368  10.167  0.3700 -0.4235  0.4252
   43CHL1   H3' 5592   6.036   0.464  10.171  0.3592 -0.4671  1.9491
   43CHL1    C4 5593   6.235   0.427  10.042  0.4711  0.1623 -0.1190
   43CHL1   H4A 5594   6.205   0.532  10.061 -1.1295 -0.5816  1.9120
   43CHL1   H4B 5595   6.289   0.392  10.132 -1.2304 -0.1281  0.8448
   43CHL1    C5 5596   6.315   0.418   9.911  0.3491 -0.4321  0.5531
   43CHL1    C6 5597   6.442   0.371   9.905 -0.7682 -0.1382 -0.4266
   43CHL1    H6 5598   6.495   0.353  10.000 -1.1336 -1.3241 -0.4395
   43CHL1    C7 5599   6.517   0.357   9.777 -0.0329  0.0566  0.7712
   43CHL1   H7A 5600   6.624   0.387   9.790 -0.1043  0.7152 -0.1214
   43CHL1   H7B 5601   6.514   0.247   9.757 -2.4245  0.5935 -2.4477
   43CHL1    C8 5602   6.449   0.433   9.656 -0.8985  0.9580 -0.4597
   43CHL1    H8 5603   6.477   0.540   9.671  2.1422  0.1113  0.6435
   43CHL1   C14 5604   6.521   0.386   9.523 -0.0196  0.4035 -0.8307
   43CHL1   H14 5605   6.495   0.278   9.515 -2.0556  0.8774 -1.0828
   43CHL1   C15 5606   6.673   0.387   9.514  0.0650  0.4102  0.2043
   43CHL1  H15A 5607   6.715   0.487   9.538  2.8576 -0.4731 -0.5964
   43CHL1  H15B 5608   6.717   0.309   9.579 -2.4828 -0.8738  0.5098
   43CHL1   C16 5609   6.698   0.363   9.365  0.4256 -0.0968 -0.1609
   43CHL1  H16A 5610   6.776   0.425   9.316 -0.0095  0.2089 -0.4755
   43CHL1  H16B 5611   6.735   0.259   9.354  1.1504 -0.2437  2.9181
   43CHL1   C17 5612   6.557   0.381   9.292  0.0881  0.2207  0.7461
   43CHL1   H17 5613   6.512   0.280   9.277 -2.1115  1.1317  0.8597
   43CHL1   C13 5614   6.460   0.446   9.390 -0.7596  0.3313  1.1073
   43CHL1   C18 5615   6.486   0.599   9.377 -0.2973 -0.5703 -0.0888
   43CHL1  H18A 5616   6.448   0.653   9.288 -0.1121  2.6201  1.6183
   43CHL1  H18B 5617   6.433   0.660   9.453 -3.1904  0.4374 -2.7048
   43CHL1  H18C 5618   6.596   0.612   9.388 -0.5931  2.4402  0.1517
   43CHL1   C12 5619   6.312   0.417   9.386  0.0716  0.0113 -0.3669
   43CHL1  H12A 5620   6.269   0.470   9.299  1.9419 -0.8188 -1.8608
   43CHL1  H12B 5621   6.286   0.309   9.383  1.4211 -0.3719 -4.7320
   43CHL1   C11 5622   6.240   0.478   9.513 -0.4082 -0.0716  0.3144
   43CHL1  H11A 5623   6.252   0.589   9.510 -0.7806 -0.0521 -1.2946
   43CHL1  H11B 5624   6.131   0.465   9.502 -0.3527  0.9727 -2.3560
   43CHL1    C9 5625   6.294   0.412   9.647  0.7469 -0.8044 -0.5750
   43CHL1    H9 5626   6.281   0.305   9.619 -0.6776 -0.3118 -1.9101
   43CHL1   C10 5627   6.228   0.455   9.783 -0.0804 -0.4119 -0.3616
   43CHL1   C19 5628   6.216   0.611   9.789  0.5509  0.1660 -0.0782
   43CHL1  H19A 5629   6.219   0.653   9.892  1.4839 -2.7537  1.1686
   43CHL1  H19B 5630   6.306   0.654   9.740 -0.6236  1.0048 -1.5693
   43CHL1  H19C 5631   6.126   0.654   9.739 -0.3065 -1.0799  0.3584
   43CHL1    C1 5632   6.094   0.395   9.798  0.3076  0.1493 -0.2013
   43CHL1   H1A 5633   6.029   0.427   9.714 -1.4008 -1.3779  0.4743
   43CHL1   H1B 5634   6.124   0.291   9.776  2.8750  0.6525  0.5453
   43CHL1    C2 5635   6.024   0.405   9.931  0.2586  0.9402 -0.5085
   43CHL1   H2A 5636   5.931   0.343   9.925  0.1713  0.7561  1.9863
   43CHL1   H2B 5637   5.986   0.506   9.959 -1.0556  0.6942 -1.2751
   43CHL1   C20 5638   6.566   0.433   9.142 -0.3690  0.7349 -0.1943
   43CHL1   H20 5639   6.611   0.535   9.139 -1.0701  1.0240 -2.4172
   43CHL1   C21 5640   6.423   0.429   9.073 -0.2677  0.1906 -0.0756
   43CHL1  H21A 5641   6.364   0.515   9.112  0.1747  0.7084 -0.5342
   43CHL1  H21B 5642   6.381   0.330   9.100 -0.1121  0.4509  1.1830
   43CHL1  H21C 5643   6.429   0.441   8.963 -0.4934 -0.5177 -0.1685
   43CHL1   C22 5644   6.661   0.351   9.048  0.3211 -0.2597 -0.0191
   43CHL1  H22A 5645   6.753   0.311   9.096 -0.2972  1.4090  2.7854
   43CHL1  H22B 5646   6.604   0.264   9.010  0.2816 -1.0830  1.7950
   43CHL1   C23 5647   6.696   0.433   8.923  0.0986 -0.0004 -0.2910
   43CHL1  H23A 5648   6.607   0.480   8.877 -0.8477 -1.4350  0.0244
   43CHL1  H23B 5649   6.758   0.516   8.964 -0.2973  1.0206 -1.6835
   43CHL1   C24 5650   6.764   0.349   8.819  0.2056  0.2692  0.9101
   43CHL1  H24A 5651   6.866   0.390   8.809 -0.0181  1.0703  1.8144
   43CHL1  H24B 5652   6.759   0.238   8.830  1.4278  0.0010 -0.7713
   43CHL1   C25 5653   6.700   0.379   8.676 -0.5061  0.0173  0.0352
   43CHL1   H25 5654   6.670   0.486   8.674 -2.8488 -0.5732  0.2386
   43CHL1   C26 5655   6.790   0.351   8.562  0.0030 -0.5729  0.8033
   43CHL1  H26A 5656   6.756   0.383   8.461  1.1186 -2.0057 -0.0597
   43CHL1  H26B 5657   6.887   0.403   8.580 -0.4821  0.9056 -0.5504
   43CHL1  H26C 5658   6.819   0.245   8.552 -1.9259 -1.2614  2.0285
   43CHL1   C27 5659   6.561   0.307   8.671 -0.2971 -0.2133  0.4801
   43CHL1  H27A 5660   6.586   0.198   8.669  2.5655  0.3550  1.2456
   43CHL1  H27B 5661   6.506   0.332   8.764  2.2907  0.6610  1.8953
   43CHL1  H27C 5662   6.506   0.346   8.583  1.2652  1.8144  0.3163
   44CHL1    C3 5663   5.550   1.133  10.077 -0.5029 -1.2916 -0.1553
   44CHL1    H3 5664   5.658   1.150  10.057 -0.3776 -1.6185  0.2189
   44CHL1    O3 5665   5.535   1.105  10.221 -0.1662  0.1917 -0.4215
   44CHL1   H3' 5666   5.527   1.193  10.258  0.5705  0.2530 -0.3991
   44CHL1    C4 5667   5.469   1.252  10.036  0.3754  0.1881 -0.2164
   44CHL1   H4A 5668   5.362   1.245  10.063  0.0925  1.4829 -0.9190
   44CHL1   H4B 5669   5.515   1.337  10.093  0.6102 -0.4515  0.5654
   44CHL1    C5 5670   5.465   1.273   9.888  0.7057 -0.4418 -0.0429
   44CHL1    C6 5671   5.495   1.397   9.840  0.3337  0.0995 -0.0680
   44CHL1    H6 5672   5.515   1.482   9.906 -2.4797 -0.4328  1.6284
   44CHL1    C7 5673   5.497   1.415   9.698 -0.9349  0.3427 -0.5607
   44CHL1   H7A 5674   5.452   1.516   9.684  0.7824  1.3118  0.5620
   44CHL1   H7B 5675   5.600   1.419   9.655 -1.0189 -2.5606 -1.2007
   44CHL1    C8 5676   5.429   1.310   9.611  0.2595  0.9556  0.4985
   44CHL1    H8 5677   5.319   1.317   9.622 -0.1962 -2.4684 -0.5618
   44CHL1   C14 5678   5.473   1.320   9.460 -0.3566  0.7311  0.6822
   44CHL1   H14 5679   5.583   1.306   9.452 -0.3761  0.6195  0.6081
   44CHL1   C15 5680   5.450   1.456   9.379 -0.1860  0.4413  0.2396
   44CHL1  H15A 5681   5.342   1.478   9.393 -0.4642  0.3994 -1.6217
   44CHL1  H15B 5682   5.503   1.549   9.409  0.2133  1.0649 -2.2146
   44CHL1   C16 5683   5.479   1.414   9.241  0.0259  0.0502  0.0600
   44CHL1  H16A 5684   5.415   1.464   9.166  0.3333 -1.6288 -1.3947
   44CHL1  H16B 5685   5.587   1.421   9.215 -0.0510 -0.3636 -0.3904
   44CHL1   C17 5686   5.463   1.258   9.232  1.0538 -0.2903 -0.0764
   44CHL1   H17 5687   5.563   1.210   9.232  0.8597 -0.7069 -0.6930
   44CHL1   C13 5688   5.409   1.212   9.377 -0.7555  0.1284  0.1877
   44CHL1   C18 5689   5.247   1.221   9.382  0.7314 -0.1615  0.0322
   44CHL1  H18A 5690   5.213   1.192   9.484 -1.1302  1.0593 -0.1992
   44CHL1  H18B 5691   5.218   1.327   9.366 -0.6835 -0.4596  0.5120
   44CHL1  H18C 5692   5.184   1.166   9.310 -2.0706  0.6799  1.6789
   44CHL1   C12 5693   5.460   1.073   9.420  0.0874 -0.1738  0.2225
   44CHL1  H12A 5694   5.405   0.996   9.362 -0.0258 -0.5804  0.8617
   44CHL1  H12B 5695   5.570   1.062   9.409  0.0444  0.7439 -1.5293
   44CHL1   C11 5696   5.423   1.050   9.568  0.2543 -0.2746 -0.6692
   44CHL1  H11A 5697   5.317   1.023   9.589  0.8906 -1.4535  1.2465
   44CHL1  H11B 5698   5.484   0.963   9.600 -0.6362 -0.1289  1.5659
   44CHL1    C9 5699   5.466   1.162   9.661 -0.2743 -0.5027  0.0618
   44CHL1    H9 5700   5.576   1.166   9.673 -0.1589 -1.1143 -0.6917
   44CHL1   C10 5701   5.429   1.142   9.808 -0.4869  0.0914 -0.0118
   44CHL1   C19 5702   5.279   1.132   9.824 -0.7190 -0.2500  0.3004
   44CHL1  H19A 5703   5.256   1.028   9.791 -0.7646 -0.2021  0.1784
   44CHL1  H19B 5704   5.243   1.146   9.928 -0.6683  1.0199  0.1580
   44CHL1  H19C 5705   5.230   1.210   9.761  1.4753  0.0519 -1.1468
   44CHL1    C1 5706   5.502   1.019   9.866  0.1549  0.1405  0.0155
   44CHL1   H1A 5707   5.458   0.927   9.820  1.6909  0.1067 -1.5188
   44CHL1   H1B 5708   5.606   1.007   9.827  0.2848 -1.2765  0.7073
   44CHL1    C2 5709   5.494   1.008  10.019  0.0979  0.6416  0.7630
   44CHL1   H2A 5710   5.559   0.929  10.059 -2.4368 -0.7481  2.3961
   44CHL1   H2B 5711   5.388   0.983  10.043  0.2273 -0.0652  0.6060
   44CHL1   C20 5712   5.383   1.208   9.112 -0.2441 -1.0610  0.3794
   44CHL1   H20 5713   5.277   1.241   9.120 -0.0634 -0.8355  2.2566
   44CHL1   C21 5714   5.377   1.055   9.114 -0.4647 -0.3160  0.0127
   44CHL1  H21A 5715   5.323   1.006   9.030  1.7585 -2.8324 -0.0657
   44CHL1  H21B 5716   5.317   1.011   9.197 -1.8621 -0.3515 -0.9723
   44CHL1  H21C 5717   5.478   1.011   9.102  0.6251  1.1091  2.9264
   44CHL1   C22 5718   5.436   1.258   8.975 -0.1524 -0.1049  0.2505
   44CHL1  H22A 5719   5.421   1.367   8.985  0.2438 -0.2400  3.1615
   44CHL1  H22B 5720   5.542   1.229   8.961 -0.4654 -0.5068 -1.4617
   44CHL1   C23 5721   5.357   1.207   8.843 -0.1666 -0.6777 -0.0667
   44CHL1  H23A 5722   5.358   1.096   8.854 -0.5354 -0.4323  3.4404
   44CHL1  H23B 5723   5.248   1.231   8.847 -0.1182  0.0402 -1.9226
   44CHL1   C24 5724   5.427   1.260   8.714 -0.3250 -0.3947 -0.5345
   44CHL1  H24A 5725   5.446   1.367   8.738 -0.1453 -1.1463  3.4149
   44CHL1  H24B 5726   5.524   1.207   8.699  0.5940 -0.0370  3.2136
   44CHL1   C25 5727   5.348   1.256   8.578  0.2880  0.1715 -0.2900
   44CHL1   H25 5728   5.309   1.152   8.572  0.2938 -0.2005  3.5348
   44CHL1   C26 5729   5.229   1.353   8.588 -0.1833  0.4655 -0.1073
   44CHL1  H26A 5730   5.179   1.373   8.491  1.1605 -0.1496 -0.9509
   44CHL1  H26B 5731   5.148   1.310   8.651  0.9089 -1.3572  0.1496
   44CHL1  H26C 5732   5.270   1.449   8.625  0.3780  0.5355 -0.8793
   44CHL1   C27 5733   5.440   1.293   8.463 -0.1156  0.4281 -0.7743
   44CHL1  H27A 5734   5.389   1.279   8.365  1.5704  1.6688 -1.8915
   44CHL1  H27B 5735   5.482   1.394   8.483  0.6612 -0.1891  0.9067
   44CHL1  H27C 5736   5.522   1.218   8.461  0.1799  0.7509 -2.4214
   45CHL1    C3 5737   3.022   0.075  10.186  0.2649 -0.2086 -0.6936
   45CHL1    H3 5738   3.130   0.101  10.191  0.4707 -0.7605 -2.0012
   45CHL1    O3 5739   2.967   0.087  10.315 -0.0829 -0.1012  0.6526
   45CHL1   H3' 5740   2.964   0.180  10.341 -1.4710  0.2002 -0.4751
   45CHL1    C4 5741   2.935   0.156  10.084  0.2417 -0.4516 -0.2879
   45CHL1   H4A 5742   2.832   0.120  10.103  0.7012 -1.0802  1.1270
   45CHL1   H4B 5743   2.940   0.266  10.098 -0.1709 -0.1790 -2.0047
   45CHL1    C5 5744   2.987   0.124   9.943 -1.0793  0.5547  0.5745
   45CHL1    C6 5745   3.047   0.215   9.860  0.0332  0.1768  0.0941
   45CHL1    H6 5746   3.049   0.318   9.900  0.0517  1.6487 -3.3800
   45CHL1    C7 5747   3.091   0.203   9.719  0.1573  0.5696  0.3322
   45CHL1   H7A 5748   3.057   0.283   9.650  0.6543 -0.4735 -1.1508
   45CHL1   H7B 5749   3.202   0.202   9.722  0.1679 -0.1228 -0.1774
   45CHL1    C8 5750   3.044   0.062   9.663  0.2131  0.0178 -0.4754
   45CHL1    H8 5751   3.126   0.035   9.593  0.8425 -1.6206  0.8178
   45CHL1   C14 5752   2.922   0.071   9.568 -0.7280  0.0636  0.5965
   45CHL1   H14 5753   2.840   0.109   9.632 -0.3870  1.3814  0.2925
   45CHL1   C15 5754   2.944   0.161   9.440  0.0419  0.7446  0.1570
   45CHL1  H15A 5755   2.848   0.210   9.415 -1.7606 -2.5179  0.0880
   45CHL1  H15B 5756   3.027   0.234   9.456  0.3373  0.0004  2.4757
   45CHL1   C16 5757   2.985   0.077   9.314 -0.3425  0.3477 -0.0222
   45CHL1  H16A 5758   2.901   0.101   9.246 -0.0315  0.8680 -0.2357
   45CHL1  H16B 5759   3.086   0.104   9.275  0.2212 -1.0843  0.3863
   45CHL1   C17 5760   2.979  -0.066   9.381  0.1096 -0.5677  0.4005
   45CHL1   H17 5761   3.076  -0.082   9.432  0.3393  0.3342  0.2665
   45CHL1   C13 5762   2.886  -0.061   9.503 -0.2125  0.3489  0.5001
   45CHL1   C18 5763   2.732  -0.049   9.471  0.1311 -0.6080 -0.1413
   45CHL1  H18A 5764   2.673  -0.024   9.561  0.4624 -0.6856  0.1003
   45CHL1  H18B 5765   2.716   0.034   9.399  0.1512  1.5669  2.2542
   45CHL1  H18C 5766   2.690  -0.147   9.440 -2.1960 -0.5238  2.4225
   45CHL1   C12 5767   2.901  -0.183   9.600  0.5466  0.6044  1.0957
   45CHL1  H12A 5768   2.809  -0.184   9.662 -0.5202 -0.3074 -0.4297
   45CHL1  H12B 5769   2.898  -0.277   9.541  0.7096  1.3197 -0.0801
   45CHL1   C11 5770   3.021  -0.186   9.696  0.3813 -0.0869 -0.0663
   45CHL1  H11A 5771   3.015  -0.272   9.766  1.1533 -1.2553 -1.3839
   45CHL1  H11B 5772   3.114  -0.212   9.641 -0.4459 -1.0781 -1.0454
   45CHL1    C9 5773   3.042  -0.048   9.764  0.2076 -0.1240 -0.4461
   45CHL1    H9 5774   3.148  -0.059   9.795  0.1424  1.1380  0.2941
   45CHL1   C10 5775   2.972  -0.024   9.896  0.5242  0.2474  0.8413
   45CHL1   C19 5776   2.819  -0.061   9.886 -0.1725 -0.1441  0.2865
   45CHL1  H19A 5777   2.769  -0.042   9.983 -0.0533  1.8084  0.0023
   45CHL1  H19B 5778   2.761  -0.016   9.802 -1.3378  1.2407  1.7704
   45CHL1  H19C 5779   2.810  -0.171   9.874  0.2147 -0.4669  2.4866
   45CHL1    C1 5780   3.027  -0.113  10.009  0.0156  0.6458 -0.4364
   45CHL1   H1A 5781   2.995  -0.219  10.001  0.6364  0.2477  1.6399
   45CHL1   H1B 5782   3.138  -0.121  10.007 -0.0950 -2.0473 -0.1720
   45CHL1    C2 5783   2.994  -0.074  10.157 -0.0243  0.6471 -0.1816
   45CHL1   H2A 5784   3.040  -0.142  10.232 -0.3514  1.2712  0.5943
   45CHL1   H2B 5785   2.884  -0.082  10.174  0.1557 -0.8549  0.4678
   45CHL1   C20 5786   2.949  -0.179   9.278  0.1056 -0.1676 -0.7245
   45CHL1   H20 5787   2.917  -0.268   9.337  1.1732  0.3454  0.6952
   45CHL1   C21 5788   3.084  -0.210   9.216  0.2307 -0.5723  0.4355
   45CHL1  H21A 5789   3.127  -0.118   9.172 -1.3441 -0.3723 -0.7768
   45CHL1  H21B 5790   3.072  -0.283   9.133 -3.4935  0.9157 -0.5210
   45CHL1  H21C 5791   3.158  -0.256   9.286  1.7307  1.5222  0.3010
   45CHL1   C22 5792   2.843  -0.162   9.172  0.5043 -0.2186 -0.4373
   45CHL1  H22A 5793   2.743  -0.136   9.215  0.6003  2.7631 -1.7424
   45CHL1  H22B 5794   2.872  -0.084   9.099  2.1578 -0.3091  0.0789
   45CHL1   C23 5795   2.797  -0.288   9.099 -0.5596 -0.0718  0.8129
   45CHL1  H23A 5796   2.870  -0.305   9.017 -0.8993  2.5691 -0.1398
   45CHL1  H23B 5797   2.782  -0.370   9.171 -0.0024 -0.4558  0.4996
   45CHL1   C24 5798   2.664  -0.259   9.020 -0.1247  0.0703  0.1399
   45CHL1  H24A 5799   2.586  -0.235   9.095 -0.6376 -1.4251  0.1148
   45CHL1  H24B 5800   2.682  -0.176   8.948  1.0811 -0.4694 -0.2184
   45CHL1   C25 5801   2.622  -0.387   8.944  0.5532 -0.7289 -0.2456
   45CHL1   H25 5802   2.694  -0.411   8.862  0.0575 -3.0134 -0.0556
   45CHL1   C26 5803   2.613  -0.521   9.014  0.0291 -0.0285 -0.5355
   45CHL1  H26A 5804   2.549  -0.519   9.105  0.3645 -2.2962 -0.1959
   45CHL1  H26B 5805   2.579  -0.604   8.949 -0.2365  0.5025 -1.0948
   45CHL1  H26C 5806   2.715  -0.543   9.052  0.0561  1.4559  0.3363
   45CHL1   C27 5807   2.485  -0.360   8.870 -0.1424  0.3457  0.1013
   45CHL1  H27A 5808   2.441  -0.449   8.821 -0.8975  0.0275  1.3029
   45CHL1  H27B 5809   2.401  -0.341   8.940  0.0800  1.7697  0.0094
   45CHL1  H27C 5810   2.504  -0.286   8.789  0.2179 -1.1001 -1.1853
   46CHL1    C3 5811   0.339   3.614  10.137 -0.5125 -0.2269  0.5891
   46CHL1    H3 5812   0.373   3.716  10.109 -0.8627 -1.3674 -5.0917
   46CHL1    O3 5813   0.321   3.608  10.277 -0.1616  0.1240  0.5717
   46CHL1   H3' 5814   0.270   3.528  10.293  0.0546 -0.2875 -0.6910
   46CHL1    C4 5815   0.209   3.580  10.074 -0.5926  0.5055 -0.0793
   46CHL1   H4A 5816   0.179   3.479  10.108 -1.0220  0.8348  0.5601
   46CHL1   H4B 5817   0.133   3.654  10.110 -2.2907 -1.0097 -0.3844
   46CHL1    C5 5818   0.222   3.598   9.922 -0.1708  0.3120  0.3718
   46CHL1    C6 5819   0.145   3.678   9.855  0.0734  0.4290  0.4671
   46CHL1    H6 5820   0.058   3.723   9.905 -0.4399 -0.2793  0.2335
   46CHL1    C7 5821   0.146   3.685   9.707  0.6969 -0.1769  0.4033
   46CHL1   H7A 5822   0.040   3.674   9.675  0.7409 -2.0289  0.8076
   46CHL1   H7B 5823   0.179   3.787   9.677  4.4080 -0.9620  1.3332
   46CHL1    C8 5824   0.231   3.578   9.634 -0.9073 -0.3086  0.0575
   46CHL1    H8 5825   0.174   3.485   9.616  3.2865 -2.6569 -2.8150
   46CHL1   C14 5826   0.261   3.624   9.492  0.1048 -0.0489  0.8334
   46CHL1   H14 5827   0.322   3.717   9.503 -0.9951  1.0415 -1.6062
   46CHL1   C15 5828   0.143   3.652   9.400  0.0919 -0.0689  0.3402
   46CHL1  H15A 5829   0.061   3.579   9.419  1.2751 -1.2680  1.0075
   46CHL1  H15B 5830   0.108   3.756   9.414  0.3184  0.3278 -1.6937
   46CHL1   C16 5831   0.200   3.638   9.258  0.3871  0.0516 -0.2675
   46CHL1  H16A 5832   0.124   3.580   9.201  1.7763  0.3730 -2.5881
   46CHL1  H16B 5833   0.196   3.735   9.206 -0.9712  0.0046 -0.2977
   46CHL1   C17 5834   0.346   3.579   9.273 -0.5192 -0.2795  0.3013
   46CHL1   H17 5835   0.414   3.667   9.273 -2.5417  1.3851  0.6640
   46CHL1   C13 5836   0.354   3.530   9.417 -0.2877 -0.2793 -1.1070
   46CHL1   C18 5837   0.299   3.387   9.413  0.5566 -0.2561  0.5327
   46CHL1  H18A 5838   0.201   3.381   9.361  1.0991 -0.7575 -0.4470
   46CHL1  H18B 5839   0.378   3.317   9.378 -2.4850 -2.9541 -1.5597
   46CHL1  H18C 5840   0.280   3.354   9.518  0.8260  2.4396  1.5066
   46CHL1   C12 5841   0.482   3.528   9.497  0.1570  0.4211  0.0026
   46CHL1  H12A 5842   0.550   3.459   9.443 -1.7658 -0.8110 -0.9437
   46CHL1  H12B 5843   0.526   3.629   9.511 -0.6637  0.9201 -0.9198
   46CHL1   C11 5844   0.454   3.468   9.644 -0.2431  0.1892  0.0933
   46CHL1  H11A 5845   0.438   3.358   9.642 -3.4136  0.5348 -1.5118
   46CHL1  H11B 5846   0.549   3.478   9.701 -0.6767 -0.3952  0.9360
   46CHL1    C9 5847   0.354   3.552   9.720  0.1600 -0.6276 -0.3739
   46CHL1    H9 5848   0.406   3.649   9.737  2.3136 -1.8658  0.5634
   46CHL1   C10 5849   0.332   3.502   9.861 -0.5832  0.5320 -0.1163
   46CHL1   C19 5850   0.284   3.350   9.853 -0.5719  0.3062 -0.0643
   46CHL1  H19A 5851   0.187   3.337   9.801 -0.5752 -0.0842  0.0398
   46CHL1  H19B 5852   0.362   3.279   9.816 -1.4469 -0.1175 -1.1581
   46CHL1  H19C 5853   0.265   3.318   9.957 -2.9874  1.7179 -0.0145
   46CHL1    C1 5854   0.467   3.509   9.942  0.0981  1.0550  0.7432
   46CHL1   H1A 5855   0.531   3.424   9.911 -1.3533  0.9462 -2.3450
   46CHL1   H1B 5856   0.510   3.606   9.909 -0.9070  1.3127  0.1319
   46CHL1    C2 5857   0.455   3.527  10.094 -0.4474 -0.1135  0.0967
   46CHL1   H2A 5858   0.549   3.568  10.138  0.9515  1.3594 -3.8276
   46CHL1   H2B 5859   0.442   3.426  10.138 -1.7674 -0.4287 -0.9857
   46CHL1   C20 5860   0.393   3.493   9.150 -0.1048  0.5319  0.1413
   46CHL1   H20 5861   0.324   3.405   9.154  0.5746  0.0172  0.9655
   46CHL1   C21 5862   0.540   3.459   9.148  0.2813 -0.2864 -0.0323
   46CHL1  H21A 5863   0.562   3.388   9.066 -1.8522 -0.6448 -0.3330
   46CHL1  H21B 5864   0.573   3.401   9.237  0.8339  0.1500  0.0579
   46CHL1  H21C 5865   0.609   3.545   9.132 -0.1046  0.3097  1.2923
   46CHL1   C22 5866   0.338   3.564   9.019 -0.4660  0.5350  0.4109
   46CHL1  H22A 5867   0.228   3.566   9.010 -0.3880 -1.8614 -2.9756
   46CHL1  H22B 5868   0.377   3.667   9.035  1.0234 -0.1639  1.5604
   46CHL1   C23 5869   0.400   3.517   8.887 -0.7915 -0.1072 -1.0289
   46CHL1  H23A 5870   0.510   3.531   8.884 -0.7755  0.2173  0.3524
   46CHL1  H23B 5871   0.375   3.409   8.875 -0.4107 -0.4750  1.0009
   46CHL1   C24 5872   0.339   3.591   8.777 -0.5305 -0.0293  0.1583
   46CHL1  H24A 5873   0.231   3.573   8.797 -0.7644  3.0497  2.2642
   46CHL1  H24B 5874   0.354   3.701   8.778 -0.0458 -0.0583 -1.2059
   46CHL1   C25 5875   0.372   3.536   8.639  0.7268 -0.2367 -0.3830
   46CHL1   H25 5876   0.339   3.430   8.644 -0.1834  0.0815  2.6994
   46CHL1   C26 5877   0.291   3.607   8.523 -0.3327 -0.4421 -0.0621
   46CHL1  H26A 5878   0.300   3.716   8.541  0.5092 -0.5237  0.0556
   46CHL1  H26B 5879   0.333   3.588   8.422 -0.0231 -0.3144  0.0401
   46CHL1  H26C 5880   0.185   3.575   8.528 -0.6348  0.2818 -1.3774
   46CHL1   C27 5881   0.518   3.538   8.611 -0.6310 -0.1228 -0.4356
   46CHL1  H27A 5882   0.579   3.491   8.691 -1.6282  1.0290  1.0566
   46CHL1  H27B 5883   0.543   3.496   8.511  0.8912  0.8278 -0.4702
   46CHL1  H27C 5884   0.550   3.644   8.605  0.0180 -0.3780 -2.3835
   47CHL1    C3 5885   4.907   0.275  10.010 -0.1191 -0.1354  0.3935
   47CHL1    H3 5886   4.924   0.166  10.012 -0.9962 -0.3334 -1.2771
   47CHL1    O3 5887   4.909   0.317  10.148 -0.0173  0.1918  0.5597
   47CHL1   H3' 5888   4.872   0.406  10.153 -0.5460 -0.0036  0.2074
   47CHL1    C4 5889   5.029   0.338   9.941 -0.1369  0.2070  0.3052
   47CHL1   H4A 5890   5.012   0.448   9.953  1.0282  0.3905  0.3987
   47CHL1   H4B 5891   5.125   0.317   9.993  0.4724 -0.7958 -1.1807
   47CHL1    C5 5892   5.031   0.306   9.792  0.4720 -0.2383  0.2097
   47CHL1    C6 5893   5.138   0.249   9.733  0.5791 -0.2622 -0.1886
   47CHL1    H6 5894   5.226   0.226   9.795 -0.9765  1.8128  3.1162
   47CHL1    C7 5895   5.141   0.226   9.586 -0.2942  0.2424  0.2809
   47CHL1   H7A 5896   5.232   0.266   9.537 -1.4208  1.2608 -1.0944
   47CHL1   H7B 5897   5.132   0.120   9.554 -0.5186  0.3502 -0.0151
   47CHL1    C8 5898   5.025   0.298   9.508  0.5440  0.2702 -0.1422
   47CHL1    H8 5899   5.052   0.406   9.507 -1.1084  0.7080  0.3745
   47CHL1   C14 5900   5.014   0.251   9.363  0.7457 -0.3998 -0.3820
   47CHL1   H14 5901   4.992   0.142   9.370  2.1922 -1.1140 -4.4904
   47CHL1   C15 5902   5.143   0.244   9.280  0.4423  0.0774  0.0774
   47CHL1  H15A 5903   5.209   0.334   9.283  2.7606 -1.4904 -1.2723
   47CHL1  H15B 5904   5.208   0.154   9.290  1.5376  0.7384 -0.7800
   47CHL1   C16 5905   5.086   0.241   9.141 -0.6803  0.8164  0.5623
   47CHL1  H16A 5906   5.113   0.328   9.077  2.5850 -0.9580 -0.7187
   47CHL1  H16B 5907   5.120   0.148   9.091 -0.3812  0.7910  0.8098
   47CHL1   C17 5908   4.928   0.230   9.157  0.2357 -0.1120  0.5313
   47CHL1   H17 5909   4.905   0.121   9.160  1.7812 -0.4989 -0.7508
   47CHL1   C13 5910   4.895   0.309   9.281 -0.3737  0.4148 -0.6611
   47CHL1   C18 5911   4.919   0.462   9.266 -0.2157 -0.2856  0.0213
   47CHL1  H18A 5912   4.836   0.514   9.213  1.6393  2.1373 -0.7096
   47CHL1  H18B 5913   4.927   0.501   9.370  0.9053 -0.6764  0.0979
   47CHL1  H18C 5914   5.019   0.484   9.222  0.2429  1.4659  1.7961
   47CHL1   C12 5915   4.759   0.278   9.348 -0.3555 -0.0577 -0.2631
   47CHL1  H12A 5916   4.670   0.322   9.298 -0.7382  0.4396  0.8375
   47CHL1  H12B 5917   4.749   0.167   9.352 -2.4430 -0.1072 -3.1126
   47CHL1   C11 5918   4.765   0.326   9.491 -0.1574  0.6021 -0.0466
   47CHL1  H11A 5919   4.758   0.436   9.495  2.9615  0.9237 -1.1801
   47CHL1  H11B 5920   4.676   0.281   9.542  1.9454 -1.5524  1.9715
   47CHL1    C9 5921   4.888   0.281   9.571  0.6699  0.0168 -0.8029
   47CHL1    H9 5922   4.879   0.171   9.585 -0.1163  0.1622 -0.1353
   47CHL1   C10 5923   4.894   0.342   9.718 -0.6626 -0.0129  0.1000
   47CHL1   C19 5924   4.882   0.496   9.705 -0.3970 -0.2211 -0.4012
   47CHL1  H19A 5925   4.779   0.527   9.677 -0.9350 -1.3899  0.2184
   47CHL1  H19B 5926   4.905   0.535   9.807 -3.1178  0.9589 -0.1338
   47CHL1  H19C 5927   4.963   0.535   9.639  1.2794  0.0903  1.7283
   47CHL1    C1 5928   4.780   0.283   9.799 -0.0808 -0.0388 -0.7767
   47CHL1   H1A 5929   4.683   0.316   9.756 -2.3014 -2.7975  1.6440
   47CHL1   H1B 5930   4.783   0.172   9.800 -0.3315 -0.0529  0.6666
   47CHL1    C2 5931   4.773   0.320   9.951 -0.7873 -0.7780 -0.7566
   47CHL1   H2A 5932   4.689   0.258   9.991 -1.6719  0.5747 -0.4641
   47CHL1   H2B 5933   4.752   0.426   9.975  1.5372  0.3036 -3.0763
   47CHL1   C20 5934   4.865   0.274   9.025 -0.1125 -0.5197 -0.2747
   47CHL1   H20 5935   4.876   0.383   9.006 -1.0002 -0.5372 -0.9893
   47CHL1   C21 5936   4.710   0.250   9.022 -1.0002 -0.1762 -0.1900
   47CHL1  H21A 5937   4.672   0.272   8.920  1.6785 -0.3401 -1.3327
   47CHL1  H21B 5938   4.653   0.315   9.091 -3.4557 -0.2788 -1.9909
   47CHL1  H21C 5939   4.695   0.141   9.038 -2.4050 -0.3314 -2.2629
   47CHL1   C22 5940   4.922   0.217   8.891 -0.4450  0.3848  0.4710
   47CHL1  H22A 5941   5.033   0.216   8.900 -0.2931 -0.4083 -1.1528
   47CHL1  H22B 5942   4.880   0.115   8.877 -1.7378  0.9854 -0.1739
   47CHL1   C23 5943   4.886   0.296   8.761  0.3049  0.5048  0.5092
   47CHL1  H23A 5944   4.783   0.262   8.736  0.7057 -1.1051  0.9224
   47CHL1  H23B 5945   4.886   0.406   8.770  1.4083  0.7299 -1.5851
   47CHL1   C24 5946   4.975   0.249   8.642 -0.2655  0.5321 -0.3349
   47CHL1  H24A 5947   5.084   0.249   8.665 -0.1752  0.6595 -0.7647
   47CHL1  H24B 5948   4.951   0.142   8.624  1.5219 -0.2327  1.4270
   47CHL1   C25 5949   4.955   0.321   8.510 -1.0869 -0.0021  0.0121
   47CHL1   H25 5950   4.967   0.426   8.542  1.0332 -0.6210  1.4321
   47CHL1   C26 5951   5.074   0.290   8.412 -0.1130 -0.1573  0.8201
   47CHL1  H26A 5952   5.076   0.368   8.332  1.0101 -1.8115 -0.8558
   47CHL1  H26B 5953   5.064   0.190   8.364  1.4918 -0.8600  1.8655
   47CHL1  H26C 5954   5.168   0.296   8.470 -1.1039  1.8131  2.3411
   47CHL1   C27 5955   4.825   0.282   8.439 -0.3340 -1.2812 -0.1358
   47CHL1  H27A 5956   4.821   0.173   8.416 -1.7828 -1.3578  0.3988
   47CHL1  H27B 5957   4.739   0.296   8.507 -0.1435 -2.3861  0.3572
   47CHL1  H27C 5958   4.821   0.345   8.348  4.7901  1.0798  0.9622
   48CHL1    C3 5959   0.530   1.710  10.018  0.0613 -0.6956  0.4881
   48CHL1    H3 5960   0.419   1.716  10.007  0.0906  2.1537  0.9567
   48CHL1    O3 5961   0.555   1.681  10.150  0.2433 -0.1592 -0.3584
   48CHL1   H3' 5962   0.591   1.593  10.134 -1.4894 -0.4508 -3.4578
   48CHL1    C4 5963   0.584   1.597   9.932  0.4643 -0.2198 -0.0471
   48CHL1   H4A 5964   0.690   1.587   9.965  0.3801 -2.8222 -0.3697
   48CHL1   H4B 5965   0.529   1.503   9.953 -0.7511  1.0028  2.7457
   48CHL1    C5 5966   0.564   1.623   9.788  0.1505 -0.0030  0.5358
   48CHL1    C6 5967   0.490   1.540   9.706 -0.2660  0.4878  0.0984
   48CHL1    H6 5968   0.440   1.449   9.741  1.2317  0.2790  1.8532
   48CHL1    C7 5969   0.474   1.575   9.567 -0.1516 -0.1878  0.1607
   48CHL1   H7A 5970   0.499   1.489   9.502 -1.4318 -0.0876 -0.4924
   48CHL1   H7B 5971   0.366   1.587   9.546 -0.3940 -1.7308  0.4247
   48CHL1    C8 5972   0.565   1.686   9.504 -0.1414  0.0047 -0.1614
   48CHL1    H8 5973   0.660   1.629   9.491 -1.0897 -2.0062  1.1928
   48CHL1   C14 5974   0.513   1.733   9.365 -0.4023  0.1366 -0.0922
   48CHL1   H14 5975   0.415   1.783   9.382 -1.0480 -0.7294 -1.1118
   48CHL1   C15 5976   0.483   1.634   9.250  0.0613 -0.5864  1.2280
   48CHL1  H15A 5977   0.562   1.556   9.261 -0.6241 -1.8729 -1.8729
   48CHL1  H15B 5978   0.387   1.577   9.251 -1.1620  1.3811  0.5015
   48CHL1   C16 5979   0.498   1.715   9.121  0.3998 -0.6004  0.7691
   48CHL1  H16A 5980   0.578   1.676   9.054 -0.1628 -0.2731 -0.1112
   48CHL1  H16B 5981   0.403   1.718   9.064  1.2184  2.2032 -0.6116
   48CHL1   C17 5982   0.538   1.860   9.162  0.6006  0.3992 -0.3475
   48CHL1   H17 5983   0.438   1.907   9.176  0.2424 -0.6426  0.7625
   48CHL1   C13 5984   0.597   1.842   9.302  0.3745 -0.4149  0.7733
   48CHL1   C18 5985   0.740   1.785   9.290  0.0209 -0.2289  0.0036
   48CHL1  H18A 5986   0.774   1.747   9.389  1.2921  1.0830  0.1044
   48CHL1  H18B 5987   0.737   1.701   9.218 -0.0360  0.5995 -0.9869
   48CHL1  H18C 5988   0.812   1.864   9.262 -1.1415 -0.2108 -3.2932
   48CHL1   C12 5989   0.572   1.965   9.395  0.0960 -0.4730  0.3520
   48CHL1  H12A 5990   0.615   2.065   9.375  0.2604 -0.0558  2.5001
   48CHL1  H12B 5991   0.462   1.982   9.400 -0.2964 -1.9372 -1.9279
   48CHL1   C11 5992   0.621   1.931   9.533 -0.2785  0.6171 -0.0853
   48CHL1  H11A 5993   0.731   1.918   9.533 -0.3066  0.0730 -1.8776
   48CHL1  H11B 5994   0.607   2.015   9.603 -1.9934  0.0992  0.2265
   48CHL1    C9 5995   0.563   1.803   9.597 -0.7191  0.3985  0.4145
   48CHL1    H9 5996   0.456   1.814   9.624 -0.2812  0.6517  2.1592
   48CHL1   C10 5997   0.617   1.759   9.742 -0.3361  0.2030 -0.2501
   48CHL1   C19 5998   0.774   1.756   9.736 -0.0025  0.0783 -0.8190
   48CHL1  H19A 5999   0.805   1.711   9.833 -1.3979  0.1655 -0.3038
   48CHL1  H19B 6000   0.808   1.682   9.661  0.0264 -0.6768 -0.0753
   48CHL1  H19C 6001   0.820   1.855   9.714 -0.8441  0.3943 -1.2006
   48CHL1    C1 6002   0.571   1.872   9.837  0.2079 -0.2086 -0.6858
   48CHL1   H1A 6003   0.611   1.969   9.799 -1.4042 -0.1199 -2.2898
   48CHL1   H1B 6004   0.463   1.888   9.816  0.0333  2.7758  1.7333
   48CHL1    C2 6005   0.588   1.845   9.985  0.8141 -0.2952 -0.3967
   48CHL1   H2A 6006   0.545   1.916  10.058  0.5770 -0.9878  0.1511
   48CHL1   H2B 6007   0.699   1.834   9.985  0.9620  0.9953 -0.8818
   48CHL1   C20 6008   0.615   1.930   9.048 -0.5117  0.1089 -0.3353
   48CHL1   H20 6009   0.713   1.879   9.058  0.0020  1.4864  2.7575
   48CHL1   C21 6010   0.647   2.077   9.080  0.5434  0.6361  0.3418
   48CHL1  H21A 6011   0.549   2.128   9.092  0.8640  1.6585 -1.0484
   48CHL1  H21B 6012   0.713   2.128   9.006 -2.7570  1.0807 -2.5614
   48CHL1  H21C 6013   0.697   2.088   9.178 -0.1152 -1.3674  0.9354
   48CHL1   C22 6014   0.553   1.918   8.906 -0.2115  0.1533 -0.1758
   48CHL1  H22A 6015   0.503   1.821   8.884 -1.5715  0.6568  0.5430
   48CHL1  H22B 6016   0.466   1.985   8.888 -1.1446 -1.7091 -3.4935
   48CHL1   C23 6017   0.661   1.943   8.807 -0.2437 -0.1238  0.5412
   48CHL1  H23A 6018   0.722   2.032   8.833 -0.7772 -0.3978  2.9829
   48CHL1  H23B 6019   0.734   1.860   8.799 -0.7122 -0.7302  2.2043
   48CHL1   C24 6020   0.593   1.963   8.675  0.2254  0.8865  0.5563
   48CHL1  H24A 6021   0.517   1.882   8.673 -1.0598  2.0526  0.4822
   48CHL1  H24B 6022   0.540   2.060   8.686  0.7854  1.2258  0.2599
   48CHL1   C25 6023   0.668   1.963   8.539  0.1310 -0.0798 -0.1302
   48CHL1   H25 6024   0.589   1.957   8.461  0.4765  1.0885 -0.5886
   48CHL1   C26 6025   0.740   2.104   8.527 -0.1044  0.5051  0.3112
   48CHL1  H26A 6026   0.788   2.109   8.427 -1.9803  0.2765 -0.6463
   48CHL1  H26B 6027   0.661   2.182   8.533  1.8604  2.8489 -1.9552
   48CHL1  H26C 6028   0.811   2.119   8.611 -0.0134 -1.0685  0.5500
   48CHL1   C27 6029   0.771   1.846   8.501  0.0459  0.0302 -0.5608
   48CHL1  H27A 6030   0.807   1.854   8.397  0.8458  0.0421 -0.2918
   48CHL1  H27B 6031   0.868   1.855   8.556 -0.5643  2.6294  0.2270
   48CHL1  H27C 6032   0.725   1.745   8.504  0.3102 -0.2221 -3.0129
   49CHL1    C3 6033   6.139   3.089  10.208  0.6701 -0.0572 -0.3428
   49CHL1    H3 6034   6.229   3.031  10.177  0.5877 -0.1877 -0.3377
   49CHL1    O3 6035   6.153   3.129  10.346  0.1011  0.2422 -0.3232
   49CHL1   H3' 6036   6.076   3.186  10.360 -1.7417 -2.4969  1.8820
   49CHL1    C4 6037   6.120   3.218  10.128 -0.1759 -0.6392 -0.0374
   49CHL1   H4A 6038   6.042   3.288  10.164  1.1156  0.1686  1.3291
   49CHL1   H4B 6039   6.217   3.267  10.150 -0.4471 -0.4760  0.8192
   49CHL1    C5 6040   6.110   3.195   9.981  0.6795  0.2579  0.0307
   49CHL1    C6 6041   6.196   3.223   9.878 -0.3160  0.1142  0.7307
   49CHL1    H6 6042   6.291   3.277   9.889 -1.4555  3.6558 -3.7435
   49CHL1    C7 6043   6.160   3.198   9.730 -0.1699 -0.3207  0.6366
   49CHL1   H7A 6044   6.189   3.285   9.667 -2.4849 -1.9862 -3.0801
   49CHL1   H7B 6045   6.222   3.110   9.704 -0.4364 -1.1465  2.6752
   49CHL1    C8 6046   6.014   3.172   9.705 -0.5884 -0.2319 -0.2593
   49CHL1    H8 6047   5.950   3.262   9.720  0.0561  0.6913 -2.6084
   49CHL1   C14 6048   5.991   3.138   9.558  0.2195 -0.2797 -1.1232
   49CHL1   H14 6049   6.053   3.046   9.551 -1.7399 -1.5843 -2.1646
   49CHL1   C15 6050   6.038   3.231   9.448 -0.0985 -0.2042  0.1427
   49CHL1  H15A 6051   5.982   3.326   9.446 -1.4168 -0.9748 -1.3040
   49CHL1  H15B 6052   6.148   3.236   9.434 -0.2280 -1.4862 -1.6073
   49CHL1   C16 6053   5.978   3.157   9.321  0.5888 -0.2251 -0.0661
   49CHL1  H16A 6054   5.943   3.237   9.252  0.0758 -1.3160 -1.1115
   49CHL1  H16B 6055   6.062   3.100   9.276  1.6260  0.1907  1.2831
   49CHL1   C17 6056   5.876   3.051   9.379  0.5413 -0.1686  0.8328
   49CHL1   H17 6057   5.936   2.958   9.370  2.5582  1.0691  0.7571
   49CHL1   C13 6058   5.847   3.082   9.525 -0.0150 -0.3752 -0.2026
   49CHL1   C18 6059   5.746   3.197   9.547 -0.2100 -0.1184 -0.6741
   49CHL1  H18A 6060   5.751   3.240   9.649  0.3008  1.6095 -1.3938
   49CHL1  H18B 6061   5.751   3.285   9.479  2.0889  0.1669 -0.2292
   49CHL1  H18C 6062   5.646   3.150   9.533  0.6373 -1.7335 -1.5826
   49CHL1   C12 6063   5.823   2.958   9.614 -0.3359 -0.3951  0.7105
   49CHL1  H12A 6064   5.725   2.909   9.599  0.9905 -2.9749 -0.0217
   49CHL1  H12B 6065   5.900   2.884   9.585 -0.3624  0.4851 -1.8672
   49CHL1   C11 6066   5.834   2.993   9.766 -0.7106 -0.2476 -0.1341
   49CHL1  H11A 6067   5.749   3.055   9.801 -1.0551 -1.6225  1.5966
   49CHL1  H11B 6068   5.823   2.897   9.822  1.4540  0.0838  0.9245
   49CHL1    C9 6069   5.967   3.065   9.803  0.0562 -0.1446 -0.5974
   49CHL1    H9 6070   6.048   2.989   9.791 -1.1668 -1.7477  0.7855
   49CHL1   C10 6071   5.978   3.114   9.952 -0.5745  0.0063  0.3308
   49CHL1   C19 6072   5.849   3.194   9.986  0.0850  0.2518 -0.1499
   49CHL1  H19A 6073   5.756   3.133   9.989  1.5760 -2.1105  0.4631
   49CHL1  H19B 6074   5.847   3.246  10.085 -0.3704  0.8932 -0.4850
   49CHL1  H19C 6075   5.856   3.276   9.911  1.4610  0.9855  0.7392
   49CHL1    C1 6076   5.978   2.985  10.038 -0.2737 -0.0008 -0.0811
   49CHL1   H1A 6077   5.873   2.949  10.035  0.0908 -1.2511  1.2073
   49CHL1   H1B 6078   6.038   2.912   9.979  0.6402  1.9048 -1.6275
   49CHL1    C2 6079   6.018   2.997  10.183 -0.5093 -0.5077 -0.3972
   49CHL1   H2A 6080   6.027   2.893  10.221 -1.9210 -0.7764 -0.7412
   49CHL1   H2B 6081   5.929   3.043  10.231 -0.1805  1.5412 -1.6400
   49CHL1   C20 6082   5.755   3.045   9.289  0.5167  0.0773 -0.1156
   49CHL1   H20 6083   5.704   3.143   9.293  0.3386 -0.0281  0.2516
   49CHL1   C21 6084   5.652   2.943   9.338  0.2961  0.8197 -0.7287
   49CHL1  H21A 6085   5.586   2.990   9.415 -0.8677 -1.1825 -0.4272
   49CHL1  H21B 6086   5.695   2.848   9.377  2.2260  2.4884  1.4530
   49CHL1  H21C 6087   5.582   2.913   9.257  0.0783 -1.7149  0.2786
   49CHL1   C22 6088   5.783   3.025   9.137  0.7929  0.4981  0.5855
   49CHL1  H22A 6089   5.686   3.040   9.085  0.3051  0.7248  1.5440
   49CHL1  H22B 6090   5.845   3.111   9.106  2.0363  0.0416  1.7119
   49CHL1   C23 6091   5.856   2.894   9.102 -0.0953 -0.6213 -0.3760
   49CHL1  H23A 6092   5.944   2.884   9.170  0.9674  2.7107 -1.0596
   49CHL1  H23B 6093   5.792   2.806   9.121 -0.3380 -0.1652  1.0004
   49CHL1   C24 6094   5.887   2.893   8.955  0.3471  0.8716 -0.1039
   49CHL1  H24A 6095   5.955   2.973   8.921  1.5599  0.2190  0.7216
   49CHL1  H24B 6096   5.944   2.800   8.936  0.6748  0.9346  0.5647
   49CHL1   C25 6097   5.771   2.876   8.853 -0.1003 -0.1777 -0.4485
   49CHL1   H25 6098   5.713   2.969   8.870  1.4842  1.0941 -1.6404
   49CHL1   C26 6099   5.820   2.880   8.708  0.8292 -0.0678  0.1145
   49CHL1  H26A 6100   5.734   2.908   8.644 -0.6001  0.5560  2.1829
   49CHL1  H26B 6101   5.903   2.954   8.701 -0.5125  2.0289  3.6822
   49CHL1  H26C 6102   5.848   2.775   8.686 -3.1760 -1.5122  1.1537
   49CHL1   C27 6103   5.690   2.750   8.884 -1.1540 -0.2664  0.8632
   49CHL1  H27A 6104   5.617   2.743   8.800 -0.7365  1.7066  0.2803
   49CHL1  H27B 6105   5.758   2.662   8.879  0.4091  0.7118  3.1656
   49CHL1  H27C 6106   5.630   2.745   8.978 -0.6815 -3.5372  1.1133
   50CHL1    C3 6107   1.548   5.699   9.994  0.2358  0.8404  0.3238
   50CHL1    H3 6108   1.595   5.799  10.006  0.3266  1.0701 -1.6696
   50CHL1    O3 6109   1.494   5.652  10.119  0.0575  0.0076  0.3041
   50CHL1   H3' 6110   1.511   5.723  10.182  0.5234  1.0564 -0.9527
   50CHL1    C4 6111   1.436   5.700   9.886  0.8440  0.1030  0.7286
   50CHL1   H4A 6112   1.384   5.602   9.891 -0.3472  0.6142 -0.9767
   50CHL1   H4B 6113   1.357   5.772   9.915 -0.5620 -0.0856 -2.2258
   50CHL1    C5 6114   1.488   5.712   9.744  0.0989 -0.8318  0.5341
   50CHL1    C6 6115   1.446   5.812   9.665  0.0495 -1.2374 -1.3734
   50CHL1    H6 6116   1.374   5.884   9.707  0.6958  0.1186 -2.5151
   50CHL1    C7 6117   1.484   5.841   9.528  0.8078  0.3594  0.0183
   50CHL1   H7A 6118   1.397   5.870   9.466  1.4605  0.6084 -0.8061
   50CHL1   H7B 6119   1.555   5.927   9.520 -0.8494  1.7074 -0.8209
   50CHL1    C8 6120   1.553   5.714   9.464  0.4431  0.3627  0.4975
   50CHL1    H8 6121   1.477   5.639   9.433  0.8584  0.6766 -1.4176
   50CHL1   C14 6122   1.628   5.763   9.344 -0.3756 -0.1988  0.0086
   50CHL1   H14 6123   1.703   5.839   9.374 -1.5367 -0.4234  4.1007
   50CHL1   C15 6124   1.551   5.830   9.238  0.1850 -0.2401 -0.0240
   50CHL1  H15A 6125   1.464   5.762   9.224  2.2005 -3.0422  0.2461
   50CHL1  H15B 6126   1.498   5.927   9.251 -1.2798 -0.5489 -2.8045
   50CHL1   C16 6127   1.634   5.822   9.107 -0.6129 -0.1850  0.4455
   50CHL1  H16A 6128   1.570   5.793   9.022 -2.5679  0.0431  1.7663
   50CHL1  H16B 6129   1.681   5.920   9.084  0.4340 -0.3427  1.7373
   50CHL1   C17 6130   1.750   5.714   9.140 -0.1280  0.2739 -0.1869
   50CHL1   H17 6131   1.838   5.776   9.167  0.6627 -0.6241 -0.6476
   50CHL1   C13 6132   1.707   5.647   9.270  0.5069 -0.3899 -0.0649
   50CHL1   C18 6133   1.613   5.534   9.223  0.1859 -0.4335  0.9417
   50CHL1  H18A 6134   1.666   5.446   9.180  0.8343  0.1766  0.4784
   50CHL1  H18B 6135   1.554   5.477   9.298 -0.3401 -1.8602 -0.4865
   50CHL1  H18C 6136   1.545   5.586   9.152  0.2703  1.9232  2.4836
   50CHL1   C12 6137   1.804   5.586   9.372 -0.4570 -0.2252  0.8595
   50CHL1  H12A 6138   1.850   5.496   9.324 -0.1712 -0.0756  0.8476
   50CHL1  H12B 6139   1.885   5.662   9.379  0.1095 -0.5290 -1.3685
   50CHL1   C11 6140   1.742   5.537   9.503  0.9628 -0.1860 -0.8379
   50CHL1  H11A 6141   1.674   5.453   9.478 -1.8923  1.5246  0.5475
   50CHL1  H11B 6142   1.811   5.510   9.585 -0.4607  0.5608  0.6685
   50CHL1    C9 6143   1.654   5.649   9.562  0.4610  0.7879  0.3153
   50CHL1    H9 6144   1.725   5.731   9.583 -0.4088  1.6530 -0.0667
   50CHL1   C10 6145   1.595   5.611   9.698  0.0134 -0.0125  0.4001
   50CHL1   C19 6146   1.534   5.472   9.689  0.0008  0.1371  0.8349
   50CHL1  H19A 6147   1.452   5.464   9.614  0.5916  2.7038 -0.2022
   50CHL1  H19B 6148   1.611   5.393   9.673  3.3445  3.4060 -0.8178
   50CHL1  H19C 6149   1.494   5.442   9.788  3.1370  0.1979  2.2421
   50CHL1    C1 6150   1.701   5.618   9.810  0.3244 -0.4359  0.3755
   50CHL1   H1A 6151   1.776   5.541   9.783  0.9286  0.1139  0.4502
   50CHL1   H1B 6152   1.762   5.710   9.797  0.5507 -0.9130 -2.5214
   50CHL1    C2 6153   1.652   5.598   9.951  0.0543  0.5310  0.2810
   50CHL1   H2A 6154   1.739   5.609  10.019  0.6691  2.1043 -0.7048
   50CHL1   H2B 6155   1.608   5.497   9.964  0.7809  0.1347 -0.2705
   50CHL1   C20 6156   1.797   5.640   9.016 -1.0300  0.1983 -0.6243
   50CHL1   H20 6157   1.726   5.565   8.976 -1.8059 -0.1789  1.3420
   50CHL1   C21 6158   1.939   5.568   9.045 -0.0498  0.1423  0.1720
   50CHL1  H21A 6159   1.969   5.507   8.957 -0.3603 -1.5714  1.2126
   50CHL1  H21B 6160   1.945   5.503   9.135 -3.1380 -1.3471 -0.5793
   50CHL1  H21C 6161   2.011   5.652   9.048 -1.9950  1.8741  0.6432
   50CHL1   C22 6162   1.831   5.738   8.895  0.6612  0.3849 -0.2900
   50CHL1  H22A 6163   1.742   5.803   8.881  0.9088  0.6339 -0.7115
   50CHL1  H22B 6164   1.914   5.803   8.931 -0.0930  0.7397  0.8697
   50CHL1   C23 6165   1.868   5.668   8.766  0.3009  0.1488 -0.2180
   50CHL1  H23A 6166   1.972   5.629   8.761 -0.0036 -0.5303 -1.5647
   50CHL1  H23B 6167   1.796   5.585   8.751 -0.5123  0.7853  0.0722
   50CHL1   C24 6168   1.850   5.753   8.641 -0.2847  0.2980  0.0992
   50CHL1  H24A 6169   1.754   5.805   8.623 -0.3684  0.6299  1.4302
   50CHL1  H24B 6170   1.926   5.833   8.654 -1.2436  1.4098 -0.8755
   50CHL1   C25 6171   1.889   5.678   8.511 -0.8983  0.2688  0.6535
   50CHL1   H25 6172   1.811   5.600   8.499 -3.0818  1.7864  3.5807
   50CHL1   C26 6173   1.879   5.770   8.385 -0.2374 -0.0037  0.3330
   50CHL1  H26A 6174   1.774   5.798   8.364  0.0488  0.8536 -0.0041
   50CHL1  H26B 6175   1.941   5.859   8.406  0.1059  0.4797 -2.3949
   50CHL1  H26C 6176   1.932   5.722   8.300 -0.6434  0.5190 -0.2194
   50CHL1   C27 6177   2.031   5.612   8.517  0.0815 -0.1952 -0.0960
   50CHL1  H27A 6178   2.030   5.524   8.585  0.5651 -0.4000 -0.3457
   50CHL1  H27B 6179   2.063   5.575   8.417 -2.0230 -0.5811 -0.6807
   50CHL1  H27C 6180   2.103   5.686   8.556  0.6963 -0.1706 -1.2348
   51CHL1    C3 6181   2.596   0.768  10.210 -0.7705 -0.5026  0.0281
   51CHL1    H3 6182   2.596   0.876  10.184  3.1750  0.1331  2.0226
   51CHL1    O3 6183   2.545   0.753  10.338 -0.2627 -0.9590 -0.2216
   51CHL1   H3' 6184   2.522   0.840  10.372  3.0052 -0.3322  0.6774
   51CHL1    C4 6185   2.532   0.678  10.097  0.0671  0.4713 -0.9668
   51CHL1   H4A 6186   2.543   0.577  10.141 -1.7569  0.8675  0.5038
   51CHL1   H4B 6187   2.422   0.689  10.091 -0.1495  0.6661  2.0347
   51CHL1    C5 6188   2.591   0.685   9.963 -0.4579 -0.2059  0.2401
   51CHL1    C6 6189   2.509   0.718   9.859  0.6565 -0.2144 -0.0217
   51CHL1    H6 6190   2.400   0.719   9.873  0.7457  1.4360  0.8386
   51CHL1    C7 6191   2.562   0.745   9.726  0.0032  0.8077  0.4038
   51CHL1   H7A 6192   2.489   0.717   9.647 -1.8923  0.3421  2.2118
   51CHL1   H7B 6193   2.585   0.853   9.713 -0.3603  0.8926  0.4388
   51CHL1    C8 6194   2.700   0.680   9.705 -0.3360 -0.1547 -0.4755
   51CHL1    H8 6195   2.687   0.570   9.705 -1.1253 -0.1200  2.2213
   51CHL1   C14 6196   2.741   0.734   9.569 -0.5314  0.2888 -0.0197
   51CHL1   H14 6197   2.746   0.844   9.583 -0.3258  0.0842  1.9006
   51CHL1   C15 6198   2.650   0.705   9.454  0.6837  0.4734  0.0951
   51CHL1  H15A 6199   2.621   0.603   9.486  1.9512  0.6938  2.0642
   51CHL1  H15B 6200   2.567   0.780   9.449 -0.7669 -1.0895 -3.8081
   51CHL1   C16 6201   2.745   0.702   9.327 -0.7691 -0.6215 -0.2420
   51CHL1  H16A 6202   2.740   0.602   9.277  0.2047 -0.7231 -0.1595
   51CHL1  H16B 6203   2.724   0.776   9.247 -2.4709 -0.6325  0.1438
   51CHL1   C17 6204   2.888   0.730   9.380  0.3581  0.1105  0.1764
   51CHL1   H17 6205   2.909   0.839   9.390 -0.1682  0.2584 -0.2804
   51CHL1   C13 6206   2.885   0.688   9.533  0.3905  0.2821 -1.1302
   51CHL1   C18 6207   2.901   0.531   9.528 -0.3861 -0.7979 -0.5608
   51CHL1  H18A 6208   2.899   0.479   9.626 -0.2575 -2.3388 -1.3419
   51CHL1  H18B 6209   2.814   0.487   9.475 -0.8210 -3.4079  2.0491
   51CHL1  H18C 6210   2.992   0.506   9.469 -0.5674 -0.3399 -1.0334
   51CHL1   C12 6211   2.973   0.755   9.634 -0.5474 -0.0246 -0.5594
   51CHL1  H12A 6212   3.080   0.737   9.610 -0.6403 -2.1892  0.4220
   51CHL1  H12B 6213   2.950   0.864   9.636 -1.4174 -0.2040  0.9247
   51CHL1   C11 6214   2.946   0.699   9.775 -0.4534 -0.8981 -0.5113
   51CHL1  H11A 6215   2.980   0.594   9.791 -0.1575 -0.4316  2.3696
   51CHL1  H11B 6216   3.016   0.743   9.848  0.2117 -1.3287 -0.8715
   51CHL1    C9 6217   2.800   0.725   9.815 -0.2839 -0.3982  0.0720
   51CHL1    H9 6218   2.794   0.836   9.819  1.0310 -0.2739 -0.9114
   51CHL1   C10 6219   2.747   0.674   9.950  0.7758  0.5460  0.8147
   51CHL1   C19 6220   2.797   0.526   9.960 -0.4045 -0.4404 -0.1982
   51CHL1  H19A 6221   2.906   0.517   9.979 -0.0739 -0.4370 -1.9633
   51CHL1  H19B 6222   2.750   0.473  10.045  0.2815 -0.4153  0.2015
   51CHL1  H19C 6223   2.776   0.473   9.865 -1.1780  0.6433 -0.6666
   51CHL1    C1 6224   2.806   0.755  10.060  0.4090  0.2391 -0.4234
   51CHL1   H1A 6225   2.917   0.748  10.064  0.3998 -0.2095 -0.8481
   51CHL1   H1B 6226   2.772   0.859  10.043  1.3014  0.3056 -1.9889
   51CHL1    C2 6227   2.748   0.727  10.203 -0.3294  0.5516 -0.2802
   51CHL1   H2A 6228   2.792   0.784  10.288 -3.6218  1.1132  1.1875
   51CHL1   H2B 6229   2.779   0.622  10.224  0.0175  0.8905  1.0032
   51CHL1   C20 6230   2.989   0.679   9.272  0.1676  0.0598  0.0323
   51CHL1   H20 6231   2.982   0.570   9.253  2.7184 -0.7476  2.8657
   51CHL1   C21 6232   3.137   0.699   9.321  0.8884  0.4874  0.5743
   51CHL1  H21A 6233   3.148   0.669   9.428 -2.2127  2.5071  1.6091
   51CHL1  H21B 6234   3.157   0.808   9.313 -2.4484  1.0715 -1.9849
   51CHL1  H21C 6235   3.197   0.632   9.256  1.0815 -1.0022  2.2105
   51CHL1   C22 6236   2.977   0.752   9.135 -0.2681  0.1372  0.1645
   51CHL1  H22A 6237   2.883   0.729   9.080  1.0826  0.2963 -2.3559
   51CHL1  H22B 6238   2.982   0.861   9.155  2.0671 -0.0130  0.6332
   51CHL1   C23 6239   3.088   0.717   9.029 -0.2553 -0.3283 -0.5029
   51CHL1  H23A 6240   3.189   0.745   9.067 -0.6976 -1.7121  1.9100
   51CHL1  H23B 6241   3.101   0.607   9.019  2.1554 -0.2129  0.7103
   51CHL1   C24 6242   3.057   0.779   8.894  0.0693  0.0279 -0.0425
   51CHL1  H24A 6243   2.960   0.747   8.850  0.0969  1.1513 -0.9657
   51CHL1  H24B 6244   3.044   0.889   8.896 -1.3571 -0.1310  0.2019
   51CHL1   C25 6245   3.156   0.730   8.779 -0.7347  0.0470 -0.1904
   51CHL1   H25 6246   3.141   0.623   8.753  1.5445 -0.7477  1.5086
   51CHL1   C26 6247   3.151   0.818   8.656 -0.0608  0.3102  0.1896
   51CHL1  H26A 6248   3.061   0.788   8.598  1.2625 -3.2056 -0.2321
   51CHL1  H26B 6249   3.152   0.928   8.676 -2.9625  0.8168 -1.7536
   51CHL1  H26C 6250   3.236   0.797   8.588 -1.4817 -0.6728 -1.3735
   51CHL1   C27 6251   3.304   0.745   8.832 -0.0539  0.2512  0.4548
   51CHL1  H27A 6252   3.318   0.678   8.920  1.2110  2.5562  2.0875
   51CHL1  H27B 6253   3.377   0.729   8.750 -0.0719  2.4896 -0.0579
   51CHL1  H27C 6254   3.331   0.849   8.858  1.6568 -0.2539  0.8436
   52CHL1    C3 6255   0.735   0.393   9.971  0.5519 -0.0566  0.2482
   52CHL1    H3 6256   0.703   0.287   9.974 -1.0803  0.4052  3.6317
   52CHL1    O3 6257   0.712   0.453  10.096 -0.0384  0.0047  0.7192
   52CHL1   H3' 6258   0.764   0.397  10.153 -2.0512 -3.0187 -0.1601
   52CHL1    C4 6259   0.889   0.386   9.928  0.0103 -0.3466 -0.1420
   52CHL1   H4A 6260   0.926   0.491   9.925  0.9006 -0.6610 -2.1373
   52CHL1   H4B 6261   0.949   0.331  10.003  2.0187 -1.1487 -2.2087
   52CHL1    C5 6262   0.912   0.337   9.792 -0.7808  0.0029  0.0210
   52CHL1    C6 6263   1.005   0.242   9.764  0.0857 -1.0588 -0.6337
   52CHL1    H6 6264   1.058   0.207   9.853  1.2605 -0.7210 -1.1860
   52CHL1    C7 6265   1.038   0.189   9.626 -0.0214 -0.3129 -0.3446
   52CHL1   H7A 6266   1.147   0.170   9.615 -0.3962 -2.0755 -1.3455
   52CHL1   H7B 6267   0.967   0.103   9.621  0.1974 -0.4160 -2.4725
   52CHL1    C8 6268   0.990   0.280   9.504  0.0972 -0.1689  0.5976
   52CHL1    H8 6269   1.058   0.367   9.500  0.3274 -0.3166  1.1444
   52CHL1   C14 6270   1.002   0.198   9.371 -0.7522 -0.2654 -0.0670
   52CHL1   H14 6271   0.934   0.112   9.387 -0.7841  0.0916  1.9640
   52CHL1   C15 6272   1.141   0.142   9.323  1.3573 -0.3694 -0.1983
   52CHL1  H15A 6273   1.220   0.211   9.360 -2.3897  3.9423  0.6374
   52CHL1  H15B 6274   1.149   0.041   9.369 -3.3349 -1.6763 -1.6463
   52CHL1   C16 6275   1.123   0.115   9.176 -0.3018  0.3127 -0.0161
   52CHL1  H16A 6276   1.198   0.172   9.118 -1.1279  0.6834 -0.7394
   52CHL1  H16B 6277   1.141   0.007   9.157  4.1241  0.3983  2.4024
   52CHL1   C17 6278   0.980   0.162   9.137 -0.7086  0.0172  0.2795
   52CHL1   H17 6279   0.915   0.074   9.158  1.4614 -1.4162  1.2424
   52CHL1   C13 6280   0.945   0.271   9.247  0.2753 -0.1260 -0.2169
   52CHL1   C18 6281   1.024   0.397   9.214 -0.4973  1.0692  0.0809
   52CHL1  H18A 6282   1.129   0.375   9.188 -0.9604 -0.0366 -0.9300
   52CHL1  H18B 6283   0.969   0.433   9.125 -1.9095 -0.7286  0.1566
   52CHL1  H18C 6284   1.013   0.472   9.296 -2.3210 -0.3690  1.2635
   52CHL1   C12 6285   0.795   0.284   9.286  0.7715  0.0204  0.1550
   52CHL1  H12A 6286   0.742   0.329   9.199  0.8049 -1.0786 -0.4551
   52CHL1  H12B 6287   0.754   0.181   9.301 -1.1190  0.8622  1.1269
   52CHL1   C11 6288   0.770   0.377   9.403  0.2003  0.2210 -0.2359
   52CHL1  H11A 6289   0.804   0.482   9.388 -0.9402  0.3444 -2.4334
   52CHL1  H11B 6290   0.663   0.379   9.431  0.3651  2.1595  0.4236
   52CHL1    C9 6291   0.841   0.322   9.536  0.2889 -0.3579  0.0322
   52CHL1    H9 6292   0.781   0.230   9.553  0.2152  0.1234  2.8639
   52CHL1   C10 6293   0.825   0.401   9.672  0.0058 -0.6849 -0.0177
   52CHL1   C19 6294   0.872   0.544   9.651 -0.0318 -0.2586  0.1758
   52CHL1  H19A 6295   0.878   0.608   9.742 -0.2781 -1.2872  0.9272
   52CHL1  H19B 6296   0.977   0.543   9.613 -0.9348 -0.8469 -2.4895
   52CHL1  H19C 6297   0.804   0.599   9.582 -0.4767 -2.5407 -1.3163
   52CHL1    C1 6298   0.676   0.410   9.715  0.6204 -0.6319  0.4310
   52CHL1   H1A 6299   0.624   0.472   9.638 -0.6212  0.7025  2.2626
   52CHL1   H1B 6300   0.635   0.307   9.724  0.9455 -0.8266 -0.2935
   52CHL1    C2 6301   0.661   0.467   9.861  0.4837 -0.1512  0.4005
   52CHL1   H2A 6302   0.558   0.451   9.900  0.0554 -2.5147 -1.4170
   52CHL1   H2B 6303   0.675   0.577   9.859  0.1840 -0.1083 -1.6423
   52CHL1   C20 6304   0.957   0.205   8.992  0.0766 -0.1642 -0.4765
   52CHL1   H20 6305   1.018   0.294   8.967 -0.4131  0.2389 -0.2576
   52CHL1   C21 6306   0.807   0.212   8.965  0.0768 -0.2253  0.0485
   52CHL1  H21A 6307   0.760   0.305   9.003 -1.8187 -1.5321  1.0915
   52CHL1  H21B 6308   0.751   0.130   9.014 -1.2867  0.7994  0.2793
   52CHL1  H21C 6309   0.779   0.212   8.857  0.7951 -0.2422 -0.1450
   52CHL1   C22 6310   1.015   0.105   8.890 -0.3307  1.0832 -0.8518
   52CHL1  H22A 6311   1.124   0.096   8.911 -0.2924 -1.3760 -1.7563
   52CHL1  H22B 6312   0.976   0.004   8.917 -0.9871  2.2449  3.1308
   52CHL1   C23 6313   1.010   0.136   8.738 -0.1190  0.0839  0.3666
   52CHL1  H23A 6314   0.908   0.119   8.696  0.2519  1.8264 -1.4223
   52CHL1  H23B 6315   1.025   0.245   8.725 -1.7007  0.2967  0.0889
   52CHL1   C24 6316   1.110   0.059   8.652  0.0961 -0.6948  0.0042
   52CHL1  H24A 6317   1.196   0.048   8.721  0.2206  2.4137  0.4544
   52CHL1  H24B 6318   1.062  -0.040   8.632 -1.9081 -0.0826  1.4934
   52CHL1   C25 6319   1.146   0.140   8.525  0.0917  0.2994  0.0981
   52CHL1   H25 6320   1.177   0.235   8.574  0.6241 -0.9470  2.2512
   52CHL1   C26 6321   1.262   0.079   8.443 -0.9680  0.2637  0.1432
   52CHL1  H26A 6322   1.261   0.120   8.340  1.4547  2.4097  0.8667
   52CHL1  H26B 6323   1.361   0.117   8.477  0.3015 -0.2924 -2.6243
   52CHL1  H26C 6324   1.262  -0.032   8.442  2.7993  0.1460  0.7135
   52CHL1   C27 6325   1.019   0.163   8.437 -0.0528  0.4110 -0.1889
   52CHL1  H27A 6326   0.970   0.255   8.476 -1.2776 -1.0120  1.8065
   52CHL1  H27B 6327   1.041   0.162   8.328 -0.7903 -2.5590 -0.4022
   52CHL1  H27C 6328   0.950   0.079   8.459 -0.1206  0.3630 -0.5680
   53CHL1    C3 6329   0.166   6.553  10.076  0.3539 -0.2002  0.0578
   53CHL1    H3 6330   0.140   6.661  10.067  1.0285  0.5255  4.3392
   53CHL1    O3 6331   0.175   6.533  10.215  0.6009  0.3406 -0.3454
   53CHL1   H3' 6332   0.093   6.487  10.235  0.2003  0.7178 -1.0937
   53CHL1    C4 6333   0.053   6.464  10.018  0.1482 -0.3378 -0.6448
   53CHL1   H4A 6334   0.069   6.363  10.062  0.0647 -0.6238 -1.2599
   53CHL1   H4B 6335  -0.045   6.506  10.049  0.2109 -0.4644 -0.2781
   53CHL1    C5 6336   0.060   6.428   9.870  0.1000  0.1952 -0.4023
   53CHL1    C6 6337  -0.045   6.432   9.795 -0.4530 -0.0413 -0.2758
   53CHL1    H6 6338  -0.138   6.446   9.852 -0.7795 -2.7810 -0.0358
   53CHL1    C7 6339  -0.051   6.420   9.648 -0.2169  0.1833  0.0091
   53CHL1   H7A 6340  -0.126   6.343   9.618 -3.0381  2.8069 -0.2117
   53CHL1   H7B 6341  -0.079   6.516   9.600  0.6246  0.9683  1.0456
   53CHL1    C8 6342   0.087   6.373   9.588  0.1025  0.0465 -0.0436
   53CHL1    H8 6343   0.091   6.264   9.612  0.2826 -0.3890 -1.8538
   53CHL1   C14 6344   0.098   6.408   9.436 -1.6392  0.8996 -0.6233
   53CHL1   H14 6345   0.103   6.519   9.433 -0.0457  0.9947  2.0796
   53CHL1   C15 6346  -0.020   6.375   9.344  0.7421  0.9014 -0.7006
   53CHL1  H15A 6347  -0.066   6.278   9.373  1.8011 -0.2606 -2.7101
   53CHL1  H15B 6348  -0.087   6.462   9.358  1.0111  0.9283  0.5508
   53CHL1   C16 6349   0.041   6.366   9.204  0.9154 -0.0284  0.6287
   53CHL1  H16A 6350   0.037   6.259   9.175 -1.4146  0.2776 -0.3472
   53CHL1  H16B 6351  -0.009   6.427   9.126  1.6950 -0.9931 -0.6525
   53CHL1   C17 6352   0.189   6.412   9.219 -0.2362  0.2536 -0.5509
   53CHL1   H17 6353   0.196   6.523   9.221  1.0143  0.3050 -3.2557
   53CHL1   C13 6354   0.224   6.361   9.364  0.1039 -0.8058 -0.1912
   53CHL1   C18 6355   0.226   6.205   9.378  0.0487  0.4624  0.6373
   53CHL1  H18A 6356   0.240   6.173   9.483 -2.0080 -0.2728  0.7346
   53CHL1  H18B 6357   0.131   6.166   9.336 -0.6226  0.3958  2.1493
   53CHL1  H18C 6358   0.314   6.168   9.320  0.2749  1.3403  0.3975
   53CHL1   C12 6359   0.345   6.423   9.438 -0.3335 -0.2551  0.2993
   53CHL1  H12A 6360   0.434   6.386   9.383 -0.4139  1.9043 -1.4112
   53CHL1  H12B 6361   0.341   6.533   9.427  3.4505  0.0917  1.2901
   53CHL1   C11 6362   0.347   6.404   9.587 -0.4554 -0.5860  0.3472
   53CHL1  H11A 6363   0.368   6.298   9.614 -3.0428 -1.4197 -0.6104
   53CHL1  H11B 6364   0.425   6.474   9.624  0.0744 -1.9159  1.8629
   53CHL1    C9 6365   0.205   6.434   9.657 -0.2817  0.2875 -0.6940
   53CHL1    H9 6366   0.195   6.543   9.639  1.2593  0.2393 -2.1654
   53CHL1   C10 6367   0.201   6.415   9.814  0.6105  0.3578 -0.0018
   53CHL1   C19 6368   0.246   6.269   9.844 -0.0548 -0.3482  0.4713
   53CHL1  H19A 6369   0.201   6.191   9.779 -0.0536  0.0302  0.0070
   53CHL1  H19B 6370   0.356   6.258   9.837  0.0984  1.0253  0.3043
   53CHL1  H19C 6371   0.208   6.232   9.941 -0.7822 -2.1116 -0.4361
   53CHL1    C1 6372   0.309   6.509   9.877 -0.1385 -0.5562  0.1413
   53CHL1   H1A 6373   0.409   6.472   9.848  0.2588  0.4568  0.1908
   53CHL1   H1B 6374   0.293   6.610   9.834  1.4327 -1.0220 -1.6710
   53CHL1    C2 6375   0.303   6.513  10.027  0.4679 -0.4178 -0.3991
   53CHL1   H2A 6376   0.381   6.583  10.063  0.3343 -0.3775 -0.1873
   53CHL1   H2B 6377   0.333   6.414  10.067 -1.3070 -0.8911 -0.1474
   53CHL1   C20 6378   0.300   6.384   9.116  0.1467 -0.3375  0.0260
   53CHL1   H20 6379   0.366   6.305   9.160 -0.9538 -1.6314 -0.5848
   53CHL1   C21 6380   0.378   6.514   9.089  0.2458 -0.2963 -0.1462
   53CHL1  H21A 6381   0.409   6.554   9.188  1.1401  0.1628 -0.6001
   53CHL1  H21B 6382   0.321   6.602   9.051  3.4153  2.7826  1.6133
   53CHL1  H21C 6383   0.465   6.498   9.021  0.1077 -2.7647  0.1751
   53CHL1   C22 6384   0.250   6.326   8.979 -0.5513  0.2264  0.1470
   53CHL1  H22A 6385   0.236   6.219   9.002 -1.4403  0.4115  0.5348
   53CHL1  H22B 6386   0.157   6.381   8.953 -2.0024  0.2883  4.5914
   53CHL1   C23 6387   0.337   6.335   8.855  0.1161  0.3065 -0.1474
   53CHL1  H23A 6388   0.289   6.291   8.766  2.2443 -2.0526 -0.2772
   53CHL1  H23B 6389   0.352   6.444   8.842  2.1907  0.3050  1.4877
   53CHL1   C24 6390   0.471   6.266   8.879 -0.7098 -0.2977  0.0697
   53CHL1  H24A 6391   0.526   6.306   8.967 -0.4790 -2.2620  0.8762
   53CHL1  H24B 6392   0.458   6.160   8.911  1.9129 -0.5779  0.4596
   53CHL1   C25 6393   0.570   6.253   8.761 -0.0004  0.0973 -0.6952
   53CHL1   H25 6394   0.518   6.230   8.666  0.2974 -1.9964 -0.3889
   53CHL1   C26 6395   0.634   6.390   8.749 -0.2269 -0.3741 -0.1381
   53CHL1  H26A 6396   0.573   6.470   8.703  0.3799  0.9314  1.2490
   53CHL1  H26B 6397   0.657   6.418   8.854  0.1914 -0.6235 -0.1622
   53CHL1  H26C 6398   0.730   6.381   8.695 -0.3576 -0.5780 -0.3389
   53CHL1   C27 6399   0.678   6.147   8.783 -0.2553  0.0586  0.1986
   53CHL1  H27A 6400   0.645   6.042   8.799  2.8625 -1.2746 -1.2203
   53CHL1  H27B 6401   0.754   6.160   8.704  0.4128  2.7070  1.1830
   53CHL1  H27C 6402   0.733   6.163   8.878  1.6062  2.9331 -1.2228
   54CHL1    C3 6403   0.222   1.975  10.097 -0.3802 -0.1136  0.0218
   54CHL1    H3 6404   0.329   1.970  10.065 -0.5015  0.0461 -0.4091
   54CHL1    O3 6405   0.235   1.992  10.240  0.4606  0.5817 -0.2459
   54CHL1   H3' 6406   0.144   2.003  10.267  0.0706 -1.4826 -0.5793
   54CHL1    C4 6407   0.165   2.104  10.032 -0.4659  0.8323  0.3419
   54CHL1   H4A 6408   0.065   2.115  10.079  0.4498  0.7145  2.4414
   54CHL1   H4B 6409   0.216   2.191  10.078 -0.1535  0.8012  0.0568
   54CHL1    C5 6410   0.166   2.092   9.885 -0.0186 -0.5888 -0.1199
   54CHL1    C6 6411   0.242   2.178   9.809 -0.4389 -0.2246  0.0413
   54CHL1    H6 6412   0.296   2.261   9.856 -0.7107  0.0291 -0.0900
   54CHL1    C7 6413   0.257   2.173   9.660  0.2293 -0.6518 -0.5629
   54CHL1   H7A 6414   0.251   2.276   9.620 -1.8521 -0.3411  0.4466
   54CHL1   H7B 6415   0.347   2.110   9.638  1.1527  0.7698 -1.0048
   54CHL1    C8 6416   0.137   2.099   9.607  0.0261 -0.9140  0.7714
   54CHL1    H8 6417   0.044   2.156   9.626  2.0472  1.4927  4.6235
   54CHL1   C14 6418   0.160   2.078   9.454 -0.0712 -0.3133  0.3994
   54CHL1   H14 6419   0.256   2.023   9.446  0.4251  0.8257 -3.9212
   54CHL1   C15 6420   0.189   2.205   9.363  0.1240  0.1690  0.1872
   54CHL1  H15A 6421   0.124   2.292   9.386 -0.1086 -0.3808  1.7187
   54CHL1  H15B 6422   0.294   2.239   9.372  0.1858  0.1958 -0.6096
   54CHL1   C16 6423   0.163   2.158   9.222 -0.1743 -0.3448  0.4297
   54CHL1  H16A 6424   0.076   2.209   9.177 -0.7477 -0.0082  1.8544
   54CHL1  H16B 6425   0.250   2.165   9.154  0.2117  0.7816  1.0160
   54CHL1   C17 6426   0.123   2.008   9.233  0.2441 -1.1149 -0.4078
   54CHL1   H17 6427   0.218   1.951   9.237 -0.0853 -1.6035  1.1276
   54CHL1   C13 6428   0.063   1.999   9.377  0.0391  0.4240 -0.0275
   54CHL1   C18 6429  -0.079   2.064   9.384  0.3400  0.1911  0.9273
   54CHL1  H18A 6430  -0.154   1.998   9.334  2.6842 -0.8379 -1.4673
   54CHL1  H18B 6431  -0.105   2.087   9.490  0.7554  1.8517  0.6906
   54CHL1  H18C 6432  -0.072   2.162   9.332  1.9133 -1.4583 -2.2112
   54CHL1   C12 6433   0.065   1.857   9.447 -0.2331  0.0585 -0.5295
   54CHL1  H12A 6434   0.005   1.787   9.386  1.5620 -1.9985 -0.0805
   54CHL1  H12B 6435   0.167   1.813   9.439 -0.3655 -0.8621  2.1031
   54CHL1   C11 6436   0.027   1.865   9.599  0.1355  0.4842  0.1976
   54CHL1  H11A 6437  -0.081   1.888   9.606 -0.0999 -0.9001  2.0158
   54CHL1  H11B 6438   0.031   1.763   9.645 -0.7807 -0.0291 -0.8141
   54CHL1    C9 6439   0.117   1.965   9.682 -0.0488 -0.6865  0.1846
   54CHL1    H9 6440   0.220   1.925   9.677  0.1271 -0.0961 -1.1016
   54CHL1   C10 6441   0.087   1.971   9.831  0.3438 -0.8158 -0.0793
   54CHL1   C19 6442  -0.068   1.992   9.851  0.5660 -0.3432  0.1465
   54CHL1  H19A 6443  -0.103   2.093   9.821 -1.4719 -0.5029  1.7995
   54CHL1  H19B 6444  -0.125   1.912   9.799  2.5363 -0.5328 -1.8917
   54CHL1  H19C 6445  -0.084   1.975   9.959 -1.2126  0.0445 -0.0276
   54CHL1    C1 6446   0.127   1.846   9.908  0.4139 -0.2166  0.1058
   54CHL1   H1A 6447   0.051   1.767   9.887 -1.1877  0.6821  2.1213
   54CHL1   H1B 6448   0.229   1.818   9.874  0.6093  0.3607  0.2083
   54CHL1    C2 6449   0.138   1.859  10.057 -0.4212  0.0824 -0.0305
   54CHL1   H2A 6450   0.163   1.757  10.095 -1.7149 -0.5352 -0.7625
   54CHL1   H2B 6451   0.039   1.866  10.107  0.1861  0.7383  1.1250
   54CHL1   C20 6452   0.045   1.961   9.115  0.5177 -0.2064 -0.2870
   54CHL1   H20 6453  -0.052   2.014   9.113  0.1750 -0.6329  1.8819
   54CHL1   C21 6454  -0.005   1.812   9.134  0.4153  0.2110  0.0585
   54CHL1  H21A 6455  -0.084   1.801   9.211 -0.7057  1.4571 -0.8637
   54CHL1  H21B 6456   0.082   1.745   9.151 -2.6563 -3.5584  2.6250
   54CHL1  H21C 6457  -0.049   1.782   9.036  0.5382  0.9167 -0.2170
   54CHL1   C22 6458   0.115   1.971   8.977  0.3521  0.6322  0.1096
   54CHL1  H22A 6459   0.151   2.075   8.960 -1.0570  1.0582 -0.3754
   54CHL1  H22B 6460   0.200   1.899   8.979 -0.6893 -0.6342  2.1876
   54CHL1   C23 6461   0.030   1.925   8.867 -0.0852  0.0316  0.7430
   54CHL1  H23A 6462   0.059   1.821   8.840 -4.2696 -0.7880 -1.3643
   54CHL1  H23B 6463  -0.077   1.926   8.896 -0.5677 -0.3717 -0.9247
   54CHL1   C24 6464   0.063   2.011   8.744 -0.1910 -0.6359 -0.4534
   54CHL1  H24A 6465  -0.022   2.018   8.673 -1.2614 -1.2828  0.7260
   54CHL1  H24B 6466   0.093   2.113   8.778  0.7966 -0.1912 -2.5149
   54CHL1   C25 6467   0.180   1.965   8.662 -0.9356 -0.2108 -0.0823
   54CHL1   H25 6468   0.260   1.934   8.733  0.1868  1.3151 -0.6356
   54CHL1   C26 6469   0.147   1.857   8.569  0.1693 -0.1800  0.4072
   54CHL1  H26A 6470   0.194   1.763   8.605  2.2682  1.4670  2.2410
   54CHL1  H26B 6471   0.038   1.837   8.574  0.0030  0.1822 -1.1705
   54CHL1  H26C 6472   0.176   1.872   8.463 -1.1310 -1.1951 -0.1287
   54CHL1   C27 6473   0.252   2.086   8.585 -0.0356 -0.3679 -0.2966
   54CHL1  H27A 6474   0.172   2.142   8.531  0.9424 -0.0406 -1.4497
   54CHL1  H27B 6475   0.292   2.150   8.666  0.8921 -1.8421  0.4323
   54CHL1  H27C 6476   0.327   2.058   8.508  1.8928  2.8684  0.2103
   55CHL1    C3 6477   6.774   5.872  10.095  0.4783  0.2564  0.3493
   55CHL1    H3 6478   6.796   5.977  10.064 -0.0331  0.7492  1.6010
   55CHL1    O3 6479   6.769   5.887  10.234 -0.2367  0.1579 -0.1575
   55CHL1   H3' 6480   6.800   5.805  10.272  0.8713  1.3726  1.7955
   55CHL1    C4 6481   6.641   5.834  10.037 -0.1800 -0.0021 -1.3997
   55CHL1   H4A 6482   6.600   5.737  10.074  2.4084 -0.5463  0.2825
   55CHL1   H4B 6483   6.571   5.908  10.081  1.2272  0.4671  0.1368
   55CHL1    C5 6484   6.641   5.841   9.886 -0.8461  0.2640  0.4851
   55CHL1    C6 6485   6.552   5.916   9.822  0.0152  0.4193 -0.3857
   55CHL1    H6 6486   6.480   5.979   9.876  0.5574  1.5807 -0.9710
   55CHL1    C7 6487   6.556   5.939   9.674  0.2478  0.6995 -0.3154
   55CHL1   H7A 6488   6.459   5.956   9.623  0.6967  1.1322 -1.0312
   55CHL1   H7B 6489   6.609   6.034   9.652 -0.8275  1.0411 -1.5127
   55CHL1    C8 6490   6.638   5.831   9.591  0.2539  0.0139 -1.0076
   55CHL1    H8 6491   6.571   5.743   9.583  0.5110 -0.4100  1.0646
   55CHL1   C14 6492   6.678   5.875   9.448 -0.1460  0.1126  0.1288
   55CHL1   H14 6493   6.738   5.966   9.463 -0.2622  0.2664 -0.3244
   55CHL1   C15 6494   6.559   5.916   9.355 -0.2397 -0.5731  0.1207
   55CHL1  H15A 6495   6.486   5.833   9.368 -0.4660 -0.6736 -1.5636
   55CHL1  H15B 6496   6.510   6.007   9.396 -1.2576 -1.6338  1.3597
   55CHL1   C16 6497   6.629   5.917   9.214  1.1853 -0.1004 -0.5569
   55CHL1  H16A 6498   6.569   5.859   9.141  1.8459  1.3163 -2.3245
   55CHL1  H16B 6499   6.633   6.023   9.178 -0.2296 -0.6168 -2.4326
   55CHL1   C17 6500   6.770   5.859   9.235 -0.0016 -0.0014 -0.2628
   55CHL1   H17 6501   6.833   5.947   9.264 -0.5763 -0.0972  1.3587
   55CHL1   C13 6502   6.762   5.781   9.370 -0.0000  0.1517  0.8335
   55CHL1   C18 6503   6.696   5.644   9.343 -0.5466  0.1294 -0.1274
   55CHL1  H18A 6504   6.684   5.589   9.439  0.7147  1.8685  1.0832
   55CHL1  H18B 6505   6.595   5.659   9.299 -0.6439  1.9529  0.6099
   55CHL1  H18C 6506   6.752   5.586   9.267  0.5186  1.0978 -0.1026
   55CHL1   C12 6507   6.892   5.755   9.451  0.1771  0.4401  0.2035
   55CHL1  H12A 6508   6.962   5.685   9.401 -1.3318  0.7940 -2.6131
   55CHL1  H12B 6509   6.947   5.852   9.455  2.0176 -0.5842  1.3411
   55CHL1   C11 6510   6.863   5.709   9.591  0.0800 -1.0276 -0.1499
   55CHL1  H11A 6511   6.827   5.604   9.595  0.9041 -1.2921  0.6779
   55CHL1  H11B 6512   6.961   5.721   9.643 -1.0979  2.2973  1.5277
   55CHL1    C9 6513   6.764   5.795   9.667 -0.2910  0.6870 -0.2062
   55CHL1    H9 6514   6.814   5.894   9.671 -0.8802  0.9493  1.5925
   55CHL1   C10 6515   6.755   5.755   9.817  0.1544  0.4175  0.2750
   55CHL1   C19 6516   6.719   5.606   9.828 -0.1077 -0.9470 -0.1683
   55CHL1  H19A 6517   6.708   5.587   9.937  1.0875 -0.0003  0.1445
   55CHL1  H19B 6518   6.621   5.594   9.778 -1.6732  2.0937  1.8500
   55CHL1  H19C 6519   6.805   5.548   9.788  1.1506  0.8330 -0.2199
   55CHL1    C1 6520   6.889   5.791   9.890 -0.1833  0.2605 -0.6995
   55CHL1   H1A 6521   6.964   5.722   9.845  1.3933  1.1541  0.4498
   55CHL1   H1B 6522   6.911   5.894   9.856  2.4707 -0.1591 -0.4444
   55CHL1    C2 6523   6.889   5.784  10.047 -0.6105  0.4588  0.3238
   55CHL1   H2A 6524   6.992   5.820  10.068 -0.8004  1.4576 -0.3966
   55CHL1   H2B 6525   6.900   5.677  10.073  2.5286  0.7407  0.5976
   55CHL1   C20 6526   6.827   5.806   9.104 -0.6745  0.3928  0.0254
   55CHL1   H20 6527   6.759   5.728   9.063 -1.2139  2.4859 -3.5638
   55CHL1   C21 6528   6.964   5.743   9.133 -0.0951 -0.2838 -0.8449
   55CHL1  H21A 6529   6.948   5.641   9.176  1.5156  0.0417  0.6530
   55CHL1  H21B 6530   7.031   5.803   9.198 -0.4723 -0.4970 -0.2443
   55CHL1  H21C 6531   7.015   5.731   9.035 -0.4407  0.4830 -1.1263
   55CHL1   C22 6532   6.817   5.917   8.997  1.3190  0.7596  0.4998
   55CHL1  H22A 6533   6.719   5.969   8.990  0.7610 -0.0674  1.7217
   55CHL1  H22B 6534   6.875   6.006   9.030  0.7222  2.0170 -1.6779
   55CHL1   C23 6535   6.866   5.870   8.857  0.4188 -0.6780  0.6716
   55CHL1  H23A 6536   6.977   5.868   8.852  0.3527 -0.5509 -1.8428
   55CHL1  H23B 6537   6.816   5.777   8.825  0.8557 -1.4520  2.1384
   55CHL1   C24 6538   6.830   5.987   8.753 -0.6345  0.0007  0.0979
   55CHL1  H24A 6539   6.735   6.042   8.773 -0.3809 -0.2808  2.3819
   55CHL1  H24B 6540   6.900   6.071   8.772 -0.9725  0.0773  1.0938
   55CHL1   C25 6541   6.849   5.941   8.598 -0.0173  0.7057 -0.6233
   55CHL1   H25 6542   6.787   5.850   8.588 -0.8351  1.0789  0.7771
   55CHL1   C26 6543   6.790   6.047   8.505  0.2158 -0.2980 -0.5456
   55CHL1  H26A 6544   6.834   6.147   8.524  0.5788 -0.7856  1.3992
   55CHL1  H26B 6545   6.808   6.020   8.399  2.3117 -0.1005 -0.2753
   55CHL1  H26C 6546   6.681   6.043   8.527  0.5672 -1.4389  1.2197
   55CHL1   C27 6547   6.995   5.907   8.576  0.0567 -0.4000  0.2238
   55CHL1  H27A 6548   7.037   5.822   8.634  0.1672  1.1418  2.5255
   55CHL1  H27B 6549   7.026   5.891   8.470  0.5413 -1.8393  0.5597
   55CHL1  H27C 6550   7.056   5.997   8.601  0.3184 -1.1491  2.5522
   56CHL1    C3 6551   0.350   4.033  10.119  0.0997 -0.1100  0.6528
   56CHL1    H3 6552   0.357   3.925  10.091 -1.1227 -0.4201  1.4806
   56CHL1    O3 6553   0.336   4.057  10.261  0.1787  0.2150  0.1731
   56CHL1   H3' 6554   0.292   3.982  10.302  0.6227 -1.4256 -2.1729
   56CHL1    C4 6555   0.474   4.107  10.057  0.0564  0.3016  0.5656
   56CHL1   H4A 6556   0.477   4.214  10.084  0.4107  0.8481 -1.4660
   56CHL1   H4B 6557   0.559   4.055  10.106 -0.7891  0.2436  2.0330
   56CHL1    C5 6558   0.478   4.098   9.906  0.0553  0.1278  0.8389
   56CHL1    C6 6559   0.592   4.047   9.849 -0.1191 -0.3570 -0.4787
   56CHL1    H6 6560   0.681   4.031   9.911 -0.5380 -0.3668  0.1308
   56CHL1    C7 6561   0.614   4.022   9.700  0.1866  0.3754  0.1637
   56CHL1   H7A 6562   0.715   4.043   9.657  1.2239  1.7807  3.0241
   56CHL1   H7B 6563   0.595   3.915   9.675  0.2652  0.5493 -0.6785
   56CHL1    C8 6564   0.502   4.093   9.616  0.1457  0.5839 -0.3326
   56CHL1    H8 6565   0.530   4.199   9.599 -1.1471  0.9430 -0.3191
   56CHL1   C14 6566   0.504   4.040   9.471 -0.0038 -0.6867 -1.2152
   56CHL1   H14 6567   0.492   3.931   9.491  2.7139 -0.4119  3.3297
   56CHL1   C15 6568   0.632   4.044   9.393  0.4670 -0.3113  0.0601
   56CHL1  H15A 6569   0.661   4.151   9.397  1.7584 -0.6150 -0.7964
   56CHL1  H15B 6570   0.712   3.975   9.428 -0.6938 -2.4277 -1.2265
   56CHL1   C16 6571   0.582   4.011   9.253 -0.3154  0.6213 -0.2138
   56CHL1  H16A 6572   0.618   4.080   9.173  2.5031  0.8752  1.1405
   56CHL1  H16B 6573   0.616   3.908   9.230 -1.1130  0.3108 -0.0045
   56CHL1   C17 6574   0.428   4.012   9.256 -0.2091  0.0820 -0.0908
   56CHL1   H17 6575   0.392   3.911   9.287 -0.7291  0.3698  0.2531
   56CHL1   C13 6576   0.391   4.090   9.386 -0.1762 -0.7332  0.2022
   56CHL1   C18 6577   0.403   4.244   9.363  0.2423 -0.1406  0.0406
   56CHL1  H18A 6578   0.503   4.261   9.319  0.2177 -0.4450 -0.1345
   56CHL1  H18B 6579   0.322   4.275   9.293  1.4545  0.2512 -1.2175
   56CHL1  H18C 6580   0.394   4.304   9.457 -2.4161 -0.7458  0.2483
   56CHL1   C12 6581   0.253   4.053   9.444  0.2835  0.4493  0.6530
   56CHL1  H12A 6582   0.174   4.100   9.381 -0.5654  0.3038  1.5707
   56CHL1  H12B 6583   0.260   3.943   9.436  0.6950  0.5860 -1.6451
   56CHL1   C11 6584   0.241   4.094   9.596 -0.1964  0.6474  0.7628
   56CHL1  H11A 6585   0.217   4.203   9.593  0.3989  0.7811  0.7477
   56CHL1  H11B 6586   0.160   4.038   9.647  0.2847 -1.2837 -0.5118
   56CHL1    C9 6587   0.367   4.074   9.682 -0.5846  0.3946 -0.1824
   56CHL1    H9 6588   0.357   3.964   9.695 -2.0941  0.4702 -0.5042
   56CHL1   C10 6589   0.349   4.131   9.829 -0.0233 -0.4569  0.2852
   56CHL1   C19 6590   0.345   4.279   9.825  0.6982 -0.3149 -0.0184
   56CHL1  H19A 6591   0.443   4.321   9.794  1.9347 -0.4849  3.3245
   56CHL1  H19B 6592   0.263   4.316   9.759  0.0865 -2.1694 -0.3469
   56CHL1  H19C 6593   0.338   4.322   9.927  0.6836 -1.2270  0.3676
   56CHL1    C1 6594   0.226   4.076   9.899 -0.0358 -0.6665  1.0998
   56CHL1   H1A 6595   0.133   4.129   9.870  0.2113 -0.0139  1.4750
   56CHL1   H1B 6596   0.211   3.967   9.879 -0.0584 -0.5043  0.1984
   56CHL1    C2 6597   0.224   4.089  10.054 -0.6512 -0.1050 -0.3451
   56CHL1   H2A 6598   0.136   4.035  10.094 -1.6477  2.0030  0.3936
   56CHL1   H2B 6599   0.214   4.197  10.077 -1.7422 -0.5758  1.5735
   56CHL1   C20 6600   0.364   4.049   9.123  0.0601  1.1891 -0.8769
   56CHL1   H20 6601   0.396   4.153   9.101  0.8687  1.0940 -0.2245
   56CHL1   C21 6602   0.204   4.053   9.121  0.2145 -0.5998 -0.5911
   56CHL1  H21A 6603   0.150   3.970   9.172  1.4222 -0.0374  1.7150
   56CHL1  H21B 6604   0.158   4.058   9.020 -0.2459  1.9277 -0.3277
   56CHL1  H21C 6605   0.180   4.150   9.169  0.3593 -0.4472 -0.8218
   56CHL1   C22 6606   0.406   3.949   9.014 -0.3236  0.1343  0.1305
   56CHL1  H22A 6607   0.506   3.907   9.035  0.1523  1.0597 -0.1915
   56CHL1  H22B 6608   0.333   3.866   9.008 -1.5096  1.1624 -0.0300
   56CHL1   C23 6609   0.395   4.014   8.878  0.6685  0.1102  0.6175
   56CHL1  H23A 6610   0.388   3.925   8.812 -1.7164  1.2141 -0.7728
   56CHL1  H23B 6611   0.300   4.073   8.878 -0.7139 -1.9982  0.8899
   56CHL1   C24 6612   0.516   4.099   8.840  0.3913  0.2116  0.7377
   56CHL1  H24A 6613   0.548   4.166   8.923 -1.2319  0.0394  1.5288
   56CHL1  H24B 6614   0.596   4.026   8.814 -3.0808 -3.6884 -0.0616
   56CHL1   C25 6615   0.487   4.177   8.711 -0.4416 -0.1043 -0.1838
   56CHL1   H25 6616   0.452   4.100   8.639 -2.1618 -0.9843  1.4761
   56CHL1   C26 6617   0.386   4.291   8.731  0.1744 -0.3356  0.1329
   56CHL1  H26A 6618   0.373   4.354   8.640  2.2217 -1.1162 -0.7759
   56CHL1  H26B 6619   0.290   4.236   8.744 -0.7439  0.9437 -0.9316
   56CHL1  H26C 6620   0.412   4.350   8.822  1.4292  1.2877 -1.2100
   56CHL1   C27 6621   0.619   4.242   8.665 -0.2524  0.1251 -0.0716
   56CHL1  H27A 6622   0.646   4.335   8.720  1.1324 -0.4493  0.2703
   56CHL1  H27B 6623   0.702   4.168   8.665 -0.4551 -0.1915 -2.7813
   56CHL1  H27C 6624   0.623   4.282   8.562  1.1937 -1.6327 -0.7610
   57CHL1    C3 6625   1.155   6.593  10.241 -0.8296 -0.5712 -0.4326
   57CHL1    H3 6626   1.201   6.689  10.210  0.2711 -1.1793 -0.7672
   57CHL1    O3 6627   1.109   6.610  10.378 -0.3334  0.9269 -0.3293
   57CHL1   H3' 6628   1.187   6.621  10.432 -0.9285  0.2509  0.7163
   57CHL1    C4 6629   1.039   6.566  10.142  0.4709  0.5372 -0.3075
   57CHL1   H4A 6630   0.982   6.475  10.171  1.5215  0.1832  0.7168
   57CHL1   H4B 6631   0.977   6.657  10.156  0.9289  0.6780  0.9373
   57CHL1    C5 6632   1.090   6.545  10.002 -0.0060 -0.1351 -0.3776
   57CHL1    C6 6633   1.040   6.619   9.908 -0.3596 -0.3193  0.7526
   57CHL1    H6 6634   0.957   6.690   9.922 -0.5392 -0.0983 -1.1430
   57CHL1    C7 6635   1.069   6.603   9.762 -0.3333  0.7561 -0.2488
   57CHL1   H7A 6636   0.977   6.599   9.700  1.0940 -0.3869 -2.4271
   57CHL1   H7B 6637   1.130   6.681   9.712 -1.4594  0.3573 -2.3805
   57CHL1    C8 6638   1.150   6.472   9.727 -0.4201  0.0711 -0.2332
   57CHL1    H8 6639   1.077   6.389   9.738  1.0485 -1.0781  1.4775
   57CHL1   C14 6640   1.207   6.477   9.584  0.5928  0.1984 -0.6453
   57CHL1   H14 6641   1.286   6.555   9.584  1.1070 -0.3102 -0.0052
   57CHL1   C15 6642   1.118   6.514   9.465 -0.4098 -0.4627  0.0954
   57CHL1  H15A 6643   1.025   6.452   9.468 -1.2150  0.7347  3.0463
   57CHL1  H15B 6644   1.100   6.623   9.465 -1.7335 -0.6583 -0.4410
   57CHL1   C16 6645   1.202   6.466   9.344 -0.0174 -0.0041  0.5557
   57CHL1  H16A 6646   1.142   6.399   9.278 -0.3304  1.7896 -1.0766
   57CHL1  H16B 6647   1.225   6.545   9.270 -0.8194 -1.3691 -1.2347
   57CHL1   C17 6648   1.323   6.389   9.401  0.1474  0.3771  0.6420
   57CHL1   H17 6649   1.404   6.465   9.396 -1.0246  1.5642 -1.7779
   57CHL1   C13 6650   1.290   6.360   9.550 -0.5436 -0.0552  0.2528
   57CHL1   C18 6651   1.189   6.237   9.556 -0.6620 -0.0253  0.4057
   57CHL1  H18A 6652   1.255   6.151   9.530  2.1254  1.6893  1.2769
   57CHL1  H18B 6653   1.137   6.223   9.653 -0.9939  1.4894  0.4669
   57CHL1  H18C 6654   1.117   6.239   9.472 -1.0647 -0.4366  0.7371
   57CHL1   C12 6655   1.410   6.336   9.648  0.1256  0.2310  0.2165
   57CHL1  H12A 6656   1.467   6.243   9.626 -1.8629 -1.0295  0.1763
   57CHL1  H12B 6657   1.463   6.433   9.640 -2.0030  1.5531  1.1885
   57CHL1   C11 6658   1.357   6.324   9.794  0.3095  0.0520 -0.8424
   57CHL1  H11A 6659   1.297   6.230   9.795 -2.0058  1.2532 -4.9280
   57CHL1  H11B 6660   1.443   6.338   9.862 -1.2184  0.6418  1.0378
   57CHL1    C9 6661   1.262   6.440   9.831 -0.5461  0.1915  0.2141
   57CHL1    H9 6662   1.331   6.527   9.824  2.5825 -1.9511  2.0574
   57CHL1   C10 6663   1.211   6.439   9.975 -0.6317  0.3178 -0.0576
   57CHL1   C19 6664   1.160   6.293   9.993 -0.2189  0.1867 -0.7389
   57CHL1  H19A 6665   1.096   6.305  10.083 -3.1294  0.3501 -2.7045
   57CHL1  H19B 6666   1.105   6.264   9.901  0.2534  1.5799 -1.4894
   57CHL1  H19C 6667   1.241   6.218  10.008 -1.9117 -1.6293 -0.3736
   57CHL1    C1 6668   1.318   6.459  10.082  0.4273  0.3134  0.4902
   57CHL1   H1A 6669   1.386   6.371  10.082 -0.3136 -0.2725  1.1289
   57CHL1   H1B 6670   1.373   6.555  10.066  0.0831  0.6686  1.3417
   57CHL1    C2 6671   1.261   6.477  10.227 -0.0803 -0.5168  0.8831
   57CHL1   H2A 6672   1.351   6.501  10.287  0.5058  2.6175 -0.9720
   57CHL1   H2B 6673   1.208   6.388  10.266 -1.3692 -0.2047 -0.0979
   57CHL1   C20 6674   1.368   6.266   9.312 -0.3957 -0.1480 -0.6152
   57CHL1   H20 6675   1.295   6.181   9.316 -1.1201  0.4208 -1.4333
   57CHL1   C21 6676   1.511   6.223   9.364  0.3777 -0.3864  0.2998
   57CHL1  H21A 6677   1.570   6.292   9.428 -0.4078 -1.2224  1.9857
   57CHL1  H21B 6678   1.577   6.192   9.280  0.5376 -1.2479  0.7217
   57CHL1  H21C 6679   1.512   6.133   9.430 -1.2675 -0.3160  0.4484
   57CHL1   C22 6680   1.388   6.318   9.167  0.4849  0.0838 -0.0174
   57CHL1  H22A 6681   1.313   6.397   9.143 -0.5265 -0.3464  1.5347
   57CHL1  H22B 6682   1.487   6.368   9.163  0.2276  0.4995 -2.0153
   57CHL1   C23 6683   1.380   6.200   9.071 -0.3571  0.8598 -0.5275
   57CHL1  H23A 6684   1.473   6.141   9.080  0.0051  1.1102 -2.2850
   57CHL1  H23B 6685   1.284   6.147   9.090 -1.1469  1.7443 -1.8508
   57CHL1   C24 6686   1.362   6.254   8.932  0.1300  1.0076  0.1276
   57CHL1  H24A 6687   1.349   6.167   8.863  3.6173 -1.1695  1.9099
   57CHL1  H24B 6688   1.267   6.312   8.935 -0.3793  0.2128 -0.0903
   57CHL1   C25 6689   1.470   6.341   8.880  0.3204  0.4330  0.3606
   57CHL1   H25 6690   1.472   6.430   8.947 -2.0674 -0.0898  1.2654
   57CHL1   C26 6691   1.599   6.263   8.879 -0.8122 -0.3836 -0.3995
   57CHL1  H26A 6692   1.631   6.236   8.982 -0.8156 -0.4106 -0.4052
   57CHL1  H26B 6693   1.596   6.160   8.838 -2.0056 -0.5236  0.0093
   57CHL1  H26C 6694   1.693   6.318   8.856  1.5721 -3.7074  0.6386
   57CHL1   C27 6695   1.443   6.382   8.732  0.1983  0.0393 -0.5593
   57CHL1  H27A 6696   1.382   6.474   8.741  1.5198  0.8422  0.6198
   57CHL1  H27B 6697   1.539   6.407   8.682  0.7911  0.8605  0.9280
   57CHL1  H27C 6698   1.384   6.301   8.683 -0.1076  0.1910 -0.4424
   58CHL1    C3 6699   4.701   5.691  10.225  0.4140  0.1240  0.2125
   58CHL1    H3 6700   4.717   5.588  10.188 -0.2972 -0.1768  0.7221
   58CHL1    O3 6701   4.690   5.687  10.365  0.4992 -0.2661 -0.4229
   58CHL1   H3' 6702   4.667   5.779  10.382  1.9741 -0.1454  1.0851
   58CHL1    C4 6703   4.821   5.783  10.183 -0.0185  0.2884 -0.3258
   58CHL1   H4A 6704   4.800   5.887  10.216 -2.4712 -0.1305 -0.3903
   58CHL1   H4B 6705   4.914   5.748  10.234  0.1477 -1.1654 -1.5292
   58CHL1    C5 6706   4.836   5.764  10.035 -0.0645  0.9304 -0.0759
   58CHL1    C6 6707   4.949   5.708   9.987  0.1788  0.0398  0.5829
   58CHL1    H6 6708   5.029   5.687  10.060 -0.2044  0.1786  1.0450
   58CHL1    C7 6709   4.977   5.712   9.835  0.2228  0.6050 -0.0672
   58CHL1   H7A 6710   5.082   5.724   9.802 -0.0198 -0.9363 -1.5547
   58CHL1   H7B 6711   4.961   5.606   9.806 -0.2811  0.9156 -0.9406
   58CHL1    C8 6712   4.877   5.787   9.746  0.4872 -0.3778 -0.0408
   58CHL1    H8 6713   4.915   5.891   9.739  0.5833 -0.2659  1.6049
   58CHL1   C14 6714   4.873   5.734   9.597 -0.4582  0.0266 -0.1447
   58CHL1   H14 6715   4.835   5.629   9.597  1.9448 -0.9939  2.8707
   58CHL1   C15 6716   5.006   5.725   9.530  0.3142 -0.0474 -0.2070
   58CHL1  H15A 6717   5.067   5.811   9.567 -0.4803 -0.7642  3.0801
   58CHL1  H15B 6718   5.054   5.627   9.550 -1.0710 -0.2843  2.3952
   58CHL1   C16 6719   4.976   5.735   9.376 -0.4871 -0.3047 -0.3414
   58CHL1  H16A 6720   5.028   5.823   9.333 -0.7685 -0.2611 -0.5972
   58CHL1  H16B 6721   5.012   5.650   9.314  3.5314 -1.1831  2.7595
   58CHL1   C17 6722   4.818   5.750   9.366 -0.5394 -0.5970 -0.1523
   58CHL1   H17 6723   4.776   5.648   9.377 -0.3824 -0.5359  1.1468
   58CHL1   C13 6724   4.782   5.821   9.498  0.5187  0.4231  0.2008
   58CHL1   C18 6725   4.817   5.970   9.486 -0.2675 -0.3538  0.4062
   58CHL1  H18A 6726   4.744   6.014   9.415  0.5021 -0.2372 -0.3285
   58CHL1  H18B 6727   4.809   6.012   9.589 -1.1103 -0.0625  0.2309
   58CHL1  H18C 6728   4.922   5.975   9.449 -0.2592 -2.6492 -0.0154
   58CHL1   C12 6729   4.635   5.795   9.554  0.0590 -0.1021 -0.0227
   58CHL1  H12A 6730   4.561   5.857   9.501 -1.9633  0.8068  3.5137
   58CHL1  H12B 6731   4.602   5.689   9.548 -0.3674  0.0168  0.1831
   58CHL1   C11 6732   4.635   5.845   9.703  0.1416  0.3152  0.6069
   58CHL1  H11A 6733   4.664   5.952   9.703  0.5924  0.2121 -0.9932
   58CHL1  H11B 6734   4.532   5.833   9.743  0.4266 -0.5465  1.1183
   58CHL1    C9 6735   4.736   5.774   9.798 -0.1769  0.6785  0.3382
   58CHL1    H9 6736   4.717   5.666   9.783 -3.5970  1.2346 -0.1200
   58CHL1   C10 6737   4.710   5.809   9.951 -0.2131 -0.0910 -0.3239
   58CHL1   C19 6738   4.697   5.959   9.960  0.2365 -0.2951 -0.2023
   58CHL1  H19A 6739   4.693   5.994  10.065 -0.7845 -0.1347 -0.2925
   58CHL1  H19B 6740   4.776   6.015   9.905  0.3445  0.9866  1.1906
   58CHL1  H19C 6741   4.602   5.997   9.918  1.3417  2.7192 -0.2593
   58CHL1    C1 6742   4.576   5.747  10.005  0.3500 -0.2101 -0.4210
   58CHL1   H1A 6743   4.490   5.811   9.974  1.7947  1.0570 -2.0668
   58CHL1   H1B 6744   4.563   5.645   9.965 -3.3484 -1.6051  3.6558
   58CHL1    C2 6745   4.567   5.741  10.159 -0.0724 -0.4075 -0.7958
   58CHL1   H2A 6746   4.476   5.698  10.205  1.6187 -2.5520  0.7362
   58CHL1   H2B 6747   4.564   5.846  10.196  0.9649 -0.1108 -1.5030
   58CHL1   C20 6748   4.779   5.834   9.240 -0.0562  0.3288 -0.4965
   58CHL1   H20 6749   4.817   5.938   9.244 -0.7666  0.6396 -1.5283
   58CHL1   C21 6750   4.632   5.831   9.230  0.0215  0.0957 -0.2095
   58CHL1  H21A 6751   4.585   5.730   9.234  0.6697 -0.1632  1.6507
   58CHL1  H21B 6752   4.601   5.892   9.143  0.4011  0.8997  0.2060
   58CHL1  H21C 6753   4.586   5.893   9.309  1.1909  0.8559 -0.1010
   58CHL1   C22 6754   4.843   5.782   9.106  0.4925 -0.4766 -0.3937
   58CHL1  H22A 6755   4.949   5.813   9.112  0.0125  1.0441  0.9759
   58CHL1  H22B 6756   4.826   5.673   9.093 -2.6578 -0.0631 -0.6764
   58CHL1   C23 6757   4.791   5.847   8.977  0.8127  0.4014  0.1452
   58CHL1  H23A 6758   4.681   5.838   8.963  0.8333  1.4593 -0.8212
   58CHL1  H23B 6759   4.812   5.956   8.986 -0.4115  0.9151 -2.3296
   58CHL1   C24 6760   4.866   5.798   8.853  0.3499  0.3282 -0.6680
   58CHL1  H24A 6761   4.971   5.834   8.858 -0.2240  1.9755  0.5069
   58CHL1  H24B 6762   4.869   5.688   8.862  0.8198  0.4736  1.4831
   58CHL1   C25 6763   4.810   5.827   8.712 -0.3996 -0.0260 -1.2093
   58CHL1   H25 6764   4.706   5.790   8.718 -0.2077 -0.6630 -1.7195
   58CHL1   C26 6765   4.804   5.977   8.677 -0.1639 -0.3790 -0.4045
   58CHL1  H26A 6766   4.720   6.024   8.732  1.9579  0.1833  2.6609
   58CHL1  H26B 6767   4.895   6.036   8.703  0.1962 -0.5905 -1.1677
   58CHL1  H26C 6768   4.794   5.979   8.567  0.3130 -2.6698 -0.5411
   58CHL1   C27 6769   4.894   5.743   8.613  0.5151  0.4050 -1.0094
   58CHL1  H27A 6770   5.002   5.761   8.631  0.6565 -0.5154 -0.8953
   58CHL1  H27B 6771   4.880   5.633   8.622 -2.1112  0.6646 -1.0754
   58CHL1  H27C 6772   4.857   5.769   8.511 -1.7361 -0.9327 -0.6057
   59CHL1    C3 6773   4.344   4.860  10.338 -0.2254 -0.2806 -0.1202
   59CHL1    H3 6774   4.429   4.790  10.341 -0.7950 -1.0272 -0.9096
   59CHL1    O3 6775   4.318   4.871  10.477 -0.3299  0.4611 -0.5035
   59CHL1   H3' 6776   4.355   4.956  10.500  0.0367  0.5244 -1.2997
   59CHL1    C4 6777   4.391   4.998  10.280  0.2848  0.5421 -0.0687
   59CHL1   H4A 6778   4.310   5.072  10.299  0.9045  2.2396 -3.3774
   59CHL1   H4B 6779   4.485   5.029  10.331  0.1648  0.7322  0.0402
   59CHL1    C5 6780   4.413   4.981  10.131 -1.4532 -0.4403  0.5304
   59CHL1    C6 6781   4.538   5.002  10.073 -0.2326 -0.8829 -0.2223
   59CHL1    H6 6782   4.617   5.039  10.140 -1.4933  1.5284  0.0650
   59CHL1    C7 6783   4.572   5.004   9.929  0.7640 -0.0097  0.5971
   59CHL1   H7A 6784   4.645   5.083   9.900  0.4325 -0.4610 -1.5812
   59CHL1   H7B 6785   4.621   4.910   9.898  4.1623  0.8849  2.6808
   59CHL1    C8 6786   4.440   5.005   9.847  0.3543  0.4500 -0.3748
   59CHL1    H8 6787   4.384   5.101   9.845 -2.7028 -1.1894 -0.9346
   59CHL1   C14 6788   4.466   4.967   9.704  0.0449  0.1145  0.1733
   59CHL1   H14 6789   4.515   4.867   9.706 -1.9175 -0.9874 -2.1813
   59CHL1   C15 6790   4.565   5.060   9.624  0.6982 -0.0004  0.0764
   59CHL1  H15A 6791   4.514   5.159   9.621  0.9452  0.0977 -2.1586
   59CHL1  H15B 6792   4.668   5.068   9.664  0.7159 -0.1261  0.0533
   59CHL1   C16 6793   4.549   5.016   9.483  0.4950  0.2068 -0.0077
   59CHL1  H16A 6794   4.528   5.110   9.426  1.8707 -1.1270 -2.9458
   59CHL1  H16B 6795   4.640   4.978   9.432  3.0663  2.1978  2.7563
   59CHL1   C17 6796   4.422   4.924   9.479 -0.5051  0.0987 -0.0132
   59CHL1   H17 6797   4.476   4.827   9.482 -0.3492  0.2104  1.3525
   59CHL1   C13 6798   4.347   4.940   9.616  0.5776 -0.5619  0.2691
   59CHL1   C18 6799   4.265   5.070   9.610  0.5914  0.3148 -0.5141
   59CHL1  H18A 6800   4.175   5.052   9.548  0.5910 -1.1429 -0.1193
   59CHL1  H18B 6801   4.232   5.104   9.711  1.9470  1.5370 -0.4573
   59CHL1  H18C 6802   4.314   5.159   9.565  0.4617  0.3795 -0.5308
   59CHL1   C12 6803   4.269   4.819   9.669  0.8556  0.5248  0.4416
   59CHL1  H12A 6804   4.181   4.811   9.603  1.6677 -0.0371 -0.5968
   59CHL1  H12B 6805   4.338   4.732   9.664  1.1303  0.7954 -0.5799
   59CHL1   C11 6806   4.226   4.851   9.814  0.5539  0.3818 -0.4205
   59CHL1  H11A 6807   4.146   4.928   9.818  0.5807  0.3458  1.4983
   59CHL1  H11B 6808   4.178   4.756   9.847 -0.6363 -0.3802 -3.8301
   59CHL1    C9 6809   4.344   4.898   9.909 -0.0971  0.5502 -0.4363
   59CHL1    H9 6810   4.405   4.806   9.913  1.6219  1.5630 -1.6305
   59CHL1   C10 6811   4.296   4.929  10.049  0.5528 -0.3183  0.1293
   59CHL1   C19 6812   4.181   5.035  10.047 -0.1114 -0.9400 -0.7432
   59CHL1  H19A 6813   4.155   5.084  10.143 -2.0036 -1.1337 -1.1102
   59CHL1  H19B 6814   4.205   5.110   9.969  1.1010 -1.9448 -1.3827
   59CHL1  H19C 6815   4.094   4.980  10.005 -1.3149  0.8630 -0.7048
   59CHL1    C1 6816   4.239   4.800  10.120 -0.1972  0.0348  0.4369
   59CHL1   H1A 6817   4.156   4.751  10.066  1.5804 -2.7068 -0.0346
   59CHL1   H1B 6818   4.319   4.723  10.115 -1.7369 -1.6312  0.5870
   59CHL1    C2 6819   4.213   4.814  10.273  0.4196  0.6546  0.6316
   59CHL1   H2A 6820   4.188   4.713  10.312 -1.7224  0.7155 -0.4421
   59CHL1   H2B 6821   4.133   4.888  10.296  0.7165  1.4147 -0.6870
   59CHL1   C20 6822   4.345   4.945   9.348 -0.1384  0.4563 -0.3034
   59CHL1   H20 6823   4.304   5.048   9.356 -0.6535  0.1269  1.7957
   59CHL1   C21 6824   4.233   4.837   9.344  0.6684 -0.2467 -0.0207
   59CHL1  H21A 6825   4.174   4.851   9.251 -0.2819  0.9076  0.7115
   59CHL1  H21B 6826   4.151   4.867   9.413  0.8704  0.9181 -0.2693
   59CHL1  H21C 6827   4.270   4.734   9.360 -0.0927 -0.5080  0.1158
   59CHL1   C22 6828   4.421   4.935   9.216 -1.0255 -0.1457 -0.2117
   59CHL1  H22A 6829   4.520   4.984   9.224 -1.0997 -0.0663  0.3028
   59CHL1  H22B 6830   4.442   4.827   9.202 -0.9296 -0.6251  2.9674
   59CHL1   C23 6831   4.354   5.002   9.092 -0.0533  0.2858  0.9142
   59CHL1  H23A 6832   4.252   4.967   9.066 -0.4524  0.8285  1.7054
   59CHL1  H23B 6833   4.338   5.111   9.110  2.9937  1.4085 -2.0899
   59CHL1   C24 6834   4.446   4.994   8.966 -0.2788 -0.1629 -0.4641
   59CHL1  H24A 6835   4.554   5.009   8.988 -0.7079  0.7433  1.1742
   59CHL1  H24B 6836   4.433   4.890   8.930 -0.2396 -0.2973 -0.0844
   59CHL1   C25 6837   4.402   5.076   8.845 -0.1265  0.3582 -0.0259
   59CHL1   H25 6838   4.401   5.184   8.868  1.5665  0.6549 -1.1664
   59CHL1   C26 6839   4.505   5.060   8.732  0.7810  0.2992 -0.0878
   59CHL1  H26A 6840   4.475   5.109   8.637 -1.3811 -1.1469 -0.2163
   59CHL1  H26B 6841   4.605   5.099   8.760  0.2783  0.6640  1.2951
   59CHL1  H26C 6842   4.517   4.950   8.717  1.6871  0.5891 -1.7456
   59CHL1   C27 6843   4.259   5.049   8.796 -0.4329 -0.7332 -0.5537
   59CHL1  H27A 6844   4.197   5.065   8.887  0.6861 -3.4758  0.8064
   59CHL1  H27B 6845   4.236   5.114   8.708  0.8903 -1.7673 -1.7117
   59CHL1  H27C 6846   4.238   4.945   8.763 -0.8223 -1.1202  0.8303
   60CHL1    C3 6847   2.844   1.939  10.334  0.0899 -0.5018  0.3387
   60CHL1    H3 6848   2.926   2.010  10.315  0.4109 -0.8904  0.2549
   60CHL1    O3 6849   2.816   1.929  10.474 -0.1523  0.7984  0.7210
   60CHL1   H3' 6850   2.730   1.886  10.472  0.0656  0.3503 -1.6286
   60CHL1    C4 6851   2.717   1.988  10.262  0.3641  0.5006  0.2903
   60CHL1   H4A 6852   2.642   1.918  10.305  1.6551  0.0704  1.9691
   60CHL1   H4B 6853   2.691   2.093  10.286 -2.0134  0.1196 -0.3454
   60CHL1    C5 6854   2.718   1.965  10.115 -0.2701 -0.0050 -0.1488
   60CHL1    C6 6855   2.682   2.065  10.029  0.1857  1.4298 -0.8614
   60CHL1    H6 6856   2.660   2.162  10.075  0.6505  1.0688  0.1661
   60CHL1    C7 6857   2.665   2.043   9.878  0.2351  0.3211  0.2203
   60CHL1   H7A 6858   2.565   2.075   9.842  1.2248  0.6972 -2.3649
   60CHL1   H7B 6859   2.731   2.107   9.815 -0.2461 -0.1788 -0.8160
   60CHL1    C8 6860   2.679   1.887   9.838  0.8441 -1.2359  0.9687
   60CHL1    H8 6861   2.584   1.835   9.863 -0.2163 -0.9242 -2.0245
   60CHL1   C14 6862   2.705   1.883   9.688 -0.3900 -0.1854 -0.0418
   60CHL1   H14 6863   2.795   1.945   9.668 -1.1169  0.2411 -2.2726
   60CHL1   C15 6864   2.608   1.951   9.589  0.1238  0.2700  0.0460
   60CHL1  H15A 6865   2.511   1.918   9.634  0.7282  0.1986  1.3601
   60CHL1  H15B 6866   2.614   2.061   9.587 -2.8361  0.4892 -1.4688
   60CHL1   C16 6867   2.640   1.891   9.449  0.4584  0.3696  0.6906
   60CHL1  H16A 6868   2.541   1.858   9.411  0.0481  0.5029  1.6106
   60CHL1  H16B 6869   2.684   1.969   9.384  1.6017  1.2716  2.4371
   60CHL1   C17 6870   2.746   1.774   9.480  0.0611  0.3016  0.2159
   60CHL1   H17 6871   2.851   1.811   9.480  0.2076 -0.1061  0.3206
   60CHL1   C13 6872   2.724   1.743   9.632 -1.3475 -0.8057  0.6782
   60CHL1   C18 6873   2.594   1.661   9.644  0.2646  0.5266 -0.5319
   60CHL1  H18A 6874   2.606   1.558   9.604 -0.1864  0.4912 -0.5776
   60CHL1  H18B 6875   2.572   1.657   9.753 -0.1685 -1.5342 -0.6654
   60CHL1  H18C 6876   2.514   1.711   9.586  1.3177  2.2081 -0.6113
   60CHL1   C12 6877   2.850   1.675   9.695  0.0612  0.6504  0.4934
   60CHL1  H12A 6878   2.876   1.570   9.671  4.0874  1.2936  1.2915
   60CHL1  H12B 6879   2.940   1.733   9.665  0.0647 -0.6849 -2.4649
   60CHL1   C11 6880   2.836   1.686   9.849  0.6852  0.2443  0.7931
   60CHL1  H11A 6881   2.768   1.609   9.889  1.2332 -0.2845  0.7297
   60CHL1  H11B 6882   2.934   1.657   9.893  1.9772  2.2714 -0.5085
   60CHL1    C9 6883   2.795   1.827   9.908  0.1785 -0.3809  0.0389
   60CHL1    H9 6884   2.877   1.901   9.896  1.0630 -1.2754  0.3553
   60CHL1   C10 6885   2.766   1.827  10.061 -0.0146  0.4539 -0.1912
   60CHL1   C19 6886   2.650   1.730  10.088  0.0371 -0.4021 -0.2486
   60CHL1  H19A 6887   2.630   1.739  10.197  2.5662 -0.1970  0.2588
   60CHL1  H19B 6888   2.556   1.758  10.037  2.2079  2.2235 -3.2188
   60CHL1  H19C 6889   2.671   1.622  10.070  0.6747 -0.5687  1.2994
   60CHL1    C1 6890   2.901   1.784  10.141  0.9538 -0.8307  0.8975
   60CHL1   H1A 6891   2.909   1.675  10.119 -0.4564 -0.7939  0.1051
   60CHL1   H1B 6892   2.995   1.838  10.113 -0.7937  1.3585 -1.1840
   60CHL1    C2 6893   2.881   1.796  10.292 -0.0719  0.3217 -0.2883
   60CHL1   H2A 6894   2.980   1.770  10.333 -0.8035 -0.9740  0.7247
   60CHL1   H2B 6895   2.808   1.722  10.330 -0.3866  0.8699  0.1934
   60CHL1   C20 6896   2.738   1.655   9.376  1.0808 -0.3030  0.0240
   60CHL1   H20 6897   2.643   1.604   9.401 -0.0377  1.0077 -1.3254
   60CHL1   C21 6898   2.846   1.558   9.387 -0.0946 -0.0881  0.4144
   60CHL1  H21A 6899   2.942   1.611   9.372  0.2870 -0.8987 -0.0803
   60CHL1  H21B 6900   2.855   1.480   9.308 -1.7140 -0.8104  0.9117
   60CHL1  H21C 6901   2.847   1.497   9.480 -1.9495 -0.0950  0.4596
   60CHL1   C22 6902   2.732   1.708   9.233  0.2286  0.8306  0.7339
   60CHL1  H22A 6903   2.655   1.784   9.205 -0.9688  0.1553  2.0465
   60CHL1  H22B 6904   2.832   1.755   9.219  1.3717 -1.5164  0.5381
   60CHL1   C23 6905   2.737   1.592   9.132  0.0157  0.6093 -0.2537
   60CHL1  H23A 6906   2.839   1.549   9.122 -0.0363  0.6436 -1.0264
   60CHL1  H23B 6907   2.662   1.513   9.155 -0.9168  0.8326 -2.2753
   60CHL1   C24 6908   2.702   1.634   8.989 -0.8149 -0.2452 -0.0453
   60CHL1  H24A 6909   2.591   1.630   8.992 -0.9409  2.2838  1.0505
   60CHL1  H24B 6910   2.747   1.732   8.962 -0.2527 -0.4839  0.0120
   60CHL1   C25 6911   2.750   1.539   8.873  0.2868 -0.1637  0.3971
   60CHL1   H25 6912   2.736   1.435   8.909  0.6305 -0.2316  0.3447
   60CHL1   C26 6913   2.668   1.559   8.743  1.0675 -0.7747 -0.0714
   60CHL1  H26A 6914   2.653   1.667   8.723 -0.9792 -0.4191  2.7834
   60CHL1  H26B 6915   2.711   1.519   8.648 -1.5122  1.2171 -2.2194
   60CHL1  H26C 6916   2.569   1.513   8.764  2.1083 -1.5983  3.8566
   60CHL1   C27 6917   2.897   1.571   8.844  0.2150  0.0588  0.5740
   60CHL1  H27A 6918   2.908   1.679   8.819 -2.2890  0.3427  0.4735
   60CHL1  H27B 6919   2.963   1.539   8.927  1.2167  1.7220  0.4736
   60CHL1  H27C 6920   2.934   1.514   8.756  3.5280  0.5617  1.4953
   61CHL1    C3 6921   1.011   3.876  10.374  0.1335 -0.0079  0.1213
   61CHL1    H3 6922   0.945   3.957  10.338 -0.7114 -0.1124  1.3590
   61CHL1    O3 6923   1.018   3.874  10.512  0.3709 -0.3622  0.2817
   61CHL1   H3' 6924   1.067   3.796  10.540  1.0531  0.2104  0.7116
   61CHL1    C4 6925   0.943   3.742  10.336  0.2496 -0.0304 -1.1832
   61CHL1   H4A 6926   1.004   3.659  10.378  0.1316 -0.7699 -2.4012
   61CHL1   H4B 6927   0.846   3.736  10.390  1.1137  0.3997  0.4744
   61CHL1    C5 6928   0.930   3.729  10.185  0.3011 -0.1803 -0.0749
   61CHL1    C6 6929   0.811   3.713  10.126  0.3140  0.5729  0.4814
   61CHL1    H6 6930   0.716   3.704  10.180  0.3063  2.3698  0.8189
   61CHL1    C7 6931   0.797   3.716   9.976  0.4527  0.1829 -0.6268
   61CHL1   H7A 6932   0.733   3.630   9.948 -0.3638  0.3065  0.7532
   61CHL1   H7B 6933   0.738   3.806   9.950  0.1490  0.5290  1.1293
   61CHL1    C8 6934   0.929   3.703   9.892 -0.0654 -0.1484 -0.4346
   61CHL1    H8 6935   0.960   3.597   9.890 -1.2442 -0.5365  0.4812
   61CHL1   C14 6936   0.900   3.741   9.749  0.1794 -0.0468 -0.1388
   61CHL1   H14 6937   0.872   3.848   9.753  3.4404  1.0442 -2.3063
   61CHL1   C15 6938   0.785   3.670   9.676 -0.6508 -0.7748 -0.1420
   61CHL1  H15A 6939   0.812   3.562   9.679 -0.2927 -0.6801  0.3747
   61CHL1  H15B 6940   0.684   3.685   9.721 -0.3193 -1.2810  0.8087
   61CHL1   C16 6941   0.794   3.713   9.534 -0.8296 -0.1075  0.4386
   61CHL1  H16A 6942   0.797   3.618   9.476  0.4082  0.5127 -0.5501
   61CHL1  H16B 6943   0.710   3.780   9.506 -0.5311 -0.0497 -0.3286
   61CHL1   C17 6944   0.936   3.785   9.522 -0.0645  0.9075  0.5555
   61CHL1   H17 6945   0.920   3.895   9.525  1.9405  1.2847 -0.7176
   61CHL1   C13 6946   1.016   3.741   9.650 -0.3497  0.6042 -0.6612
   61CHL1   C18 6947   1.077   3.599   9.625 -0.0515 -0.5589  0.1187
   61CHL1  H18A 6948   1.100   3.547   9.721 -1.6489 -0.5752  0.5184
   61CHL1  H18B 6949   0.998   3.534   9.581 -0.1511 -1.6163  1.7599
   61CHL1  H18C 6950   1.161   3.597   9.553 -1.1011  0.0013 -1.1612
   61CHL1   C12 6951   1.116   3.847   9.714  0.1501  0.0555  0.1048
   61CHL1  H12A 6952   1.209   3.858   9.654  0.6703 -0.2687  0.8411
   61CHL1  H12B 6953   1.059   3.942   9.706  0.2186 -0.0517 -2.2185
   61CHL1   C11 6954   1.153   3.822   9.865 -0.2285  0.7493  0.8653
   61CHL1  H11A 6955   1.216   3.731   9.857 -0.1917  0.8807 -0.5162
   61CHL1  H11B 6956   1.223   3.901   9.899 -0.0162  1.1231 -0.3815
   61CHL1    C9 6957   1.034   3.794   9.953  0.3406  0.6556  0.1796
   61CHL1    H9 6958   0.990   3.895   9.967  0.5237  0.6110  1.1030
   61CHL1   C10 6959   1.067   3.757  10.103  1.0998  0.2389  0.2287
   61CHL1   C19 6960   1.167   3.641  10.095  0.5915  0.8646 -0.5263
   61CHL1  H19A 6961   1.117   3.562  10.036 -0.8802 -1.2303  3.1344
   61CHL1  H19B 6962   1.268   3.670  10.060  1.0457 -1.4087 -1.2402
   61CHL1  H19C 6963   1.184   3.601  10.198 -1.7624  0.6666 -0.1658
   61CHL1    C1 6964   1.146   3.879  10.153 -0.0206 -0.1420 -0.5867
   61CHL1   H1A 6965   1.250   3.883  10.112  0.0718 -0.9539 -0.4508
   61CHL1   H1B 6966   1.089   3.972  10.132  1.4112  0.7575 -0.6591
   61CHL1    C2 6967   1.153   3.883  10.311  0.4716  0.0520  0.0158
   61CHL1   H2A 6968   1.198   3.976  10.352 -1.2985  0.1054  1.9784
   61CHL1   H2B 6969   1.216   3.799  10.346 -0.1208 -0.1144  0.6887
   61CHL1   C20 6970   1.014   3.763   9.394  0.4467  0.3297  0.6269
   61CHL1   H20 6971   1.047   3.658   9.386  1.4484  0.6177  0.7606
   61CHL1   C21 6972   1.138   3.858   9.370  0.5788  0.0946 -0.1728
   61CHL1  H21A 6973   1.115   3.962   9.402 -1.1360 -0.5063  0.6715
   61CHL1  H21B 6974   1.157   3.869   9.261 -0.3931 -0.8603 -0.4564
   61CHL1  H21C 6975   1.228   3.810   9.413  2.2967  1.7517 -1.7445
   61CHL1   C22 6976   0.919   3.783   9.272 -0.2549 -0.4542 -0.4129
   61CHL1  H22A 6977   0.824   3.727   9.286 -0.0381 -0.6631  0.2788
   61CHL1  H22B 6978   0.880   3.886   9.256  1.8140  0.2661 -1.1149
   61CHL1   C23 6979   0.980   3.753   9.135 -0.0821 -0.3379  0.6790
   61CHL1  H23A 6980   1.038   3.842   9.101 -0.4755  0.0324  0.9580
   61CHL1  H23B 6981   1.042   3.661   9.137  0.0912 -0.2418  0.0054
   61CHL1   C24 6982   0.862   3.728   9.041  0.5025  0.0963 -0.6389
   61CHL1  H24A 6983   0.806   3.641   9.080  1.2188  0.8426  2.3372
   61CHL1  H24B 6984   0.792   3.814   9.045 -0.3815 -0.6004 -0.7880
   61CHL1   C25 6985   0.890   3.710   8.893 -0.0522 -0.6995 -0.4765
   61CHL1   H25 6986   0.938   3.613   8.869  0.5357 -0.6101  0.2804
   61CHL1   C26 6987   0.758   3.731   8.816 -0.0218 -0.3221 -0.6937
   61CHL1  H26A 6988   0.770   3.736   8.705 -0.7800 -0.0575 -0.7688
   61CHL1  H26B 6989   0.686   3.650   8.840  1.6210 -2.0892 -1.4695
   61CHL1  H26C 6990   0.706   3.828   8.832 -3.0704 -2.1387  1.4075
   61CHL1   C27 6991   0.977   3.829   8.846 -1.3438  0.1601 -0.1006
   61CHL1  H27A 6992   0.947   3.930   8.881 -0.2709  0.5712 -0.3294
   61CHL1  H27B 6993   1.083   3.809   8.871 -1.4440  0.7656  0.8563
   61CHL1  H27C 6994   0.973   3.828   8.735 -0.0342  0.6634 -0.1686
   62CHL1    C3 6995   0.604   5.606  10.101  0.5195  0.2394  0.3284
   62CHL1    H3 6996   0.642   5.709  10.087 -1.0315  0.7836 -0.0868
   62CHL1    O3 6997   0.596   5.569  10.235 -0.2056  0.1758 -0.3443
   62CHL1   H3' 6998   0.680   5.531  10.261 -1.7903 -3.7602 -0.1070
   62CHL1    C4 6999   0.462   5.608  10.035  0.3623 -0.6056  0.3982
   62CHL1   H4A 7000   0.424   5.504  10.029 -0.5294 -0.2250 -0.7424
   62CHL1   H4B 7001   0.400   5.672  10.102  3.1303  1.3581  1.2977
   62CHL1    C5 7002   0.487   5.667   9.893 -0.1987  0.3901  0.6949
   62CHL1    C6 7003   0.436   5.788   9.856 -0.5199  0.4795 -0.1968
   62CHL1    H6 7004   0.379   5.851   9.926  1.1264  3.1336 -1.0637
   62CHL1    C7 7005   0.441   5.842   9.715 -0.1600  0.2930 -0.9044
   62CHL1   H7A 7006   0.343   5.883   9.681  0.3670  3.6218  1.1255
   62CHL1   H7B 7007   0.522   5.918   9.704  0.0933 -0.0597 -1.5275
   62CHL1    C8 7008   0.488   5.737   9.619  0.4821 -0.4028  0.4725
   62CHL1    H8 7009   0.406   5.664   9.601  0.8713 -1.1895  1.7374
   62CHL1   C14 7010   0.524   5.807   9.484 -0.1028 -0.0651  0.4126
   62CHL1   H14 7011   0.609   5.874   9.509  0.2808 -1.2148  2.3955
   62CHL1   C15 7012   0.430   5.896   9.404 -0.7398  0.0886 -0.0010
   62CHL1  H15A 7013   0.329   5.850   9.406 -0.4675 -0.4961  1.7313
   62CHL1  H15B 7014   0.418   5.988   9.466  0.5598 -1.0413  2.0231
   62CHL1   C16 7015   0.495   5.908   9.262 -0.3176 -0.4110  0.3720
   62CHL1  H16A 7016   0.420   5.884   9.183 -0.7219  1.2798  0.2192
   62CHL1  H16B 7017   0.551   5.997   9.226  2.5346 -2.3445 -0.3470
   62CHL1   C17 7018   0.603   5.797   9.256 -0.5629 -0.4413 -1.1169
   62CHL1   H17 7019   0.701   5.840   9.285 -2.3827  1.7261  2.4628
   62CHL1   C13 7020   0.573   5.699   9.378 -0.9540 -0.0213 -0.4565
   62CHL1   C18 7021   0.464   5.599   9.335 -0.3725  0.0450 -0.2662
   62CHL1  H18A 7022   0.501   5.523   9.263 -1.4194 -2.9208  2.0899
   62CHL1  H18B 7023   0.414   5.541   9.416 -4.4480  0.0370 -2.5019
   62CHL1  H18C 7024   0.386   5.655   9.279 -0.3158  0.3003 -0.0924
   62CHL1   C12 7025   0.699   5.622   9.428  0.1789 -0.2620  1.3802
   62CHL1  H12A 7026   0.727   5.544   9.354  0.4174  1.0894 -0.0167
   62CHL1  H12B 7027   0.786   5.689   9.443 -0.0255 -0.1027  1.8781
   62CHL1   C11 7028   0.668   5.549   9.559  0.5445  0.4020 -0.0967
   62CHL1  H11A 7029   0.589   5.476   9.533  2.7501 -1.8794 -0.7497
   62CHL1  H11B 7030   0.759   5.500   9.600 -0.0202  1.1956  2.3085
   62CHL1    C9 7031   0.607   5.645   9.668 -0.0427 -0.1061 -0.4978
   62CHL1    H9 7032   0.685   5.720   9.692 -0.1233 -0.5620  1.3042
   62CHL1   C10 7033   0.569   5.582   9.804  0.1649  0.5981  0.3272
   62CHL1   C19 7034   0.492   5.449   9.785 -0.2872 -0.2812 -0.3904
   62CHL1  H19A 7035   0.388   5.464   9.750 -0.0230 -1.1974 -1.6123
   62CHL1  H19B 7036   0.547   5.388   9.711  2.1488  1.1972  0.0843
   62CHL1  H19C 7037   0.497   5.387   9.877  0.8059 -1.2736 -1.0959
   62CHL1    C1 7038   0.707   5.553   9.872 -0.4541  0.0356  0.1658
   62CHL1   H1A 7039   0.765   5.490   9.801  0.7207  1.1728  0.0925
   62CHL1   H1B 7040   0.762   5.649   9.880 -0.0804 -0.0288 -1.3485
   62CHL1    C2 7041   0.700   5.511  10.025  0.5196 -0.6290 -0.1310
   62CHL1   H2A 7042   0.801   5.518  10.071  0.2797  1.3303  0.1982
   62CHL1   H2B 7043   0.669   5.405  10.035 -0.0869 -0.4608 -0.2368
   62CHL1   C20 7044   0.631   5.736   9.114  0.4729 -0.3004  0.0237
   62CHL1   H20 7045   0.675   5.638   9.142 -2.6438 -1.8188  0.0094
   62CHL1   C21 7046   0.738   5.826   9.038  0.2046 -0.3634 -0.0347
   62CHL1  H21A 7047   0.775   5.783   8.943  1.9240  1.1657 -0.1056
   62CHL1  H21B 7048   0.831   5.849   9.094  1.9265 -0.4154 -2.6965
   62CHL1  H21C 7049   0.695   5.923   9.004  1.9873  0.1983 -0.7651
   62CHL1   C22 7050   0.505   5.715   9.025  0.0627 -0.2977 -0.1048
   62CHL1  H22A 7051   0.421   5.674   9.085 -0.1276 -1.5039 -1.1467
   62CHL1  H22B 7052   0.475   5.813   8.982  1.6886 -0.4984 -1.8633
   62CHL1   C23 7053   0.529   5.620   8.899 -0.1516  1.0160 -0.0243
   62CHL1  H23A 7054   0.620   5.651   8.842  0.5627  2.2113  1.6675
   62CHL1  H23B 7055   0.564   5.528   8.951 -0.4821  1.0495  0.2604
   62CHL1   C24 7056   0.408   5.599   8.816 -0.0039  0.3856 -0.4390
   62CHL1  H24A 7057   0.321   5.560   8.873 -0.4096  0.6786 -0.8502
   62CHL1  H24B 7058   0.372   5.696   8.776  0.9037  0.2694 -1.5805
   62CHL1   C25 7059   0.423   5.505   8.691  0.1303  0.4193 -0.2372
   62CHL1   H25 7060   0.497   5.423   8.705  0.9982  0.9912 -1.3431
   62CHL1   C26 7061   0.292   5.434   8.659  0.6602  0.8071  0.0157
   62CHL1  H26A 7062   0.305   5.385   8.560 -0.7224  1.6069 -0.5984
   62CHL1  H26B 7063   0.280   5.357   8.738  0.3946  1.6021  0.7568
   62CHL1  H26C 7064   0.205   5.503   8.658  1.0843  1.4232 -2.4402
   62CHL1   C27 7065   0.472   5.579   8.568  0.1716 -0.1941  0.6783
   62CHL1  H27A 7066   0.408   5.668   8.549  1.6487  0.9018  0.7109
   62CHL1  H27B 7067   0.578   5.606   8.585  0.7253 -2.3845  0.9918
   62CHL1  H27C 7068   0.465   5.503   8.487  1.1558  0.6822 -0.2529
   63CHL1    C3 7069   2.073   0.543  10.401  1.4414 -0.2261  0.2447
   63CHL1    H3 7070   2.010   0.627  10.364  1.2072 -0.9767 -1.1100
   63CHL1    O3 7071   2.082   0.538  10.539 -0.4632 -0.0547  0.1025
   63CHL1   H3' 7072   2.100   0.445  10.552  0.3786 -0.9572 -5.4017
   63CHL1    C4 7073   1.985   0.417  10.364 -0.4599 -0.9300  0.3574
   63CHL1   H4A 7074   2.036   0.320  10.383  2.7518  0.1871 -1.8071
   63CHL1   H4B 7075   1.893   0.420  10.426  0.6973 -2.5358  2.2816
   63CHL1    C5 7076   1.963   0.434  10.210 -0.2890  0.0828  0.5269
   63CHL1    C6 7077   1.837   0.442  10.159 -0.0975 -0.0634 -0.6877
   63CHL1    H6 7078   1.747   0.433  10.221 -0.3945 -1.7599 -1.3063
   63CHL1    C7 7079   1.812   0.459  10.014  0.5745  0.0850 -0.9529
   63CHL1   H7A 7080   1.731   0.391   9.978 -0.8421  0.5419  1.1849
   63CHL1   H7B 7081   1.791   0.567  10.005  0.9521  0.2016 -0.4433
   63CHL1    C8 7082   1.929   0.439   9.919  0.0940 -0.1409 -0.2417
   63CHL1    H8 7083   1.941   0.330   9.900  1.3770  0.0738 -0.8439
   63CHL1   C14 7084   1.893   0.510   9.788  0.2274 -1.1116 -0.3547
   63CHL1   H14 7085   1.876   0.617   9.812  1.4330 -1.1460  0.7705
   63CHL1   C15 7086   1.768   0.470   9.721  1.1371 -0.2711 -0.6410
   63CHL1  H15A 7087   1.748   0.361   9.719  0.4571 -0.1417 -1.3031
   63CHL1  H15B 7088   1.678   0.520   9.762  0.7431 -1.7638  0.4013
   63CHL1   C16 7089   1.790   0.509   9.571  0.1972  0.2036 -0.2110
   63CHL1  H16A 7090   1.785   0.414   9.514  0.8207  0.2892 -0.4127
   63CHL1  H16B 7091   1.713   0.577   9.528 -0.3941 -0.1416  0.2766
   63CHL1   C17 7092   1.932   0.564   9.558 -1.2011 -0.4264 -0.0816
   63CHL1   H17 7093   1.928   0.675   9.562 -0.9914 -0.4576  1.4875
   63CHL1   C13 7094   2.006   0.491   9.683  0.1852 -0.7390  0.3144
   63CHL1   C18 7095   2.039   0.344   9.641 -0.3114  0.3991  0.0942
   63CHL1  H18A 7096   2.100   0.343   9.548 -2.2595  0.2239 -1.2566
   63CHL1  H18B 7097   2.099   0.286   9.714 -1.1076 -1.3543 -0.5683
   63CHL1  H18C 7098   1.950   0.277   9.633  1.1141 -1.7226  1.0615
   63CHL1   C12 7099   2.126   0.570   9.747  0.5322 -0.0434 -0.4467
   63CHL1  H12A 7100   2.218   0.562   9.686  2.4992  0.2843  2.2670
   63CHL1  H12B 7101   2.095   0.676   9.749 -0.7477 -0.2443 -3.7266
   63CHL1   C11 7102   2.171   0.514   9.885 -0.2016 -0.1264  0.5409
   63CHL1  H11A 7103   2.220   0.416   9.867  1.4687  0.7230  0.2964
   63CHL1  H11B 7104   2.247   0.581   9.931 -0.6597  0.3738  0.5827
   63CHL1    C9 7105   2.053   0.497   9.980 -0.4892 -0.4224  0.3117
   63CHL1    H9 7106   2.027   0.604   9.993  1.5270 -0.0503  1.8642
   63CHL1   C10 7107   2.092   0.440  10.115 -0.3052  0.5406 -0.8577
   63CHL1   C19 7108   2.151   0.295  10.101 -0.0845  0.3993  1.0634
   63CHL1  H19A 7109   2.200   0.266  10.196  1.9266  1.9762  0.5704
   63CHL1  H19B 7110   2.074   0.217  10.081  1.2548 -1.6508  3.2889
   63CHL1  H19C 7111   2.233   0.281  10.027 -2.0444 -2.0866 -0.8193
   63CHL1    C1 7112   2.197   0.539  10.182 -1.1158 -0.1558 -0.7228
   63CHL1   H1A 7113   2.296   0.500  10.148 -0.9922 -2.3128  1.7855
   63CHL1   H1B 7114   2.179   0.640  10.139  3.5329  1.5167  0.6610
   63CHL1    C2 7115   2.208   0.536  10.342  0.1350  0.2314  0.4248
   63CHL1   H2A 7116   2.260   0.623  10.388  4.0615 -2.0398  0.7538
   63CHL1   H2B 7117   2.260   0.441  10.368 -0.7972  0.0013  1.5284
   63CHL1   C20 7118   1.993   0.533   9.418 -0.3031  0.5264 -0.4560
   63CHL1   H20 7119   1.984   0.423   9.401 -2.3654 -0.0397  3.2428
   63CHL1   C21 7120   2.138   0.582   9.409 -0.6949  0.0061  0.9790
   63CHL1  H21A 7121   2.180   0.583   9.306 -1.0657  0.1517  0.8285
   63CHL1  H21B 7122   2.211   0.525   9.471 -0.0950  1.0731  1.2721
   63CHL1  H21C 7123   2.142   0.689   9.436 -1.3288  0.6842 -1.3695
   63CHL1   C22 7124   1.915   0.605   9.299 -0.4116  0.2269 -0.2240
   63CHL1  H22A 7125   1.818   0.646   9.333  0.1949  2.4517 -0.9794
   63CHL1  H22B 7126   1.983   0.683   9.258  1.4241 -1.5613 -0.8096
   63CHL1   C23 7127   1.881   0.497   9.196 -0.1525  0.1743  0.8111
   63CHL1  H23A 7128   1.838   0.405   9.243  2.4365 -1.4523  0.1834
   63CHL1  H23B 7129   1.793   0.534   9.138  0.7000  0.3873 -0.3743
   63CHL1   C24 7130   1.992   0.466   9.095 -0.6522  0.5865  0.0592
   63CHL1  H24A 7131   2.038   0.562   9.063  0.8595  0.2017  0.9420
   63CHL1  H24B 7132   2.072   0.404   9.142 -1.2637 -0.1452  0.1656
   63CHL1   C25 7133   1.958   0.388   8.966  0.0670 -0.0721  0.3325
   63CHL1   H25 7134   1.886   0.445   8.903 -0.3119 -0.7768  0.1168
   63CHL1   C26 7135   2.085   0.353   8.883 -0.2005  0.2021  0.3691
   63CHL1  H26A 7136   2.053   0.274   8.812 -2.1962  0.6092  0.7489
   63CHL1  H26B 7137   2.138   0.434   8.828  0.0940  0.7942  1.4944
   63CHL1  H26C 7138   2.165   0.313   8.948 -0.7202  1.1972  1.6643
   63CHL1   C27 7139   1.876   0.254   9.003 -0.8081  0.2396 -0.2245
   63CHL1  H27A 7140   1.953   0.190   9.051 -1.8510 -2.2367 -1.6832
   63CHL1  H27B 7141   1.780   0.263   9.058 -0.7121  0.0218 -0.0205
   63CHL1  H27C 7142   1.845   0.203   8.909 -0.1429  3.1580 -2.1782
   64CHL1    C3 7143   1.451   0.089  10.094  0.0335 -0.4032 -0.7068
   64CHL1    H3 7144   1.488  -0.014  10.115  1.5423  0.1108 -0.7268
   64CHL1    O3 7145   1.410   0.142  10.217 -0.2613 -0.6848  0.5306
   64CHL1   H3' 7146   1.315   0.152  10.203 -0.2141 -0.8127  0.0906
   64CHL1    C4 7147   1.558   0.167  10.028  0.0939  0.6357  0.2697
   64CHL1   H4A 7148   1.510   0.267  10.034 -0.1034  0.5674 -0.1496
   64CHL1   H4B 7149   1.646   0.160  10.096 -0.4095  1.2044  1.0048
   64CHL1    C5 7150   1.600   0.113   9.887  0.5397  0.2631 -0.2276
   64CHL1    C6 7151   1.726   0.080   9.852  0.4985 -0.1990  0.0117
   64CHL1    H6 7152   1.803   0.111   9.924  0.5209  0.0357 -0.1124
   64CHL1    C7 7153   1.775   0.034   9.719 -0.2585  0.1468  0.2300
   64CHL1   H7A 7154   1.869   0.085   9.688 -1.1106  0.7316 -1.4763
   64CHL1   H7B 7155   1.800  -0.075   9.724 -1.3539 -0.1408 -0.4059
   64CHL1    C8 7156   1.666   0.058   9.612 -0.2707 -0.2484  0.4341
   64CHL1    H8 7157   1.674   0.167   9.592  1.8416 -0.5802 -0.8995
   64CHL1   C14 7158   1.700  -0.013   9.486  0.2892 -0.3466 -0.2718
   64CHL1   H14 7159   1.701  -0.120   9.515 -0.8667 -0.5470 -0.9462
   64CHL1   C15 7160   1.845   0.002   9.429 -0.1832  1.0954 -0.0794
   64CHL1  H15A 7161   1.890   0.103   9.423  1.3898  0.4018 -0.5698
   64CHL1  H15B 7162   1.917  -0.059   9.488 -1.2349  0.0142  0.1299
   64CHL1   C16 7163   1.820  -0.043   9.281 -0.1126 -0.7274 -0.5644
   64CHL1  H16A 7164   1.859   0.034   9.211 -0.5352 -2.9437 -3.3940
   64CHL1  H16B 7165   1.878  -0.132   9.249  2.5335  0.8282 -0.4247
   64CHL1   C17 7166   1.670  -0.079   9.259  0.0202  0.6903  0.7723
   64CHL1   H17 7167   1.666  -0.185   9.292  0.9495  1.1889  2.6384
   64CHL1   C13 7168   1.602   0.008   9.366  0.3618 -0.1920  0.5676
   64CHL1   C18 7169   1.597   0.158   9.320  0.2771 -0.7099  0.0590
   64CHL1  H18A 7170   1.698   0.170   9.274  1.5616 -5.0104  1.3147
   64CHL1  H18B 7171   1.510   0.167   9.251 -0.9051  0.3635  1.6292
   64CHL1  H18C 7172   1.574   0.230   9.402 -2.0251  0.8563 -1.8142
   64CHL1   C12 7173   1.467  -0.041   9.417 -0.0240  0.7041 -0.4469
   64CHL1  H12A 7174   1.386  -0.007   9.349 -0.9287 -0.6221 -0.0721
   64CHL1  H12B 7175   1.457  -0.150   9.439 -0.7441  1.0408  1.0041
   64CHL1   C11 7176   1.429   0.027   9.547  1.1433  0.3817  0.7757
   64CHL1  H11A 7177   1.401   0.131   9.519 -0.0312 -0.1006  0.0766
   64CHL1  H11B 7178   1.329  -0.017   9.571  0.4459  0.9539 -0.9021
   64CHL1    C9 7179   1.528   0.018   9.662  0.7858 -0.4506 -0.0381
   64CHL1    H9 7180   1.534  -0.089   9.690  0.9027 -1.9391 -4.8769
   64CHL1   C10 7181   1.487   0.102   9.791  0.2133 -0.0410  0.3337
   64CHL1   C19 7182   1.443   0.248   9.758  0.4401  0.2076  0.4780
   64CHL1  H19A 7183   1.419   0.312   9.845 -0.1600  0.3892  0.1860
   64CHL1  H19B 7184   1.521   0.294   9.693 -0.6508 -0.3260 -1.3044
   64CHL1  H19C 7185   1.354   0.233   9.693  0.7359 -1.0382  0.3449
   64CHL1    C1 7186   1.366   0.031   9.857  0.6675 -0.6310  0.9297
   64CHL1   H1A 7187   1.277   0.030   9.791  1.8261 -1.1985 -0.6781
   64CHL1   H1B 7188   1.394  -0.076   9.869  4.3123 -0.1658 -1.8843
   64CHL1    C2 7189   1.329   0.076  10.003  0.5843 -0.2815  0.0822
   64CHL1   H2A 7190   1.256  -0.001  10.037 -0.8732  0.6997 -0.6895
   64CHL1   H2B 7191   1.280   0.175   9.987 -1.1646 -0.7026  2.2752
   64CHL1   C20 7192   1.630  -0.065   9.112  0.3223 -0.1495  0.5177
   64CHL1   H20 7193   1.641   0.043   9.088 -0.6050 -0.2230 -0.2894
   64CHL1   C21 7194   1.478  -0.095   9.089 -0.0258  0.3006  0.3327
   64CHL1  H21A 7195   1.452  -0.088   8.982 -0.3975  0.0397  0.4066
   64CHL1  H21B 7196   1.415  -0.023   9.145 -0.3389  1.1959 -1.1393
   64CHL1  H21C 7197   1.475  -0.201   9.124  0.4673  0.1737  0.0029
   64CHL1   C22 7198   1.734  -0.121   9.012  0.7185  0.6435  0.8212
   64CHL1  H22A 7199   1.828  -0.063   9.021 -0.2434  2.3121  0.4534
   64CHL1  H22B 7200   1.757  -0.227   9.036  0.6571  0.0665 -1.4199
   64CHL1   C23 7201   1.702  -0.108   8.860  0.6012 -0.0024  0.7882
   64CHL1  H23A 7202   1.630  -0.193   8.857  0.4611  0.1256  0.5697
   64CHL1  H23B 7203   1.650  -0.014   8.832  0.2436 -0.6428 -0.7754
   64CHL1   C24 7204   1.825  -0.117   8.761  0.5630 -0.4633 -1.0128
   64CHL1  H24A 7205   1.914  -0.057   8.790  1.1536 -1.1127 -1.4317
   64CHL1  H24B 7206   1.856  -0.222   8.779  1.8674  0.0084 -0.3532
   64CHL1   C25 7207   1.809  -0.098   8.612  0.5980 -0.2393  0.5261
   64CHL1   H25 7208   1.906  -0.133   8.571  1.0082  1.8877 -0.5063
   64CHL1   C26 7209   1.696  -0.180   8.550 -0.4899  0.0467  0.2922
   64CHL1  H26A 7210   1.598  -0.152   8.594 -0.2626  2.0461 -0.3729
   64CHL1  H26B 7211   1.695  -0.159   8.441 -0.8146 -0.2261  0.2411
   64CHL1  H26C 7212   1.701  -0.289   8.574 -0.0173 -0.3779 -1.5981
   64CHL1   C27 7213   1.808   0.054   8.586  0.4717 -0.1028  0.8997
   64CHL1  H27A 7214   1.717   0.096   8.633 -0.7614 -0.7213 -0.8406
   64CHL1  H27B 7215   1.904   0.094   8.626  1.0538 -1.9649  1.4501
   64CHL1  H27C 7216   1.806   0.069   8.476  0.1526  0.2282  0.9508
   65CHL1    C3 7217   5.063   4.693  10.408  0.3370  0.1369  0.1670
   65CHL1    H3 7218   5.164   4.657  10.379  0.8031  1.4700  0.0888
   65CHL1    O3 7219   5.054   4.700  10.551 -0.0438  0.1443 -0.2095
   65CHL1   H3' 7220   5.139   4.732  10.582  0.3176 -1.0415  0.0758
   65CHL1    C4 7221   5.053   4.835  10.357 -0.1180  0.1350 -0.2207
   65CHL1   H4A 7222   4.952   4.873  10.383 -0.1521  1.5449 -2.1226
   65CHL1   H4B 7223   5.121   4.902  10.413 -0.4476 -0.7408  1.2554
   65CHL1    C5 7224   5.070   4.839  10.207 -0.4587  0.5077 -0.4343
   65CHL1    C6 7225   5.162   4.922  10.148 -0.4352  0.5605 -0.4273
   65CHL1    H6 7226   5.226   4.988  10.208  1.9723 -1.5404 -0.5109
   65CHL1    C7 7227   5.184   4.933  10.002  0.4645 -0.0008  0.7385
   65CHL1   H7A 7228   5.188   5.041   9.974 -0.9308 -0.3089 -0.8427
   65CHL1   H7B 7229   5.277   4.879   9.977 -0.3041 -1.4078  0.8264
   65CHL1    C8 7230   5.082   4.854   9.908 -0.5262  0.7666  0.6814
   65CHL1    H8 7231   4.992   4.919   9.906 -0.8072  0.3791  0.0638
   65CHL1   C14 7232   5.124   4.830   9.766 -0.2155 -0.2081 -0.1881
   65CHL1   H14 7233   5.205   4.755   9.759 -1.1519 -1.0988 -1.9663
   65CHL1   C15 7234   5.193   4.950   9.685 -0.2844 -0.0055 -0.0234
   65CHL1  H15A 7235   5.157   5.044   9.732 -3.3563 -0.9346 -0.3048
   65CHL1  H15B 7236   5.303   4.944   9.703  0.1785  0.1776 -2.4112
   65CHL1   C16 7237   5.153   4.931   9.542 -0.1803  0.6024  0.1590
   65CHL1  H16A 7238   5.097   5.024   9.518  1.1326  1.0569 -1.3473
   65CHL1  H16B 7239   5.247   4.941   9.484 -0.4707  0.7639 -0.2859
   65CHL1   C17 7240   5.083   4.783   9.541 -0.7898 -0.2915  0.4850
   65CHL1   H17 7241   5.169   4.713   9.533 -0.5643 -0.0585  0.8201
   65CHL1   C13 7242   5.010   4.771   9.678  0.2659  0.9981  0.0402
   65CHL1   C18 7243   4.877   4.856   9.670  0.7625 -0.4958 -0.5557
   65CHL1  H18A 7244   4.901   4.951   9.618  2.3260 -2.0665 -2.8867
   65CHL1  H18B 7245   4.793   4.809   9.616 -3.4502  0.5573  4.2925
   65CHL1  H18C 7246   4.827   4.874   9.768  0.1757  0.3753 -0.9971
   65CHL1   C12 7247   4.978   4.629   9.736 -0.7132 -0.1535 -0.2953
   65CHL1  H12A 7248   4.894   4.584   9.679 -0.2310  0.8085 -1.8155
   65CHL1  H12B 7249   5.063   4.558   9.736 -2.7765 -2.7722 -0.0739
   65CHL1   C11 7250   4.927   4.648   9.883 -0.2039  1.3066  0.0030
   65CHL1  H11A 7251   4.826   4.694   9.882 -0.5182  0.6452  0.5477
   65CHL1  H11B 7252   4.922   4.547   9.930  1.0179  2.1925  2.1557
   65CHL1    C9 7253   5.027   4.729   9.972 -0.2986 -0.2200  0.6486
   65CHL1    H9 7254   5.120   4.668   9.979  0.1873  0.2993 -0.9605
   65CHL1   C10 7255   4.982   4.746  10.120 -0.5437 -0.7202 -0.6095
   65CHL1   C19 7256   4.842   4.814  10.129  0.3092 -0.4117  0.0544
   65CHL1  H19A 7257   4.799   4.815  10.231 -0.5976  1.7235 -0.2819
   65CHL1  H19B 7258   4.858   4.920  10.097  0.6978 -0.3826  0.3384
   65CHL1  H19C 7259   4.765   4.764  10.066 -0.8671  0.1299  1.0301
   65CHL1    C1 7260   4.988   4.603  10.185  0.2554 -0.4976  0.0438
   65CHL1   H1A 7261   4.903   4.558  10.128  1.1984 -0.2090 -1.6485
   65CHL1   H1B 7262   5.080   4.550  10.153  0.5306 -0.0932  0.1640
   65CHL1    C2 7263   4.957   4.611  10.336 -0.2222 -0.3171  0.4144
   65CHL1   H2A 7264   4.949   4.511  10.384  2.1065 -0.1889  1.2114
   65CHL1   H2B 7265   4.862   4.667  10.349 -0.0009 -0.4080  3.1493
   65CHL1   C20 7266   5.008   4.762   9.403 -0.3731  0.0664  0.1600
   65CHL1   H20 7267   4.913   4.819   9.411 -0.2107  0.0600  3.0466
   65CHL1   C21 7268   4.959   4.611   9.394  0.4178 -0.8728  0.0477
   65CHL1  H21A 7269   4.888   4.589   9.477  0.4693  1.7249  0.8759
   65CHL1  H21B 7270   5.044   4.540   9.388  0.0598 -1.3473  0.4567
   65CHL1  H21C 7271   4.892   4.604   9.305 -1.4213  0.6879  1.2316
   65CHL1   C22 7272   5.092   4.817   9.291 -0.4631  0.4130  0.1563
   65CHL1  H22A 7273   5.106   4.927   9.303 -0.6875  0.3654  0.8517
   65CHL1  H22B 7274   5.193   4.772   9.284 -0.0679  0.6240  3.1630
   65CHL1   C23 7275   5.025   4.814   9.158 -0.3392 -0.1196  0.7738
   65CHL1  H23A 7276   5.021   4.709   9.122  1.1411  0.1358 -0.2297
   65CHL1  H23B 7277   4.924   4.862   9.160  0.1002  0.8617  0.2336
   65CHL1   C24 7278   5.107   4.882   9.042  0.0223  0.3421 -0.4994
   65CHL1  H24A 7279   5.122   4.987   9.074 -1.3723  0.3977  0.0350
   65CHL1  H24B 7280   5.206   4.832   9.043  0.8544  1.9116 -1.2446
   65CHL1   C25 7281   5.032   4.896   8.907 -0.6717 -0.4683 -0.1873
   65CHL1   H25 7282   4.958   4.814   8.894 -2.0652  0.7008  0.1361
   65CHL1   C26 7283   4.958   5.028   8.891  0.5998 -0.2936  0.0769
   65CHL1  H26A 7284   4.880   5.020   8.812  0.1723 -1.7428  0.6149
   65CHL1  H26B 7285   4.918   5.069   8.986  0.7919  2.0654 -0.7868
   65CHL1  H26C 7286   5.031   5.101   8.851 -0.6169  0.2346 -1.2903
   65CHL1   C27 7287   5.137   4.887   8.801  0.2239 -0.3292 -0.2832
   65CHL1  H27A 7288   5.210   4.970   8.813 -0.3850  0.1201  0.3434
   65CHL1  H27B 7289   5.195   4.792   8.789  2.9733  1.1328  0.5217
   65CHL1  H27C 7290   5.084   4.900   8.705 -2.8711  2.2769  1.5959
   66CHL1    C3 7291   2.190   2.056  10.609 -0.0743 -0.4014 -0.6940
   66CHL1    H3 7292   2.081   2.059  10.628  0.3116 -1.5418  2.1251
   66CHL1    O3 7293   2.252   2.060  10.735 -0.8468  0.1987  0.1674
   66CHL1   H3' 7294   2.209   1.991  10.786  2.1081 -2.0794 -0.1475
   66CHL1    C4 7295   2.209   1.919  10.535  0.6341  0.1235 -0.2077
   66CHL1   H4A 7296   2.318   1.906  10.547  0.5614  1.0163  1.7129
   66CHL1   H4B 7297   2.169   1.837  10.598 -0.3865 -1.8630 -3.2015
   66CHL1    C5 7298   2.172   1.916  10.386  0.1430  0.4765  0.3810
   66CHL1    C6 7299   2.076   1.830  10.338 -0.4057 -0.2768  0.6534
   66CHL1    H6 7300   2.030   1.751  10.398 -2.8594  0.3817 -0.2593
   66CHL1    C7 7301   2.026   1.832  10.193  0.5359 -0.3136 -0.3462
   66CHL1   H7A 7302   1.996   1.730  10.161 -1.7273  0.9751 -2.7442
   66CHL1   H7B 7303   1.930   1.886  10.184  1.7975  2.0138 -0.7931
   66CHL1    C8 7304   2.121   1.909  10.099 -0.1389 -0.7207  0.0982
   66CHL1    H8 7305   2.211   1.844  10.098 -0.1236 -0.7835  2.1284
   66CHL1   C14 7306   2.053   1.933   9.965  0.3106 -0.0226  0.7434
   66CHL1   H14 7307   1.973   2.005   9.992  0.7552 -0.0133  2.1529
   66CHL1   C15 7308   1.991   1.816   9.902  0.0676 -0.1310 -0.7587
   66CHL1  H15A 7309   2.058   1.727   9.912  1.6157  0.9144 -1.4206
   66CHL1  H15B 7310   1.894   1.782   9.944  0.2620  1.0554  0.7401
   66CHL1   C16 7311   1.978   1.863   9.752 -0.5766 -0.0067 -0.4899
   66CHL1  H16A 7312   2.024   1.787   9.686 -0.2989  0.3070 -0.6599
   66CHL1  H16B 7313   1.872   1.875   9.721 -1.7746 -2.2416  2.2990
   66CHL1   C17 7314   2.049   1.999   9.740 -0.1662  0.1081  0.4122
   66CHL1   H17 7315   1.977   2.080   9.768 -1.5002 -0.8756 -0.0438
   66CHL1   C13 7316   2.147   1.993   9.860 -0.0098 -0.2603 -0.0201
   66CHL1   C18 7317   2.266   1.903   9.839  0.0058 -0.3507 -0.4685
   66CHL1  H18A 7318   2.345   1.936   9.768 -0.7780 -1.5414 -1.9541
   66CHL1  H18B 7319   2.317   1.891   9.937 -3.2528 -3.0598  1.1371
   66CHL1  H18C 7320   2.224   1.807   9.800 -1.3209  0.3717 -0.8841
   66CHL1   C12 7321   2.189   2.136   9.911 -0.2618  0.0124  0.4898
   66CHL1  H12A 7322   2.256   2.194   9.844  2.0029 -1.4084  1.4299
   66CHL1  H12B 7323   2.090   2.187   9.908 -1.6865 -2.4986 -2.9602
   66CHL1   C11 7324   2.254   2.129  10.046  0.2642 -0.3615 -0.5359
   66CHL1  H11A 7325   2.359   2.093  10.033  0.9082  1.6286 -1.3603
   66CHL1  H11B 7326   2.265   2.232  10.087  1.0955 -1.2469  1.6257
   66CHL1    C9 7327   2.171   2.046  10.149 -0.8922 -0.7266 -0.8380
   66CHL1    H9 7328   2.083   2.112  10.163 -0.4943 -0.5590  1.0941
   66CHL1   C10 7329   2.235   2.031  10.294  0.2189 -0.1821 -0.0698
   66CHL1   C19 7330   2.383   2.009  10.288  0.0055  0.2301  0.4105
   66CHL1  H19A 7331   2.407   1.926  10.219  1.0134  1.9161 -1.3756
   66CHL1  H19B 7332   2.429   2.104  10.254 -1.6642  0.7171 -0.6107
   66CHL1  H19C 7333   2.426   1.972  10.384 -0.1327  0.3226  0.5072
   66CHL1    C1 7334   2.202   2.162  10.378  0.3366  0.2780 -0.0846
   66CHL1   H1A 7335   2.260   2.244  10.331 -0.5587  1.6328  1.1107
   66CHL1   H1B 7336   2.096   2.184  10.354 -0.7152 -2.6926  1.3194
   66CHL1    C2 7337   2.237   2.173  10.529  0.0236 -0.2089  0.1929
   66CHL1   H2A 7338   2.200   2.272  10.564 -0.4244 -1.0174  2.1624
   66CHL1   H2B 7339   2.348   2.170  10.530  0.0144 -0.4967  1.0517
   66CHL1   C20 7340   2.108   2.013   9.605 -0.5583 -0.5626 -0.1272
   66CHL1   H20 7341   2.183   1.936   9.579 -0.4048 -0.6845  0.6681
   66CHL1   C21 7342   2.180   2.153   9.581 -0.3656  0.2358  0.2330
   66CHL1  H21A 7343   2.107   2.235   9.599 -1.8781 -0.8575 -0.7405
   66CHL1  H21B 7344   2.205   2.166   9.474 -1.4597 -1.3530 -0.2507
   66CHL1  H21C 7345   2.274   2.158   9.640 -1.4653  0.0441  2.0644
   66CHL1   C22 7346   2.000   1.985   9.494 -0.4985  0.6106 -0.6914
   66CHL1  H22A 7347   1.985   1.875   9.496  2.1967  0.1514 -1.5751
   66CHL1  H22B 7348   1.904   2.038   9.510 -0.2338  1.1244 -0.7622
   66CHL1   C23 7349   2.044   2.017   9.353 -0.7808 -0.0849 -0.0323
   66CHL1  H23A 7350   1.964   1.994   9.280  0.7896  1.1818 -2.2547
   66CHL1  H23B 7351   2.073   2.123   9.336  0.5767 -0.6246 -1.3578
   66CHL1   C24 7352   2.173   1.939   9.300  0.8625 -0.0017  0.4996
   66CHL1  H24A 7353   2.254   1.993   9.354  0.6517  1.1866 -0.3310
   66CHL1  H24B 7354   2.159   1.832   9.328  1.1364 -0.4568 -1.0121
   66CHL1   C25 7355   2.197   1.962   9.149 -0.0483 -0.4653  0.0339
   66CHL1   H25 7356   2.279   1.891   9.127  0.5791  0.5467 -1.0046
   66CHL1   C26 7357   2.087   1.917   9.054 -1.1789 -0.0291 -0.0521
   66CHL1  H26A 7358   2.094   1.936   8.945  0.9065 -1.2102 -0.1658
   66CHL1  H26B 7359   2.090   1.808   9.075 -1.3330  0.3977  2.5823
   66CHL1  H26C 7360   1.988   1.950   9.091 -0.4794  3.9829 -1.2190
   66CHL1   C27 7361   2.241   2.101   9.111  0.4861  0.3754  0.2593
   66CHL1  H27A 7362   2.321   2.126   9.183  1.0016 -1.3178  0.3213
   66CHL1  H27B 7363   2.278   2.104   9.006 -1.2003 -3.3942 -0.6044
   66CHL1  H27C 7364   2.158   2.174   9.126  0.4753  1.1629 -2.8628
   67CHL1    C3 7365   1.019   2.704  10.286 -0.4471  0.5743  0.3456
   67CHL1    H3 7366   1.123   2.667  10.269  0.6728  3.2216  0.9667
   67CHL1    O3 7367   0.998   2.712  10.428 -0.5241 -0.5229 -0.5858
   67CHL1   H3' 7368   1.006   2.620  10.455 -0.2848 -0.5712 -0.8089
   67CHL1    C4 7369   1.005   2.848  10.224 -0.0581 -0.2378  0.5945
   67CHL1   H4A 7370   0.914   2.892  10.272  0.4753 -0.1207  1.5144
   67CHL1   H4B 7371   1.090   2.906  10.264  1.1605 -1.2557 -0.4619
   67CHL1    C5 7372   1.009   2.854  10.075 -0.2807 -0.9343  0.5175
   67CHL1    C6 7373   1.102   2.924  10.006 -0.1266 -0.4336 -0.3945
   67CHL1    H6 7374   1.173   2.985  10.063  1.4685 -1.1838 -1.5314
   67CHL1    C7 7375   1.118   2.929   9.858 -0.4838 -0.4790 -0.5424
   67CHL1   H7A 7376   1.123   3.031   9.815 -0.7032 -0.8643 -1.5054
   67CHL1   H7B 7377   1.220   2.889   9.837  0.1753 -0.3106  2.0347
   67CHL1    C8 7378   0.993   2.873   9.776  0.0513  0.0355  0.2597
   67CHL1    H8 7379   0.912   2.950   9.767 -0.5864 -0.3711  2.1027
   67CHL1   C14 7380   1.031   2.829   9.636  0.1167  0.6978 -0.7247
   67CHL1   H14 7381   1.107   2.749   9.650 -0.0928  0.8881  1.9560
   67CHL1   C15 7382   1.108   2.929   9.546 -0.2297 -1.0020  0.0233
   67CHL1  H15A 7383   1.038   3.015   9.542  1.5135  0.4289 -2.0944
   67CHL1  H15B 7384   1.209   2.959   9.583 -1.3966  1.7443  1.2722
   67CHL1   C16 7385   1.112   2.864   9.407  0.6905 -0.5283 -0.2825
   67CHL1  H16A 7386   1.088   2.940   9.329 -1.9765 -1.4202 -0.4534
   67CHL1  H16B 7387   1.208   2.809   9.401  0.6874 -0.7674  1.4262
   67CHL1   C17 7388   0.994   2.750   9.410 -0.2332 -0.7742  0.2459
   67CHL1   H17 7389   1.053   2.656   9.409  0.0216 -0.6337  1.0437
   67CHL1   C13 7390   0.920   2.767   9.545 -0.4164  0.9962 -0.0207
   67CHL1   C18 7391   0.802   2.863   9.517 -0.0276  0.4491 -0.3283
   67CHL1  H18A 7392   0.718   2.810   9.468  0.9089  1.4611 -3.2286
   67CHL1  H18B 7393   0.760   2.905   9.611 -0.4111  2.8582 -1.4952
   67CHL1  H18C 7394   0.831   2.946   9.449 -0.6689 -0.5332 -1.8428
   67CHL1   C12 7395   0.867   2.643   9.617  0.4985  0.2216 -0.1174
   67CHL1  H12A 7396   0.776   2.605   9.565 -0.0427  0.7380  0.4226
   67CHL1  H12B 7397   0.947   2.565   9.621 -0.2655 -0.5707  2.7233
   67CHL1   C11 7398   0.828   2.676   9.763  0.2980  0.4471 -0.5378
   67CHL1  H11A 7399   0.738   2.740   9.780  0.7001  0.4921  1.8367
   67CHL1  H11B 7400   0.802   2.579   9.811  0.6099  0.9130  0.6215
   67CHL1    C9 7401   0.937   2.749   9.844  1.0425 -0.2391  0.0206
   67CHL1    H9 7402   1.013   2.669   9.831  0.9613 -0.3979  0.4815
   67CHL1   C10 7403   0.907   2.760  10.003  0.5508 -0.1128 -0.4717
   67CHL1   C19 7404   0.765   2.821  10.019 -0.2282  0.1315  0.3235
   67CHL1  H19A 7405   0.741   2.841  10.125  2.1372  2.3180  0.5524
   67CHL1  H19B 7406   0.758   2.909   9.951 -0.2130  0.3854  0.6483
   67CHL1  H19C 7407   0.690   2.743   9.994 -0.0878  0.1615 -0.2009
   67CHL1    C1 7408   0.921   2.619  10.064 -0.7808 -0.2897 -0.4096
   67CHL1   H1A 7409   0.842   2.552  10.022  0.3094 -1.9839  0.1541
   67CHL1   H1B 7410   1.018   2.579  10.030 -0.0800  1.1169 -0.1291
   67CHL1    C2 7411   0.921   2.611  10.217 -0.3247 -0.0394 -0.1267
   67CHL1   H2A 7412   0.926   2.511  10.266 -0.2258  0.8031  1.6551
   67CHL1   H2B 7413   0.823   2.648  10.254 -0.2153 -1.1451  1.3746
   67CHL1   C20 7414   0.905   2.745   9.280 -0.2693  0.3170 -0.0637
   67CHL1   H20 7415   0.837   2.832   9.278 -1.2327 -0.4085  0.3462
   67CHL1   C21 7416   0.822   2.617   9.284  0.0269  0.0874  0.2511
   67CHL1  H21A 7417   0.771   2.592   9.189 -4.1072  0.7005  2.0771
   67CHL1  H21B 7418   0.735   2.632   9.353 -0.5493  2.0195 -0.8215
   67CHL1  H21C 7419   0.886   2.528   9.299  1.9748  1.2136 -1.0010
   67CHL1   C22 7420   0.991   2.747   9.149  0.6518  0.7803  0.7778
   67CHL1  H22A 7421   1.070   2.825   9.155  0.2701  1.0754  2.3865
   67CHL1  H22B 7422   1.037   2.647   9.133 -2.0088 -0.1413 -1.8318
   67CHL1   C23 7423   0.912   2.762   9.020 -0.9424  0.2159  0.6678
   67CHL1  H23A 7424   0.841   2.677   9.011 -0.4805 -0.0048 -1.3430
   67CHL1  H23B 7425   0.869   2.865   9.019 -0.3348  0.5384  2.6742
   67CHL1   C24 7426   1.000   2.747   8.889  0.1817  0.4793 -0.1642
   67CHL1  H24A 7427   1.074   2.829   8.892  0.7677 -0.0512  0.1263
   67CHL1  H24B 7428   1.064   2.657   8.897  0.7164  0.8323 -0.4398
   67CHL1   C25 7429   0.919   2.744   8.762 -0.4617 -1.2019 -0.3242
   67CHL1   H25 7430   0.851   2.657   8.751  0.5200 -1.8532 -1.4018
   67CHL1   C26 7431   0.845   2.871   8.741  0.5001 -0.4453 -0.8070
   67CHL1  H26A 7432   0.776   2.904   8.821  0.4828  0.7095 -1.2691
   67CHL1  H26B 7433   0.930   2.942   8.730 -0.7558  1.2598  0.0893
   67CHL1  H26C 7434   0.790   2.869   8.645  3.5517  2.0227 -2.8335
   67CHL1   C27 7435   1.016   2.730   8.643 -0.5027 -0.5968  0.1747
   67CHL1  H27A 7436   0.955   2.744   8.551 -2.2714 -2.4775  0.9820
   67CHL1  H27B 7437   1.088   2.812   8.667  0.6389 -2.0103  1.7598
   67CHL1  H27C 7438   1.060   2.629   8.632 -1.2384 -0.9254  0.2510
   68CHL1    C3 7439   5.532   4.448  10.428 -0.3047 -0.0209  0.1228
   68CHL1    H3 7440   5.633   4.492  10.422 -0.9919  1.6656  0.1731
   68CHL1    O3 7441   5.492   4.444  10.562  0.2544  0.0786  0.3535
   68CHL1   H3' 7442   5.447   4.359  10.571  1.7323 -0.9342 -1.2041
   68CHL1    C4 7443   5.436   4.524  10.338 -0.5284  0.0681  0.1081
   68CHL1   H4A 7444   5.332   4.489  10.356  0.2749 -1.2168  2.7780
   68CHL1   H4B 7445   5.432   4.631  10.368 -2.0042  0.0983 -0.0855
   68CHL1    C5 7446   5.456   4.524  10.184 -0.0411  0.8038  0.0525
   68CHL1    C6 7447   5.474   4.629  10.108 -0.5042 -0.6996  0.2186
   68CHL1    H6 7448   5.459   4.729  10.150 -0.5255 -0.8774  0.6455
   68CHL1    C7 7449   5.495   4.626   9.963 -0.4072 -0.3449  0.1735
   68CHL1   H7A 7450   5.420   4.685   9.908 -0.4548 -1.1491 -0.6587
   68CHL1   H7B 7451   5.596   4.667   9.939  0.8582 -3.2914 -0.0210
   68CHL1    C8 7452   5.479   4.478   9.907  0.7324  0.2058  0.2975
   68CHL1    H8 7453   5.368   4.473   9.894  0.9202  0.7688 -1.7178
   68CHL1   C14 7454   5.528   4.461   9.764  0.1399 -0.7602 -0.0917
   68CHL1   H14 7455   5.637   4.480   9.767 -0.1474  0.8705  1.9828
   68CHL1   C15 7456   5.476   4.560   9.662 -0.5726 -0.2483 -0.3415
   68CHL1  H15A 7457   5.366   4.571   9.674 -0.4721  1.2235 -0.6022
   68CHL1  H15B 7458   5.511   4.663   9.680  1.3727 -1.1706  1.7056
   68CHL1   C16 7459   5.505   4.502   9.523 -0.3201  0.7786 -0.4239
   68CHL1  H16A 7460   5.412   4.499   9.462 -1.2172 -1.7746  0.9155
   68CHL1  H16B 7461   5.588   4.560   9.478  1.7116 -0.5707  1.4089
   68CHL1   C17 7462   5.572   4.368   9.557  0.1495  0.2501 -0.3505
   68CHL1   H17 7463   5.678   4.397   9.573  0.1730 -0.8956  2.0176
   68CHL1   C13 7464   5.514   4.330   9.700  0.3720 -0.6646  0.1781
   68CHL1   C18 7465   5.363   4.289   9.689 -0.0135 -0.1920 -0.2313
   68CHL1  H18A 7466   5.307   4.353   9.618 -0.0271  2.0535  1.6922
   68CHL1  H18B 7467   5.356   4.181   9.661 -0.6272 -0.2117 -0.0330
   68CHL1  H18C 7468   5.302   4.302   9.782  0.7540 -0.1087  0.2645
   68CHL1   C12 7469   5.587   4.227   9.780 -0.3282 -0.2343  0.3473
   68CHL1  H12A 7470   5.565   4.126   9.740 -2.1180 -0.2653  1.2802
   68CHL1  H12B 7471   5.697   4.231   9.765 -0.5017  0.0858 -1.0103
   68CHL1   C11 7472   5.538   4.228   9.924 -0.2738 -0.9006  0.0083
   68CHL1  H11A 7473   5.437   4.183   9.919  0.3177 -2.3172  0.3355
   68CHL1  H11B 7474   5.593   4.158   9.991  0.6468 -0.7809 -0.5997
   68CHL1    C9 7475   5.534   4.371   9.993 -0.2334  0.1956  0.0250
   68CHL1    H9 7476   5.643   4.391  10.000  0.0334  0.0446 -2.6818
   68CHL1   C10 7477   5.473   4.372  10.131 -0.0320  0.0730 -0.1014
   68CHL1   C19 7478   5.333   4.310  10.125  0.4465  0.5355  0.2305
   68CHL1  H19A 7479   5.278   4.333  10.032 -0.7992  0.1862  0.8519
   68CHL1  H19B 7480   5.347   4.200  10.136  0.1701  0.5201  0.4589
   68CHL1  H19C 7481   5.264   4.341  10.207  1.1345 -1.1966  1.5300
   68CHL1    C1 7482   5.570   4.297  10.234 -0.4596  0.0456  0.5638
   68CHL1   H1A 7483   5.579   4.193  10.194  0.5566  0.2322  0.2653
   68CHL1   H1B 7484   5.667   4.351  10.229 -0.0943 -0.4588  1.8282
   68CHL1    C2 7485   5.539   4.301  10.383 -0.6629 -0.7235 -0.1320
   68CHL1   H2A 7486   5.611   4.241  10.442  0.4083  0.3868 -0.2725
   68CHL1   H2B 7487   5.438   4.258  10.399 -1.0696 -0.5990 -2.0752
   68CHL1   C20 7488   5.559   4.265   9.444  0.3795 -0.1031 -1.1994
   68CHL1   H20 7489   5.465   4.207   9.454  0.7809 -0.5739  0.2671
   68CHL1   C21 7490   5.674   4.166   9.462  0.2814  0.1052  0.4404
   68CHL1  H21A 7491   5.654   4.075   9.401  2.5979  1.7401 -3.1054
   68CHL1  H21B 7492   5.689   4.137   9.568 -1.3698 -2.6440  0.0350
   68CHL1  H21C 7493   5.770   4.209   9.427  1.1686 -0.4608  2.0892
   68CHL1   C22 7494   5.563   4.316   9.305  0.0389 -0.4065 -0.1816
   68CHL1  H22A 7495   5.469   4.374   9.293  0.7652  1.0085  0.6445
   68CHL1  H22B 7496   5.642   4.393   9.289  1.1665 -0.9512  2.2282
   68CHL1   C23 7497   5.561   4.205   9.196  0.3447 -0.4148  0.4289
   68CHL1  H23A 7498   5.656   4.148   9.203  0.3632 -0.5655 -0.8858
   68CHL1  H23B 7499   5.481   4.130   9.210  1.9788 -2.2703  0.3663
   68CHL1   C24 7500   5.542   4.262   9.057 -0.0896  0.0540  0.2389
   68CHL1  H24A 7501   5.456   4.329   9.038  0.9268  1.4305  0.3598
   68CHL1  H24B 7502   5.641   4.308   9.035  0.2062 -1.0175 -0.7736
   68CHL1   C25 7503   5.526   4.146   8.959  1.0442  0.2749 -0.9205
   68CHL1   H25 7504   5.431   4.091   8.979  1.2711 -1.2522 -3.5422
   68CHL1   C26 7505   5.507   4.196   8.819  0.0292  0.3161  0.3916
   68CHL1  H26A 7506   5.508   4.108   8.752  2.1175  0.5790  0.0389
   68CHL1  H26B 7507   5.407   4.243   8.805  0.5835  1.2930 -0.4187
   68CHL1  H26C 7508   5.591   4.260   8.785  1.6533 -0.2288  3.0548
   68CHL1   C27 7509   5.644   4.049   8.951 -0.2238 -0.0533  0.0257
   68CHL1  H27A 7510   5.695   4.026   9.047  0.5319  1.7504  0.0913
   68CHL1  H27B 7511   5.616   3.950   8.908 -1.5803  0.8850 -1.3291
   68CHL1  H27C 7512   5.721   4.089   8.883 -1.8128 -0.4194 -2.0800
   69CHL1    C3 7513   0.248   1.518   6.718  0.0095  0.2368 -0.0091
   69CHL1    H3 7514   0.268   1.414   6.687 -0.4630  0.0888  0.1893
   69CHL1    O3 7515   0.229   1.598   6.602 -0.4900  0.3317 -0.4433
   69CHL1   H3' 7516   0.253   1.685   6.635  0.1472 -0.3001  0.8787
   69CHL1    C4 7517   0.119   1.523   6.810 -0.7850 -0.2399  0.3299
   69CHL1   H4A 7518   0.103   1.632   6.823  0.2782 -0.0892  0.4736
   69CHL1   H4B 7519   0.037   1.478   6.751  1.4033 -0.9697 -2.3876
   69CHL1    C5 7520   0.135   1.456   6.943  0.5603 -0.1852 -0.3223
   69CHL1    C6 7521   0.039   1.378   6.989  0.3602  0.4859 -0.5282
   69CHL1    H6 7522  -0.055   1.369   6.932 -0.0952  0.1127  0.2637
   69CHL1    C7 7523   0.034   1.321   7.127  0.1407 -0.5568  0.2197
   69CHL1   H7A 7524  -0.061   1.340   7.183 -0.4080  1.2370 -1.2358
   69CHL1   H7B 7525   0.049   1.211   7.120 -0.4176 -0.5550 -1.3229
   69CHL1    C8 7526   0.145   1.384   7.217 -0.8122 -0.0814  0.5379
   69CHL1    H8 7527   0.101   1.482   7.246 -1.1053 -0.3221  0.9158
   69CHL1   C14 7528   0.164   1.300   7.340  0.0044  0.1573  0.8075
   69CHL1   H14 7529   0.208   1.206   7.302 -0.5244 -1.3343  3.5688
   69CHL1   C15 7530   0.040   1.261   7.417 -0.1638  0.0352  0.4502
   69CHL1  H15A 7531  -0.013   1.355   7.443  1.6753  1.4125 -0.5284
   69CHL1  H15B 7532  -0.021   1.188   7.360  0.4276  0.7450 -1.1729
   69CHL1   C16 7533   0.090   1.206   7.547 -0.2907 -0.0795  0.3099
   69CHL1  H16A 7534   0.028   1.233   7.636 -1.2504 -0.7674 -0.1392
   69CHL1  H16B 7535   0.078   1.096   7.542 -0.7327  0.0288 -1.6993
   69CHL1   C17 7536   0.244   1.252   7.558 -0.2630 -0.4249 -0.1667
   69CHL1   H17 7537   0.306   1.164   7.530 -1.7748 -1.3323 -0.7928
   69CHL1   C13 7538   0.261   1.354   7.442  0.7616 -0.3158 -0.5731
   69CHL1   C18 7539   0.221   1.500   7.497  0.3186  0.1014  0.8054
   69CHL1  H18A 7540   0.216   1.577   7.418  0.6898  0.4400  1.1076
   69CHL1  H18B 7541   0.114   1.489   7.527 -0.8494 -0.1895 -2.9593
   69CHL1  H18C 7542   0.296   1.529   7.574  2.0917  0.4914 -1.0083
   69CHL1   C12 7543   0.398   1.359   7.375 -0.0383 -0.4898  0.5765
   69CHL1  H12A 7544   0.471   1.410   7.441 -1.1657  0.0198  1.4769
   69CHL1  H12B 7545   0.435   1.257   7.353  2.2891  0.7904 -2.0752
   69CHL1   C11 7546   0.389   1.437   7.242  0.5678 -0.4178  0.4274
   69CHL1  H11A 7547   0.378   1.543   7.274 -2.9676 -0.0765 -1.4369
   69CHL1  H11B 7548   0.486   1.428   7.190 -0.3529  1.0713 -1.6309
   69CHL1    C9 7549   0.271   1.398   7.140  0.3276 -0.8811  0.0032
   69CHL1    H9 7550   0.290   1.298   7.096  0.0806 -0.7229 -0.4676
   69CHL1   C10 7551   0.253   1.488   7.023  0.5929  0.1252 -0.6134
   69CHL1   C19 7552   0.239   1.635   7.071 -0.2856  0.0382  0.0376
   69CHL1  H19A 7553   0.229   1.700   6.982 -0.1543 -0.3686 -0.2736
   69CHL1  H19B 7554   0.151   1.655   7.137 -0.4367  0.1410 -0.1946
   69CHL1  H19C 7555   0.340   1.665   7.106  0.2668 -1.1067 -0.5227
   69CHL1    C1 7556   0.376   1.467   6.928 -0.5678  0.3652  0.2379
   69CHL1   H1A 7557   0.457   1.505   6.994 -0.0662  0.5788 -0.4979
   69CHL1   H1B 7558   0.393   1.358   6.914 -1.6343 -0.1417  2.3610
   69CHL1    C2 7559   0.375   1.547   6.798 -0.0686 -0.2534  0.2391
   69CHL1   H2A 7560   0.460   1.520   6.733 -0.7496  0.5062 -1.0068
   69CHL1   H2B 7561   0.378   1.652   6.833  0.7034 -0.3247  0.3994
   69CHL1   C20 7562   0.287   1.295   7.705  0.1747 -0.1340  0.2686
   69CHL1   H20 7563   0.240   1.393   7.728  0.6044 -0.1312  1.1866
   69CHL1   C21 7564   0.435   1.307   7.701  0.3534  1.4593  0.1037
   69CHL1  H21A 7565   0.466   1.409   7.668 -0.4405  1.7642  0.2690
   69CHL1  H21B 7566   0.477   1.231   7.632 -0.8828 -1.2620  2.1348
   69CHL1  H21C 7567   0.488   1.287   7.797  1.8782 -1.0808 -1.1484
   69CHL1   C22 7568   0.241   1.184   7.809 -0.4028  0.4035 -0.7560
   69CHL1  H22A 7569   0.161   1.115   7.775  0.3411 -0.0200 -1.6944
   69CHL1  H22B 7570   0.324   1.117   7.838 -2.3523 -0.4926  3.5325
   69CHL1   C23 7571   0.193   1.244   7.941  0.7103 -0.4047 -0.4698
   69CHL1  H23A 7572   0.269   1.306   7.992  0.8053 -1.0152  0.1495
   69CHL1  H23B 7573   0.114   1.321   7.921  1.1936  0.7808  1.7670
   69CHL1   C24 7574   0.142   1.140   8.036 -0.3810 -0.4318 -0.3818
   69CHL1  H24A 7575   0.089   1.059   7.981 -2.3234  0.9038 -0.5691
   69CHL1  H24B 7576   0.226   1.093   8.092 -0.9494 -1.6608 -0.5332
   69CHL1   C25 7577   0.035   1.172   8.148  0.2171  0.0893 -0.1645
   69CHL1   H25 7578  -0.064   1.206   8.110 -1.1956 -2.6722  0.8114
   69CHL1   C26 7579   0.002   1.045   8.246  0.0717 -0.8781 -0.4294
   69CHL1  H26A 7580  -0.051   1.080   8.337 -0.6351 -2.6146 -0.1316
   69CHL1  H26B 7581  -0.063   0.971   8.194  0.4416 -0.9527 -0.7910
   69CHL1  H26C 7582   0.097   1.000   8.282  0.5927 -0.5439 -1.3595
   69CHL1   C27 7583   0.081   1.294   8.233  0.6267  0.5145 -0.3240
   69CHL1  H27A 7584   0.165   1.258   8.297 -1.1672 -2.0757  0.6947
   69CHL1  H27B 7585   0.107   1.386   8.176  2.3230  0.6368  0.5676
   69CHL1  H27C 7586   0.004   1.322   8.308  2.2669  2.6648  0.6856
   70CHL1    C3 7587   4.120   5.273   7.040  0.3932  0.0261  0.9413
   70CHL1    H3 7588   4.142   5.381   7.031  0.2414  0.1683  2.1139
   70CHL1    O3 7589   4.124   5.223   6.908 -0.1549  0.3977  0.3457
   70CHL1   H3' 7590   4.201   5.166   6.903 -0.5045 -0.2175  1.5455
   70CHL1    C4 7591   4.211   5.182   7.127  0.1655  0.3566  0.4665
   70CHL1   H4A 7592   4.176   5.079   7.108  0.4860  0.3695 -0.2310
   70CHL1   H4B 7593   4.310   5.185   7.075 -0.7612 -1.0621 -1.5005
   70CHL1    C5 7594   4.211   5.217   7.272 -0.0233  0.1405 -0.2687
   70CHL1    C6 7595   4.322   5.254   7.333  0.0315  0.0681 -0.3739
   70CHL1    H6 7596   4.418   5.245   7.280 -0.3965  0.5309 -1.2505
   70CHL1    C7 7597   4.327   5.293   7.474 -0.1381 -0.1487 -0.2457
   70CHL1   H7A 7598   4.415   5.250   7.527 -0.2974  1.3244  1.2842
   70CHL1   H7B 7599   4.342   5.402   7.481 -1.5377 -0.0194  1.2910
   70CHL1    C8 7600   4.202   5.248   7.552  0.5684 -0.2828 -0.2571
   70CHL1    H8 7601   4.206   5.140   7.576  1.7647  0.4176  3.4311
   70CHL1   C14 7602   4.194   5.327   7.687 -0.3501 -0.6024  0.4062
   70CHL1   H14 7603   4.181   5.431   7.648  0.4859 -1.3445 -2.0840
   70CHL1   C15 7604   4.317   5.334   7.767  0.1191  0.2233 -0.0553
   70CHL1  H15A 7605   4.371   5.238   7.764  0.8026  0.5109  1.6946
   70CHL1  H15B 7606   4.388   5.413   7.734  0.7076 -0.2374  0.1038
   70CHL1   C16 7607   4.265   5.370   7.906  0.0323 -0.5382  0.2422
   70CHL1  H16A 7608   4.304   5.285   7.968 -0.7483 -0.5962  0.6659
   70CHL1  H16B 7609   4.313   5.465   7.937  0.4388 -0.5420 -0.3586
   70CHL1   C17 7610   4.109   5.377   7.896 -0.0043  0.6520  0.6105
   70CHL1   H17 7611   4.087   5.482   7.868  0.7861  1.0938  1.5829
   70CHL1   C13 7612   4.070   5.297   7.773 -0.0616  0.0305 -0.3342
   70CHL1   C18 7613   4.074   5.147   7.814 -0.4253  0.5183  0.7842
   70CHL1  H18A 7614   3.992   5.122   7.885 -0.5658  1.5516  1.0003
   70CHL1  H18B 7615   4.078   5.068   7.736  0.6574  0.9446  0.4013
   70CHL1  H18C 7616   4.167   5.124   7.870 -0.3758 -3.8846 -0.7496
   70CHL1   C12 7617   3.941   5.339   7.692 -0.4812 -0.6613  0.1390
   70CHL1  H12A 7618   3.842   5.332   7.743  0.4575 -0.3871  2.1284
   70CHL1  H12B 7619   3.960   5.447   7.675  4.1742 -1.1013  1.0884
   70CHL1   C11 7620   3.939   5.269   7.552 -0.5932  0.7185 -0.0661
   70CHL1  H11A 7621   3.903   5.165   7.570 -0.1697  0.0927 -2.5053
   70CHL1  H11B 7622   3.853   5.327   7.510 -0.3263 -0.3557 -2.2452
   70CHL1    C9 7623   4.070   5.284   7.471 -0.5421 -0.5622  0.5664
   70CHL1    H9 7624   4.093   5.392   7.455  2.7839 -0.9298  1.9652
   70CHL1   C10 7625   4.066   5.217   7.330  0.3838 -0.2922  0.2467
   70CHL1   C19 7626   4.009   5.075   7.350 -0.9192 -0.2311  0.2100
   70CHL1  H19A 7627   3.903   5.074   7.385 -1.1628 -1.9681 -0.4643
   70CHL1  H19B 7628   4.018   5.018   7.255 -0.2966  1.0936 -0.5456
   70CHL1  H19C 7629   4.057   5.010   7.426 -1.7235 -2.3689 -1.0212
   70CHL1    C1 7630   3.967   5.293   7.240 -0.4284  0.4542 -0.6827
   70CHL1   H1A 7631   3.864   5.270   7.275 -0.3166  0.7409 -0.1497
   70CHL1   H1B 7632   3.988   5.402   7.250  0.7226  0.5044 -2.9956
   70CHL1    C2 7633   3.977   5.254   7.092  0.3780 -0.2452 -0.2666
   70CHL1   H2A 7634   3.904   5.311   7.031  0.2486 -0.2518 -0.1168
   70CHL1   H2B 7635   3.939   5.150   7.083  3.1116 -1.3761  0.1968
   70CHL1   C20 7636   4.036   5.347   8.022  0.4908  0.3048 -0.5605
   70CHL1   H20 7637   4.054   5.241   8.048  0.3630  0.3252 -0.3851
   70CHL1   C21 7638   3.876   5.355   8.015 -0.4036 -0.5294 -0.6831
   70CHL1  H21A 7639   3.844   5.450   7.966 -0.1194 -1.7473 -3.3710
   70CHL1  H21B 7640   3.833   5.338   8.116  1.3528  1.4074  0.4743
   70CHL1  H21C 7641   3.847   5.268   7.953  1.8981 -0.3910 -2.0828
   70CHL1   C22 7642   4.083   5.425   8.146 -0.8222 -0.1459  0.5852
   70CHL1  H22A 7643   4.188   5.460   8.137 -1.4115  1.2242 -1.6303
   70CHL1  H22B 7644   4.016   5.514   8.151 -1.5757 -0.5857 -0.9773
   70CHL1   C23 7645   4.056   5.364   8.281  0.4549  0.0996 -0.1368
   70CHL1  H23A 7646   3.951   5.331   8.280  0.0250  1.4040 -0.2369
   70CHL1  H23B 7647   4.106   5.266   8.295  0.5820  0.2427  0.4543
   70CHL1   C24 7648   4.085   5.447   8.408 -1.2276 -0.2654 -0.1410
   70CHL1  H24A 7649   4.174   5.510   8.388 -0.9660 -1.2661 -2.4697
   70CHL1  H24B 7650   3.996   5.509   8.430 -0.4664  0.6139  0.5358
   70CHL1   C25 7651   4.119   5.356   8.532 -1.2475  0.1128 -0.0180
   70CHL1   H25 7652   4.187   5.279   8.490  1.6590  2.1919  0.5992
   70CHL1   C26 7653   4.199   5.408   8.652 -0.7351 -0.4573 -0.1030
   70CHL1  H26A 7654   4.140   5.492   8.693  0.6747  1.7117 -2.2439
   70CHL1  H26B 7655   4.203   5.323   8.724 -1.0843  0.5702  1.1561
   70CHL1  H26C 7656   4.300   5.442   8.623 -1.2130  1.7500  0.6522
   70CHL1   C27 7657   3.990   5.282   8.580 -0.2901  0.1559 -0.2735
   70CHL1  H27A 7658   4.003   5.188   8.638 -1.6430  0.6895  0.9483
   70CHL1  H27B 7659   3.928   5.349   8.643  0.6180 -0.0492  0.8870
   70CHL1  H27C 7660   3.921   5.250   8.499 -0.0636  0.8036 -0.7205
   71CHL1    C3 7661   3.329   1.223   6.823 -0.3134  0.3699 -0.1654
   71CHL1    H3 7662   3.432   1.208   6.861 -1.3324  1.9699  3.7900
   71CHL1    O3 7663   3.337   1.242   6.684 -0.4809 -0.1397 -0.2074
   71CHL1   H3' 7664   3.251   1.223   6.645 -0.5756 -0.4362  0.1433
   71CHL1    C4 7665   3.260   1.093   6.864  0.1162 -0.2740 -0.0693
   71CHL1   H4A 7666   3.153   1.095   6.834 -0.8199 -0.9403  2.8554
   71CHL1   H4B 7667   3.319   1.016   6.809  2.2551  1.4002 -0.2189
   71CHL1    C5 7668   3.254   1.072   7.010 -0.9753 -0.9806 -0.6238
   71CHL1    C6 7669   3.308   0.965   7.062 -0.1561 -1.0148 -0.0591
   71CHL1    H6 7670   3.354   0.892   6.994  2.8476  2.7010 -2.4799
   71CHL1    C7 7671   3.330   0.944   7.207 -0.5704 -0.3616 -0.3766
   71CHL1   H7A 7672   3.305   0.838   7.227  1.2981 -1.0738 -1.5254
   71CHL1   H7B 7673   3.440   0.950   7.225 -0.7785 -0.3851  1.0239
   71CHL1    C8 7674   3.255   1.047   7.293 -0.2090  0.3399 -0.3498
   71CHL1    H8 7675   3.147   1.020   7.295 -0.8912  2.7015  2.0874
   71CHL1   C14 7676   3.316   1.034   7.437 -0.1474 -0.5362  0.5274
   71CHL1   H14 7677   3.425   1.053   7.422 -0.3517 -0.5757 -1.1797
   71CHL1   C15 7678   3.298   0.903   7.505 -0.4205  0.3650 -0.4706
   71CHL1  H15A 7679   3.201   0.856   7.478  1.3029 -1.5226 -4.2084
   71CHL1  H15B 7680   3.382   0.838   7.472 -2.2396 -1.8246 -1.1024
   71CHL1   C16 7681   3.316   0.939   7.656 -0.0050  0.3489  0.8820
   71CHL1  H16A 7682   3.234   0.899   7.720 -0.5710 -1.0477 -0.6118
   71CHL1  H16B 7683   3.412   0.893   7.688  0.5248  0.5316 -0.3812
   71CHL1   C17 7684   3.324   1.092   7.658 -0.4924 -0.3343  0.2557
   71CHL1   H17 7685   3.429   1.115   7.631 -1.1893  1.0726 -1.4705
   71CHL1   C13 7686   3.255   1.139   7.525  0.0436  0.0062 -0.0159
   71CHL1   C18 7687   3.103   1.109   7.550  0.3155  0.8294 -0.0084
   71CHL1  H18A 7688   3.065   1.169   7.636 -0.0167 -1.1910  1.3202
   71CHL1  H18B 7689   3.044   1.132   7.459 -0.2084 -1.6300 -0.3460
   71CHL1  H18C 7690   3.085   1.003   7.578  0.3752  0.3733 -1.5741
   71CHL1   C12 7691   3.279   1.281   7.478  0.0368  0.0644 -0.6624
   71CHL1  H12A 7692   3.229   1.351   7.548 -1.8881  0.9836 -2.8266
   71CHL1  H12B 7693   3.387   1.304   7.464  0.5373 -2.6152 -1.8723
   71CHL1   C11 7694   3.213   1.293   7.341  0.9671 -0.2138  0.4086
   71CHL1  H11A 7695   3.102   1.306   7.344  0.4422 -3.9060  1.0929
   71CHL1  H11B 7696   3.243   1.395   7.308  1.4207 -0.4226  0.1667
   71CHL1    C9 7697   3.265   1.187   7.240 -0.7843 -0.0576 -0.3229
   71CHL1    H9 7698   3.376   1.196   7.238 -0.6156 -1.3477  1.3233
   71CHL1   C10 7699   3.213   1.197   7.097 -0.2782  0.0629  0.0016
   71CHL1   C19 7700   3.058   1.211   7.092  0.2555 -0.2539 -0.0499
   71CHL1  H19A 7701   2.996   1.136   7.145 -0.8406 -0.1734 -1.1572
   71CHL1  H19B 7702   3.027   1.310   7.131  0.5961 -0.7855  1.6328
   71CHL1  H19C 7703   3.032   1.214   6.984 -1.2220 -0.7837  0.2688
   71CHL1    C1 7704   3.273   1.337   7.041  0.0280  0.5841  0.2883
   71CHL1   H1A 7705   3.210   1.418   7.083 -2.5207 -1.4320  0.6687
   71CHL1   H1B 7706   3.379   1.337   7.073  0.2745 -0.1251 -0.4836
   71CHL1    C2 7707   3.268   1.346   6.886  0.8074  0.1128  0.3533
   71CHL1   H2A 7708   3.347   1.423   6.869  0.4697  0.3718 -0.0534
   71CHL1   H2B 7709   3.164   1.356   6.848 -0.3124 -3.2301  2.1374
   71CHL1   C20 7710   3.301   1.164   7.792  0.1334  1.3617  0.3917
   71CHL1   H20 7711   3.271   1.271   7.782  1.1042  1.6015 -0.0947
   71CHL1   C21 7712   3.428   1.151   7.869  0.0806 -0.4316  0.0002
   71CHL1  H21A 7713   3.421   1.220   7.956 -1.6892 -1.6532  0.8748
   71CHL1  H21B 7714   3.517   1.184   7.811 -0.5685  0.3405 -0.5938
   71CHL1  H21C 7715   3.445   1.049   7.908 -2.0731 -0.7444  0.2388
   71CHL1   C22 7716   3.186   1.100   7.876  0.1823  0.7975 -0.1106
   71CHL1  H22A 7717   3.091   1.103   7.818  1.0549 -0.8110 -1.7220
   71CHL1  H22B 7718   3.212   0.994   7.897  0.6940  0.7995 -0.7058
   71CHL1   C23 7719   3.155   1.180   8.003  0.3205 -0.4259 -0.3038
   71CHL1  H23A 7720   3.248   1.214   8.054  0.5646  1.0237 -1.6530
   71CHL1  H23B 7721   3.089   1.264   7.973  0.7356 -0.2647 -0.7738
   71CHL1   C24 7722   3.098   1.080   8.110  0.1428 -0.6659  0.2558
   71CHL1  H24A 7723   3.000   1.047   8.068  0.3025  0.3800 -1.0138
   71CHL1  H24B 7724   3.165   0.993   8.121  0.7748 -0.1713  0.3891
   71CHL1   C25 7725   3.086   1.143   8.250 -0.5238 -0.0335  0.1692
   71CHL1   H25 7726   3.046   1.246   8.238  0.6144  0.1811 -2.5088
   71CHL1   C26 7727   2.988   1.054   8.339 -0.4140  0.2126 -0.5045
   71CHL1  H26A 7728   2.887   1.071   8.294  0.1671  2.8772 -0.9879
   71CHL1  H26B 7729   3.020   0.951   8.313  0.5009  0.4596 -0.3964
   71CHL1  H26C 7730   2.998   1.069   8.449  1.4952 -0.0190 -0.6149
   71CHL1   C27 7731   3.223   1.150   8.323  0.0843 -0.5412  0.2531
   71CHL1  H27A 7732   3.296   1.218   8.274  1.2583  0.1987  2.8513
   71CHL1  H27B 7733   3.205   1.188   8.426 -0.7154 -0.1106 -0.0362
   71CHL1  H27C 7734   3.261   1.045   8.323  0.9659 -0.2635 -1.4018
   72CHL1    C3 7735   4.743   6.118   6.971  0.1192  0.2539  0.7033
   72CHL1    H3 7736   4.714   6.204   7.034 -1.7416 -0.9485  1.5434
   72CHL1    O3 7737   4.672   6.139   6.847 -0.4172 -0.1936 -0.0481
   72CHL1   H3' 7738   4.649   6.054   6.808 -0.8573  0.2828 -0.8781
   72CHL1    C4 7739   4.896   6.110   6.942  0.8837 -0.2600 -0.3389
   72CHL1   H4A 7740   4.933   6.024   6.882  2.0705  0.8000 -1.1854
   72CHL1   H4B 7741   4.920   6.203   6.886 -1.8665 -0.4497 -2.0026
   72CHL1    C5 7742   4.972   6.101   7.078 -0.1493  0.5909  0.6241
   72CHL1    C6 7743   5.067   6.189   7.117  0.6572 -0.1892 -0.1371
   72CHL1    H6 7744   5.089   6.284   7.068 -0.5170  1.2176  1.8834
   72CHL1    C7 7745   5.152   6.173   7.240  0.0621 -0.3385  0.0089
   72CHL1   H7A 7746   5.257   6.190   7.208  0.0130  0.3044  0.1800
   72CHL1   H7B 7747   5.119   6.251   7.312 -3.0430 -1.1714 -0.3712
   72CHL1    C8 7748   5.141   6.030   7.316  0.3308  0.5378 -0.1000
   72CHL1    H8 7749   5.203   5.963   7.253 -1.2932  0.0308 -1.2278
   72CHL1   C14 7750   5.189   6.038   7.461 -0.3405 -0.1925 -0.1022
   72CHL1   H14 7751   5.112   6.099   7.513 -1.3764 -0.9447 -0.7094
   72CHL1   C15 7752   5.326   6.097   7.481 -0.0697 -1.4224 -0.6859
   72CHL1  H15A 7753   5.395   6.063   7.401 -0.7260  1.6979 -2.7584
   72CHL1  H15B 7754   5.330   6.208   7.486  0.0813 -1.4662  0.2906
   72CHL1   C16 7755   5.382   6.031   7.615 -0.5387  0.7018  0.0703
   72CHL1  H16A 7756   5.472   5.969   7.595 -0.3354  0.3640  1.9169
   72CHL1  H16B 7757   5.405   6.112   7.687 -0.4550  0.9555 -0.2409
   72CHL1   C17 7758   5.263   5.950   7.663 -0.3399  0.4652  0.0147
   72CHL1   H17 7759   5.191   6.018   7.713 -2.3786  0.4290 -2.6460
   72CHL1   C13 7760   5.183   5.899   7.538 -0.2631 -0.9226 -0.0679
   72CHL1   C18 7761   5.268   5.796   7.465 -1.0843  0.0229 -0.1527
   72CHL1  H18A 7762   5.276   5.698   7.516 -1.1792  0.2403  0.2786
   72CHL1  H18B 7763   5.233   5.779   7.360  1.7753 -0.5087 -1.1015
   72CHL1  H18C 7764   5.372   5.828   7.444 -0.5241 -1.1403  0.7686
   72CHL1   C12 7765   5.034   5.861   7.542 -0.3122 -0.0598  0.4534
   72CHL1  H12A 7766   5.032   5.762   7.593  0.2292  0.9878  2.6525
   72CHL1  H12B 7767   4.973   5.941   7.589 -0.6547  1.1502 -1.9168
   72CHL1   C11 7768   4.980   5.847   7.396 -0.0592 -0.3835  0.2630
   72CHL1  H11A 7769   5.032   5.767   7.340 -1.1720 -0.0748 -1.2603
   72CHL1  H11B 7770   4.877   5.807   7.408  0.1180 -0.4824  1.6527
   72CHL1    C9 7771   4.993   5.984   7.314 -0.1534 -0.3932  0.2942
   72CHL1    H9 7772   4.937   6.063   7.368  0.9476  0.9963 -0.5398
   72CHL1   C10 7773   4.932   5.983   7.169 -0.0999  0.1650  0.2338
   72CHL1   C19 7774   4.961   5.846   7.103 -0.7517 -0.3396 -0.7947
   72CHL1  H19A 7775   4.941   5.838   6.994 -2.5362 -0.3935 -0.4857
   72CHL1  H19B 7776   5.067   5.824   7.128 -1.6853 -1.4226  2.7346
   72CHL1  H19C 7777   4.900   5.764   7.147  1.0690 -1.4177 -0.1826
   72CHL1    C1 7778   4.777   5.983   7.181  0.1930  0.2726 -0.3223
   72CHL1   H1A 7779   4.742   5.888   7.227 -2.1008  1.6324  0.9086
   72CHL1   H1B 7780   4.749   6.071   7.243 -2.6060 -0.0405 -0.9972
   72CHL1    C2 7781   4.706   5.989   7.040 -0.2471  0.1838  0.3624
   72CHL1   H2A 7782   4.596   5.978   7.039 -0.2921  0.3236 -2.5988
   72CHL1   H2B 7783   4.746   5.904   6.982 -0.8005 -0.6601  1.1909
   72CHL1   C20 7784   5.299   5.843   7.764  0.3085  0.0393  0.0366
   72CHL1   H20 7785   5.368   5.767   7.721  0.9731 -1.0090  2.7763
   72CHL1   C21 7786   5.171   5.775   7.814  0.2531  0.3000 -0.1545
   72CHL1  H21A 7787   5.189   5.732   7.915  0.8018  0.2848 -0.2585
   72CHL1  H21B 7788   5.124   5.699   7.748  0.9246  0.3784 -0.7267
   72CHL1  H21C 7789   5.092   5.850   7.833  0.2177  0.5755 -1.3159
   72CHL1   C22 7790   5.374   5.906   7.881 -0.9597  0.1825  0.1329
   72CHL1  H22A 7791   5.411   5.828   7.950  0.2247  0.9417  0.3926
   72CHL1  H22B 7792   5.475   5.939   7.846 -1.1768  1.1966  0.4155
   72CHL1   C23 7793   5.302   6.013   7.961 -0.9735  0.0850 -0.1753
   72CHL1  H23A 7794   5.260   6.093   7.896 -3.4899 -3.1098 -2.8670
   72CHL1  H23B 7795   5.213   5.965   8.007 -0.0344 -1.3709  0.1829
   72CHL1   C24 7796   5.386   6.088   8.068 -0.7123 -0.7227 -0.9907
   72CHL1  H24A 7797   5.439   6.006   8.122 -0.7920  0.0999  0.3781
   72CHL1  H24B 7798   5.462   6.153   8.019  0.2139 -0.5214  0.6173
   72CHL1   C25 7799   5.320   6.174   8.181  0.2534 -0.0532 -0.8282
   72CHL1   H25 7800   5.306   6.275   8.138 -0.4359 -0.7475 -2.3241
   72CHL1   C26 7801   5.174   6.125   8.206 -0.6049 -0.9530 -0.7362
   72CHL1  H26A 7802   5.116   6.143   8.113 -1.9794  2.1489  0.5914
   72CHL1  H26B 7803   5.180   6.020   8.242  1.1639  0.3861  3.4297
   72CHL1  H26C 7804   5.131   6.184   8.289  0.1146 -0.5544 -0.6414
   72CHL1   C27 7805   5.390   6.176   8.325 -0.0462  0.1043  0.7055
   72CHL1  H27A 7806   5.341   6.252   8.390  0.2139  1.7466 -0.9142
   72CHL1  H27B 7807   5.383   6.074   8.368  0.2451  0.1143  0.7769
   72CHL1  H27C 7808   5.493   6.217   8.314  0.7248 -2.3233 -2.8936
   73CHL1    C3 7809   3.966   3.341   6.998  0.4305  0.1310 -0.1574
   73CHL1    H3 7810   3.864   3.379   7.025  0.2432 -0.4026 -0.1158
   73CHL1    O3 7811   4.004   3.394   6.871  0.6852  0.0233  0.6856
   73CHL1   H3' 7812   4.099   3.384   6.873  0.6772 -0.0907  0.5550
   73CHL1    C4 7813   4.061   3.387   7.108  0.5000  0.1180 -1.5625
   73CHL1   H4A 7814   4.157   3.337   7.081  0.2384 -1.6718  0.5182
   73CHL1   H4B 7815   4.077   3.497   7.106 -0.8563  0.3510 -0.5298
   73CHL1    C5 7816   4.013   3.329   7.243 -1.1779  1.1697 -0.7397
   73CHL1    C6 7817   3.981   3.404   7.347  0.0729  0.1466 -0.4780
   73CHL1    H6 7818   3.982   3.513   7.331  1.9351  0.3232  0.5413
   73CHL1    C7 7819   3.946   3.360   7.490  0.0297  0.3851  0.1440
   73CHL1   H7A 7820   3.988   3.418   7.575 -1.8123 -0.9102  2.0648
   73CHL1   H7B 7821   3.836   3.361   7.506 -0.0983 -0.4787 -0.6403
   73CHL1    C8 7822   3.994   3.211   7.513  0.4164 -0.3130  0.5523
   73CHL1    H8 7823   4.104   3.203   7.523  0.2877 -3.5659  0.3231
   73CHL1   C14 7824   3.933   3.150   7.635 -0.1248 -0.3844  0.0310
   73CHL1   H14 7825   3.824   3.142   7.616 -0.0358  0.5389 -0.9945
   73CHL1   C15 7826   3.961   3.232   7.763  0.2178 -0.2010 -0.0439
   73CHL1  H15A 7827   4.063   3.269   7.786 -0.1416 -0.2712  1.8225
   73CHL1  H15B 7828   3.888   3.316   7.759 -0.0434 -0.4289 -0.0635
   73CHL1   C16 7829   3.917   3.134   7.873  0.5807  0.5994  0.1376
   73CHL1  H16A 7830   3.990   3.123   7.956 -1.4082 -1.0975  1.7555
   73CHL1  H16B 7831   3.814   3.158   7.908  0.9066 -0.2212  1.7595
   73CHL1   C17 7832   3.900   2.992   7.804  0.0714 -0.3514 -0.4240
   73CHL1   H17 7833   3.794   2.985   7.773  0.0818  1.9824 -1.1846
   73CHL1   C13 7834   3.975   3.007   7.671  0.3391 -0.2417  0.8929
   73CHL1   C18 7835   4.125   2.998   7.695 -0.1117  0.3986  0.2899
   73CHL1  H18A 7836   4.189   3.024   7.609  0.2250  2.1225  1.0230
   73CHL1  H18B 7837   4.155   3.069   7.774 -0.7120  1.1104 -0.1072
   73CHL1  H18C 7838   4.148   2.894   7.728 -1.7103  0.0386  0.3554
   73CHL1   C12 7839   3.931   2.915   7.541 -0.1852  0.5332  0.4619
   73CHL1  H12A 7840   3.958   2.811   7.567 -1.3838 -0.4950 -2.0778
   73CHL1  H12B 7841   3.820   2.911   7.543 -0.1375 -1.1706  2.2814
   73CHL1   C11 7842   3.985   2.974   7.411  0.0276 -0.0489  0.0976
   73CHL1  H11A 7843   4.094   2.954   7.415  0.1575  0.7777  1.2628
   73CHL1  H11B 7844   3.958   2.920   7.318 -0.1929 -0.0183  0.1434
   73CHL1    C9 7845   3.956   3.131   7.390 -0.4991  0.4841 -0.4270
   73CHL1    H9 7846   3.847   3.139   7.374 -0.2895  0.8614 -1.7779
   73CHL1   C10 7847   4.010   3.176   7.255  0.2166  0.8656  0.1605
   73CHL1   C19 7848   4.153   3.110   7.236  0.2422 -0.3119 -0.5874
   73CHL1  H19A 7849   4.215   3.153   7.154 -0.2955 -0.7566 -1.2367
   73CHL1  H19B 7850   4.205   3.124   7.333 -3.1800 -0.3020  1.4035
   73CHL1  H19C 7851   4.147   3.001   7.216  1.8188 -0.6566  0.6128
   73CHL1    C1 7852   3.923   3.131   7.131 -0.2542  0.3457 -0.0736
   73CHL1   H1A 7853   3.928   3.021   7.126  3.1212  0.1273  3.4105
   73CHL1   H1B 7854   3.818   3.163   7.151 -0.5339 -0.2897 -0.5059
   73CHL1    C2 7855   3.962   3.188   6.993 -0.4262  0.0609 -0.4962
   73CHL1   H2A 7856   3.896   3.162   6.907 -0.6292 -0.7435 -0.1137
   73CHL1   H2B 7857   4.066   3.160   6.966 -0.5653  0.5778 -1.6269
   73CHL1   C20 7858   3.928   2.879   7.906  0.5544 -0.5203  0.0957
   73CHL1   H20 7859   4.038   2.866   7.916  0.6431 -1.2681 -1.5221
   73CHL1   C21 7860   3.876   2.753   7.835 -0.2459  0.3841 -0.8799
   73CHL1  H21A 7861   3.767   2.747   7.817 -0.9401  0.2509  2.6700
   73CHL1  H21B 7862   3.900   2.672   7.906  1.4828  2.5883  1.2336
   73CHL1  H21C 7863   3.938   2.738   7.744  2.3320 -0.3235  0.8670
   73CHL1   C22 7864   3.865   2.902   8.046 -0.4536 -0.2295 -0.1412
   73CHL1  H22A 7865   3.896   3.002   8.083  1.5928  0.1000 -2.4953
   73CHL1  H22B 7866   3.754   2.901   8.038 -0.5286  0.8270  0.5352
   73CHL1   C23 7867   3.908   2.793   8.143 -0.2927  0.2438  0.4727
   73CHL1  H23A 7868   3.871   2.689   8.130  1.6544 -1.0068  3.6804
   73CHL1  H23B 7869   4.018   2.782   8.136 -0.2224  1.4703 -0.6115
   73CHL1   C24 7870   3.864   2.833   8.291 -0.1033 -0.4383  0.3162
   73CHL1  H24A 7871   3.924   2.923   8.317 -0.0612 -0.0614 -1.0305
   73CHL1  H24B 7872   3.761   2.872   8.287  0.8011  2.1212 -3.9266
   73CHL1   C25 7873   3.881   2.727   8.404 -0.1687  0.1518  0.5132
   73CHL1   H25 7874   3.839   2.631   8.368 -0.7283 -0.3760  2.4089
   73CHL1   C26 7875   4.026   2.677   8.430 -0.1992  0.3158 -0.2398
   73CHL1  H26A 7876   4.031   2.605   8.514  0.7793 -0.1473 -0.6780
   73CHL1  H26B 7877   4.076   2.622   8.348 -1.3017 -2.9937  1.1392
   73CHL1  H26C 7878   4.088   2.766   8.454 -0.3510  0.1444  0.8649
   73CHL1   C27 7879   3.821   2.777   8.541  0.5733  0.8366  0.8463
   73CHL1  H27A 7880   3.861   2.876   8.570  2.6370  1.0683 -2.2711
   73CHL1  H27B 7881   3.710   2.785   8.533  0.3104 -1.0165  2.0972
   73CHL1  H27C 7882   3.836   2.703   8.622  0.0691  0.3589  0.5150
   74CHL1    C3 7883   2.767   1.787   6.850 -0.0028  0.6244 -0.4258
   74CHL1    H3 7884   2.664   1.745   6.849  1.2350 -2.6611 -1.3876
   74CHL1    O3 7885   2.808   1.830   6.716  0.4541  0.3356  0.1057
   74CHL1   H3' 7886   2.730   1.875   6.682 -0.1022  0.0449  0.9769
   74CHL1    C4 7887   2.777   1.902   6.951  0.0100 -0.0033  0.1187
   74CHL1   H4A 7888   2.874   1.942   6.914 -0.7172  1.4549 -0.2716
   74CHL1   H4B 7889   2.713   1.990   6.925  2.4985  1.7281 -0.5391
   74CHL1    C5 7890   2.773   1.870   7.105 -0.1167  0.1911 -0.0970
   74CHL1    C6 7891   2.697   1.928   7.198 -0.6147  0.1356  0.3754
   74CHL1    H6 7892   2.632   2.010   7.163 -0.0304  0.4207 -0.0568
   74CHL1    C7 7893   2.687   1.900   7.343  0.5403  0.2679 -0.7267
   74CHL1   H7A 7894   2.706   1.994   7.400 -1.0602 -0.1422  0.5412
   74CHL1   H7B 7895   2.589   1.866   7.383  0.4205  0.4981 -0.8261
   74CHL1    C8 7896   2.804   1.805   7.378  0.6833  0.2635  0.6241
   74CHL1    H8 7897   2.900   1.861   7.379  1.2961 -0.7008 -0.9482
   74CHL1   C14 7898   2.798   1.753   7.518 -0.8376 -0.0813 -0.5306
   74CHL1   H14 7899   2.715   1.679   7.521 -0.6229 -0.3271 -0.5255
   74CHL1   C15 7900   2.784   1.862   7.623  0.1011  0.5780 -0.6252
   74CHL1  H15A 7901   2.852   1.945   7.595  0.1302  0.6290 -0.4033
   74CHL1  H15B 7902   2.679   1.895   7.634 -0.2538 -0.5533 -0.4900
   74CHL1   C16 7903   2.823   1.794   7.761 -0.6317  0.6260  0.4657
   74CHL1  H16A 7904   2.901   1.856   7.810  0.2322  0.8658 -1.1713
   74CHL1  H16B 7905   2.734   1.788   7.828 -2.9489  2.2065 -2.2303
   74CHL1   C17 7906   2.875   1.652   7.719  0.0443  0.0334  0.5202
   74CHL1   H17 7907   2.789   1.584   7.733 -0.0892 -0.0247 -0.5325
   74CHL1   C13 7908   2.912   1.659   7.569  0.2092  0.2630  0.2271
   74CHL1   C18 7909   3.045   1.732   7.558 -0.1628  0.3069  0.0205
   74CHL1  H18A 7910   3.050   1.826   7.617 -1.0819  0.5585 -0.2742
   74CHL1  H18B 7911   3.128   1.667   7.592 -1.0802 -0.0106  1.7588
   74CHL1  H18C 7912   3.061   1.752   7.449 -0.3382 -4.3697 -1.0905
   74CHL1   C12 7913   2.911   1.534   7.474  0.2225 -0.0360 -0.1193
   74CHL1  H12A 7914   2.994   1.464   7.496  1.4766  0.6707 -2.2508
   74CHL1  H12B 7915   2.814   1.483   7.492  0.0651  0.0939 -0.5761
   74CHL1   C11 7916   2.928   1.579   7.325  0.4037  0.9030  0.0446
   74CHL1  H11A 7917   3.034   1.612   7.317  0.7046 -0.5365 -3.0920
   74CHL1  H11B 7918   2.915   1.483   7.272  3.2097 -0.8954  2.3265
   74CHL1    C9 7919   2.830   1.690   7.276 -0.5941  0.0567 -0.5471
   74CHL1    H9 7920   2.729   1.644   7.270 -0.3460 -0.9335  1.9829
   74CHL1   C10 7921   2.863   1.743   7.136 -0.6009  0.1626  0.2942
   74CHL1   C19 7922   3.014   1.789   7.132 -0.3066  0.2442  0.1500
   74CHL1  H19A 7923   3.035   1.860   7.215  0.4890  0.9104 -0.6030
   74CHL1  H19B 7924   3.079   1.701   7.147 -1.1958 -0.3241  0.7672
   74CHL1  H19C 7925   3.043   1.836   7.035  2.4720 -0.9923  0.3107
   74CHL1    C1 7926   2.822   1.630   7.041  0.3674 -0.4286 -0.6946
   74CHL1   H1A 7927   2.890   1.547   7.071 -0.8772 -1.0352  0.5523
   74CHL1   H1B 7928   2.717   1.600   7.062  0.7456 -1.0504  0.3600
   74CHL1    C2 7929   2.855   1.672   6.896  0.1373  0.2650  0.1314
   74CHL1   H2A 7930   2.837   1.585   6.829  1.8538  1.3785 -1.8655
   74CHL1   H2B 7931   2.960   1.709   6.894  0.3492 -0.2308  1.2234
   74CHL1   C20 7932   2.983   1.602   7.814 -0.5024  0.7741  0.5474
   74CHL1   H20 7933   3.062   1.680   7.813 -0.2197  0.5174  1.3825
   74CHL1   C21 7934   3.044   1.464   7.776  0.0489  0.4004 -0.0381
   74CHL1  H21A 7935   3.118   1.423   7.848 -0.0270 -3.5280 -1.9607
   74CHL1  H21B 7936   3.081   1.471   7.672 -2.0019  3.8421 -0.6919
   74CHL1  H21C 7937   2.964   1.388   7.788 -0.0282  0.6966  1.5601
   74CHL1   C22 7938   2.918   1.597   7.958 -0.3488  0.3423 -0.5169
   74CHL1  H22A 7939   2.883   1.697   7.989  0.5644 -0.0759  2.1077
   74CHL1  H22B 7940   2.840   1.518   7.959  2.1437 -2.3308 -1.1283
   74CHL1   C23 7941   3.024   1.562   8.069 -0.1565  0.1861  0.5211
   74CHL1  H23A 7942   3.041   1.454   8.049 -0.7122  0.0592  0.7229
   74CHL1  H23B 7943   3.117   1.623   8.061 -0.3054  0.4717  0.8894
   74CHL1   C24 7944   2.957   1.563   8.208  0.4158 -1.0368 -0.3085
   74CHL1  H24A 7945   2.895   1.655   8.215 -1.4294 -2.2924  0.6400
   74CHL1  H24B 7946   2.885   1.479   8.218 -1.7163  0.7522  0.1851
   74CHL1   C25 7947   3.062   1.552   8.324  0.4371  0.4656  0.0030
   74CHL1   H25 7948   3.120   1.459   8.305  2.3258  0.9150  2.9043
   74CHL1   C26 7949   3.149   1.670   8.333 -0.1879 -0.8500  0.3714
   74CHL1  H26A 7950   3.077   1.754   8.320  1.6070  1.1501  2.6167
   74CHL1  H26B 7951   3.208   1.676   8.427  2.5315  2.0365 -1.3228
   74CHL1  H26C 7952   3.216   1.664   8.245  0.4864 -2.3041  0.9455
   74CHL1   C27 7953   2.993   1.532   8.462 -0.9865 -0.7990  0.3541
   74CHL1  H27A 7954   3.050   1.582   8.544 -1.7317 -1.5238  1.3350
   74CHL1  H27B 7955   2.890   1.573   8.464 -0.3823  0.7846  2.5754
   74CHL1  H27C 7956   2.993   1.425   8.489 -0.8288 -0.8429  0.1811
   75CHL1    C3 7957   0.142   2.646   6.731  0.0526 -0.0030  0.0494
   75CHL1    H3 7958   0.045   2.591   6.732  0.4107 -0.7381 -1.7450
   75CHL1    O3 7959   0.157   2.695   6.596  0.3372 -0.0772  1.1069
   75CHL1   H3' 7960   0.093   2.765   6.582 -0.1950 -0.7700 -0.0108
   75CHL1    C4 7961   0.123   2.765   6.823 -0.7693 -0.2994  0.0023
   75CHL1   H4A 7962   0.195   2.845   6.795  0.7905 -1.0870  1.5810
   75CHL1   H4B 7963   0.034   2.818   6.784  0.2702  1.0915 -0.5890
   75CHL1    C5 7964   0.122   2.747   6.972 -0.2080 -0.9638 -0.2909
   75CHL1    C6 7965   0.027   2.794   7.055 -0.5506 -0.9502  1.4974
   75CHL1    H6 7966  -0.063   2.844   7.014 -0.2113 -0.9808  0.6959
   75CHL1    C7 7967   0.028   2.761   7.198 -0.0095 -0.0523  0.3175
   75CHL1   H7A 7968  -0.015   2.844   7.259 -0.2106 -0.4071  0.6711
   75CHL1   H7B 7969  -0.043   2.677   7.215  1.5661 -0.9662  3.0014
   75CHL1    C8 7970   0.157   2.717   7.261  0.2806 -0.4033  0.3361
   75CHL1    H8 7971   0.226   2.804   7.254  0.8889 -0.9836 -1.3036
   75CHL1   C14 7972   0.129   2.658   7.399 -0.6878  0.0666 -0.3422
   75CHL1   H14 7973   0.078   2.562   7.375 -0.1635 -0.1350 -0.6859
   75CHL1   C15 7974   0.043   2.726   7.491  0.7391 -0.1654 -0.8698
   75CHL1  H15A 7975   0.060   2.836   7.497  0.7389 -0.2346  1.2519
   75CHL1  H15B 7976  -0.058   2.712   7.446 -0.5264  1.6127  1.2164
   75CHL1   C16 7977   0.065   2.660   7.631 -0.6924 -0.3905  0.1813
   75CHL1  H16A 7978   0.096   2.741   7.700  0.6868 -0.3265 -0.4557
   75CHL1  H16B 7979  -0.019   2.600   7.671 -0.6731 -1.3264 -1.1128
   75CHL1   C17 7980   0.191   2.572   7.613 -0.0221  0.3067 -0.1089
   75CHL1   H17 7981   0.147   2.471   7.603 -2.0995  0.9907  1.5139
   75CHL1   C13 7982   0.248   2.623   7.478  0.0388 -0.3422 -0.5373
   75CHL1   C18 7983   0.332   2.751   7.511 -0.3134  0.2583  0.1820
   75CHL1  H18A 7984   0.364   2.810   7.422 -2.8783  0.8380 -0.4438
   75CHL1  H18B 7985   0.269   2.819   7.573 -2.5238 -0.8316 -0.7653
   75CHL1  H18C 7986   0.419   2.708   7.565  0.2424 -0.0910 -0.9745
   75CHL1   C12 7987   0.324   2.519   7.390 -0.3200  0.2716  0.8035
   75CHL1  H12A 7988   0.409   2.465   7.435 -1.5111 -0.9971  1.6001
   75CHL1  H12B 7989   0.254   2.434   7.375  1.1304 -0.9146  0.5566
   75CHL1   C11 7990   0.349   2.565   7.249  0.6643  0.8370  1.2033
   75CHL1  H11A 7991   0.436   2.632   7.234  1.5246 -1.0222 -3.7419
   75CHL1  H11B 7992   0.390   2.475   7.200  0.1500  0.5842  1.2372
   75CHL1    C9 7993   0.229   2.619   7.173 -0.0702 -0.5536 -0.1115
   75CHL1    H9 7994   0.158   2.534   7.163  0.5741 -1.2366  0.8956
   75CHL1   C10 7995   0.248   2.665   7.023  0.5506  0.0111 -0.1518
   75CHL1   C19 7996   0.376   2.748   7.009  0.1713 -0.0064 -0.5465
   75CHL1  H19A 7997   0.460   2.692   7.053 -0.8597  0.5471  2.3449
   75CHL1  H19B 7998   0.390   2.800   6.911 -0.4352  0.7023 -0.2670
   75CHL1  H19C 7999   0.374   2.830   7.084 -0.6110 -1.8649  1.5345
   75CHL1    C1 8000   0.261   2.541   6.930 -0.2149 -0.8245 -0.4709
   75CHL1   H1A 8001   0.349   2.482   6.965  0.0652 -0.1190  0.0261
   75CHL1   H1B 8002   0.175   2.474   6.949  0.7750 -2.2174 -0.7288
   75CHL1    C2 8003   0.265   2.564   6.777 -0.1548 -0.1995  0.2377
   75CHL1   H2A 8004   0.270   2.470   6.718 -1.4976 -0.1143 -0.0445
   75CHL1   H2B 8005   0.353   2.627   6.755 -0.0409 -0.7778 -1.0620
   75CHL1   C20 8006   0.281   2.546   7.740  0.0732  0.2594 -0.4966
   75CHL1   H20 8007   0.337   2.636   7.772  1.5535 -0.7774 -0.0992
   75CHL1   C21 8008   0.383   2.432   7.712 -0.0235  0.0376 -0.0159
   75CHL1  H21A 8009   0.447   2.412   7.800  1.1483 -0.2026 -0.8813
   75CHL1  H21B 8010   0.460   2.450   7.633  0.9858  0.9341  1.1375
   75CHL1  H21C 8011   0.336   2.333   7.695  0.1847 -0.4089  1.8606
   75CHL1   C22 8012   0.203   2.510   7.867  0.2748  0.0591 -0.8139
   75CHL1  H22A 8013   0.144   2.592   7.912  0.6927  0.4167 -0.9157
   75CHL1  H22B 8014   0.129   2.429   7.848 -0.0850 -0.6738  2.9240
   75CHL1   C23 8015   0.302   2.461   7.986  0.7780 -0.3215  0.4079
   75CHL1  H23A 8016   0.328   2.355   7.963 -0.1105 -0.4208 -0.1863
   75CHL1  H23B 8017   0.396   2.520   7.998  0.8472 -0.4263  0.3870
   75CHL1   C24 8018   0.211   2.468   8.111 -0.0025 -0.3420  0.6502
   75CHL1  H24A 8019   0.178   2.570   8.139 -0.3484 -0.8828  2.3358
   75CHL1  H24B 8020   0.114   2.416   8.093 -1.3738  2.1515  0.4057
   75CHL1   C25 8021   0.281   2.405   8.231  0.0043 -0.0970  0.4381
   75CHL1   H25 8022   0.390   2.423   8.216  0.5098 -3.5407 -0.8481
   75CHL1   C26 8023   0.235   2.467   8.366  0.0480 -0.8114 -0.4753
   75CHL1  H26A 8024   0.280   2.412   8.451 -0.2431 -1.9347 -1.0375
   75CHL1  H26B 8025   0.273   2.572   8.357 -1.5239 -0.1855 -0.1371
   75CHL1  H26C 8026   0.125   2.461   8.371 -0.1657  1.6562 -0.9064
   75CHL1   C27 8027   0.257   2.256   8.230  0.1748 -0.2975 -0.5510
   75CHL1  H27A 8028   0.317   2.214   8.314  2.2370  0.7753 -1.4368
   75CHL1  H27B 8029   0.148   2.232   8.237 -0.0057  0.4933 -0.5367
   75CHL1  H27C 8030   0.311   2.214   8.143  0.1588 -0.5596 -0.4381
   76CHL1    C3 8031   2.884   4.555   7.398 -0.0058  0.3861  0.5538
   76CHL1    H3 8032   2.972   4.622   7.397 -0.6223  1.2154 -1.2990
   76CHL1    O3 8033   2.850   4.517   7.266  0.0268 -0.1108 -0.0856
   76CHL1   H3' 8034   2.925   4.548   7.215  0.4302 -0.1698  0.4671
   76CHL1    C4 8035   2.909   4.421   7.466  0.3959  0.0340  0.1373
   76CHL1   H4A 8036   2.815   4.364   7.449  0.2636 -0.3769  2.0189
   76CHL1   H4B 8037   2.983   4.360   7.410  1.9593  2.7055 -0.9334
   76CHL1    C5 8038   2.929   4.417   7.618  0.6236  0.3579 -0.3093
   76CHL1    C6 8039   3.026   4.350   7.681 -0.3614  0.0815 -0.6816
   76CHL1    H6 8040   3.098   4.295   7.618 -2.3475 -1.5582 -1.6279
   76CHL1    C7 8041   3.048   4.339   7.828  0.2595  0.4147  0.1278
   76CHL1   H7A 8042   3.078   4.235   7.852 -1.5208 -0.0219  0.6651
   76CHL1   H7B 8043   3.131   4.403   7.863 -0.8022  1.4681  0.8174
   76CHL1    C8 8044   2.917   4.381   7.904 -0.6036  0.1847  0.0040
   76CHL1    H8 8045   2.845   4.296   7.904  0.7124 -1.0142  1.9099
   76CHL1   C14 8046   2.960   4.407   8.047 -0.1309  0.3302 -0.9209
   76CHL1   H14 8047   3.021   4.499   8.031  0.0119  0.3991 -0.0697
   76CHL1   C15 8048   3.047   4.297   8.116  0.1877 -0.2615 -0.0047
   76CHL1  H15A 8049   2.992   4.200   8.114 -2.3729  1.1108 -1.6848
   76CHL1  H15B 8050   3.146   4.285   8.067 -1.7620  1.0944 -4.8701
   76CHL1   C16 8051   3.058   4.367   8.254 -0.3755  0.1160  0.1412
   76CHL1  H16A 8052   3.041   4.282   8.324  0.8663  0.1054  0.4602
   76CHL1  H16B 8053   3.160   4.411   8.256 -0.5400  0.4854  0.6840
   76CHL1   C17 8054   2.949   4.479   8.275  0.5608 -0.0434  0.5182
   76CHL1   H17 8055   3.000   4.577   8.260  2.2676 -0.6637  1.9110
   76CHL1   C13 8056   2.857   4.456   8.154 -0.8003  0.2784 -0.2306
   76CHL1   C18 8057   2.760   4.340   8.180  0.1012  0.0238  0.5915
   76CHL1  H18A 8058   2.692   4.374   8.261 -2.8074  0.4843 -1.8532
   76CHL1  H18B 8059   2.709   4.304   8.088 -1.5111  0.4830  1.2691
   76CHL1  H18C 8060   2.821   4.258   8.225 -0.6099  0.0894  1.7197
   76CHL1   C12 8061   2.786   4.580   8.091 -0.5226  0.5131 -0.8809
   76CHL1  H12A 8062   2.687   4.596   8.141 -0.2083  0.1483 -0.1241
   76CHL1  H12B 8063   2.850   4.669   8.105 -0.9219  0.8692 -1.2796
   76CHL1   C11 8064   2.745   4.563   7.940  0.1782  0.4296 -1.2103
   76CHL1  H11A 8065   2.673   4.478   7.937  2.8215 -1.9637 -2.4439
   76CHL1  H11B 8066   2.699   4.662   7.919 -1.6044  0.6575  2.7701
   76CHL1    C9 8067   2.855   4.510   7.850 -0.0898  0.2320  0.2851
   76CHL1    H9 8068   2.937   4.586   7.856  1.1124 -1.1016  1.2776
   76CHL1   C10 8069   2.822   4.492   7.696  0.8091  0.2335  0.5052
   76CHL1   C19 8070   2.688   4.416   7.690 -0.3627  0.6721 -0.1346
   76CHL1  H19A 8071   2.600   4.470   7.731 -0.4394  1.2579 -1.0499
   76CHL1  H19B 8072   2.666   4.385   7.586 -1.4171  1.0362 -0.0341
   76CHL1  H19C 8073   2.708   4.323   7.749  1.7133  1.4159  0.4332
   76CHL1    C1 8074   2.803   4.630   7.633  0.0674  0.2253  0.0460
   76CHL1   H1A 8075   2.720   4.679   7.688 -1.6190 -2.5528  0.1651
   76CHL1   H1B 8076   2.895   4.692   7.638 -0.2790  0.7526 -0.0229
   76CHL1    C2 8077   2.776   4.631   7.478 -0.1165  0.2480  0.1306
   76CHL1   H2A 8078   2.759   4.738   7.450 -1.2780  0.0621  0.0657
   76CHL1   H2B 8079   2.679   4.578   7.469 -0.2714  0.7054 -1.1997
   76CHL1   C20 8080   2.898   4.491   8.414  0.0663 -0.0674  0.4030
   76CHL1   H20 8081   2.852   4.400   8.459 -3.1606  2.1757  1.9653
   76CHL1   C21 8082   2.801   4.600   8.426  1.1218  0.1473  0.1269
   76CHL1  H21A 8083   2.800   4.638   8.531  1.5268 -1.1900  0.6437
   76CHL1  H21B 8084   2.705   4.566   8.383  1.3588 -0.2220 -0.1099
   76CHL1  H21C 8085   2.820   4.694   8.371  0.4586  0.9941  1.2786
   76CHL1   C22 8086   3.013   4.519   8.512  0.3922 -0.6631  0.4664
   76CHL1  H22A 8087   3.101   4.453   8.496  0.2504 -0.8894  0.6231
   76CHL1  H22B 8088   3.056   4.620   8.492  0.8052 -0.9473 -0.0753
   76CHL1   C23 8089   2.977   4.511   8.663  0.2501 -0.4658 -0.0627
   76CHL1  H23A 8090   2.903   4.590   8.688 -1.6095 -0.6349 -4.2222
   76CHL1  H23B 8091   2.921   4.416   8.679  0.4352 -0.4747  0.5425
   76CHL1   C24 8092   3.103   4.532   8.744  0.5642  0.4241 -0.4026
   76CHL1  H24A 8093   3.089   4.504   8.850 -0.8073  1.8838 -0.1531
   76CHL1  H24B 8094   3.184   4.470   8.701  1.1976 -0.2123  1.5925
   76CHL1   C25 8095   3.162   4.682   8.746  0.1550 -0.8762 -0.2584
   76CHL1   H25 8096   3.218   4.694   8.652 -0.2790  2.7174 -0.1837
   76CHL1   C26 8097   3.068   4.804   8.768  0.1998 -0.2356  0.0079
   76CHL1  H26A 8098   2.989   4.798   8.691  1.1322 -2.7497 -0.8676
   76CHL1  H26B 8099   3.024   4.792   8.869 -1.1466  0.8718 -0.4203
   76CHL1  H26C 8100   3.121   4.901   8.755  1.7424 -0.8579  1.2124
   76CHL1   C27 8101   3.270   4.693   8.863  0.1260  0.6476 -0.5645
   76CHL1  H27A 8102   3.221   4.692   8.963 -1.9121  3.4556 -1.4139
   76CHL1  H27B 8103   3.329   4.599   8.857  0.5208  0.8622 -0.1889
   76CHL1  H27C 8104   3.325   4.789   8.866  0.6950  0.3498  3.3719
   77CHL1    C3 8105   3.857   3.731   6.898 -0.1634 -0.1108  0.2637
   77CHL1    H3 8106   3.878   3.632   6.942  1.3785  0.7686  1.6453
   77CHL1    O3 8107   3.865   3.732   6.754 -0.1575  0.1017 -0.1238
   77CHL1   H3' 8108   3.947   3.688   6.732  1.3008  0.3025  3.9721
   77CHL1    C4 8109   3.717   3.775   6.936 -0.9184  0.1891 -0.2032
   77CHL1   H4A 8110   3.714   3.881   6.906 -0.8511  0.3279  0.2723
   77CHL1   H4B 8111   3.641   3.716   6.880  0.8410 -1.5264 -0.9371
   77CHL1    C5 8112   3.703   3.766   7.092  0.8210  0.2860  0.1922
   77CHL1    C6 8113   3.600   3.690   7.139  0.1317 -0.4422 -0.2731
   77CHL1    H6 8114   3.529   3.636   7.075  0.2228  0.0116 -0.7646
   77CHL1    C7 8115   3.574   3.678   7.288  0.2061 -0.2987  0.4838
   77CHL1   H7A 8116   3.469   3.695   7.320 -0.4497 -0.7972 -1.3038
   77CHL1   H7B 8117   3.601   3.573   7.309  1.8119 -0.3000 -1.2979
   77CHL1    C8 8118   3.669   3.768   7.371 -0.3193 -0.0020 -0.0666
   77CHL1    H8 8119   3.621   3.865   7.392 -0.0567  0.2438 -0.5665
   77CHL1   C14 8120   3.699   3.698   7.509  1.1569  0.8117 -0.0783
   77CHL1   H14 8121   3.761   3.611   7.479  0.9561  1.1042 -1.3937
   77CHL1   C15 8122   3.569   3.654   7.592 -0.7212 -0.2485 -0.4511
   77CHL1  H15A 8123   3.495   3.736   7.586  0.0404  0.3380 -2.1964
   77CHL1  H15B 8124   3.518   3.562   7.555 -0.8853 -0.6840  0.7835
   77CHL1   C16 8125   3.624   3.650   7.738 -0.2904 -0.0909  0.6816
   77CHL1  H16A 8126   3.560   3.725   7.789 -0.3737  1.2353 -1.2617
   77CHL1  H16B 8127   3.616   3.552   7.789 -1.4649 -1.3723 -1.7756
   77CHL1   C17 8128   3.772   3.692   7.725  0.0326  0.0189 -0.5881
   77CHL1   H17 8129   3.841   3.611   7.694 -0.3408 -0.2072 -0.8487
   77CHL1   C13 8130   3.778   3.790   7.605  0.6940  0.4532 -0.5349
   77CHL1   C18 8131   3.714   3.929   7.639 -0.3812  1.0476 -0.5287
   77CHL1  H18A 8132   3.686   3.977   7.543 -0.8440 -0.5036 -1.2068
   77CHL1  H18B 8133   3.617   3.920   7.691 -0.1709 -0.1138 -0.3095
   77CHL1  H18C 8134   3.786   3.992   7.695  1.4485  0.5177 -2.1573
   77CHL1   C12 8135   3.921   3.803   7.550 -0.3610 -0.4974 -0.1984
   77CHL1  H12A 8136   3.985   3.880   7.597  1.8358 -0.7755 -2.4715
   77CHL1  H12B 8137   3.966   3.701   7.544  3.0502  0.7911  1.1065
   77CHL1   C11 8138   3.911   3.862   7.413 -0.0214  0.5765 -0.1443
   77CHL1  H11A 8139   3.879   3.968   7.419  0.1714  0.6649 -0.6380
   77CHL1  H11B 8140   4.011   3.865   7.364 -0.4412 -1.3477 -1.2482
   77CHL1    C9 8141   3.816   3.789   7.316  0.2477  0.4458  0.3868
   77CHL1    H9 8142   3.864   3.690   7.302 -0.0901  0.3633 -0.2026
   77CHL1   C10 8143   3.808   3.847   7.172 -0.2722  0.1058 -0.3387
   77CHL1   C19 8144   3.771   3.998   7.176  0.3728 -0.2177  0.0102
   77CHL1  H19A 8145   3.835   4.054   7.248 -0.2818 -2.0265  2.1246
   77CHL1  H19B 8146   3.794   4.036   7.074 -1.0488 -0.0830 -0.2799
   77CHL1  H19C 8147   3.664   4.019   7.198 -0.0854 -0.9756 -1.3991
   77CHL1    C1 8148   3.949   3.834   7.108  0.5208  0.2298  0.3357
   77CHL1   H1A 8149   4.020   3.915   7.137  0.6977  0.6254 -1.0931
   77CHL1   H1B 8150   3.994   3.742   7.150 -0.5263 -0.0928  0.7788
   77CHL1    C2 8151   3.953   3.830   6.952  0.1041  0.9927 -0.0612
   77CHL1   H2A 8152   4.050   3.811   6.900 -0.1244  2.0519 -0.9207
   77CHL1   H2B 8153   3.916   3.932   6.924  0.9319  1.0745 -0.9134
   77CHL1   C20 8154   3.841   3.753   7.846  0.0552  0.3566 -0.4030
   77CHL1   H20 8155   3.917   3.826   7.810 -0.3478  0.6649 -0.6482
   77CHL1   C21 8156   3.904   3.639   7.923  0.1143  0.6777 -0.4682
   77CHL1  H21A 8157   3.962   3.576   7.852 -0.9862 -0.6847 -0.2035
   77CHL1  H21B 8158   3.824   3.573   7.964 -0.9545  0.5738 -2.5607
   77CHL1  H21C 8159   3.975   3.658   8.006  1.7442 -1.0381 -1.3892
   77CHL1   C22 8160   3.749   3.833   7.947 -0.4872  0.5384  0.7057
   77CHL1  H22A 8161   3.701   3.913   7.887  1.8848  0.6924 -1.1298
   77CHL1  H22B 8162   3.672   3.767   7.994 -1.0905 -0.0311 -0.9838
   77CHL1   C23 8163   3.822   3.911   8.053 -0.3241  0.1478 -0.9093
   77CHL1  H23A 8164   3.892   3.841   8.103 -0.4151  2.1833  2.3421
   77CHL1  H23B 8165   3.883   3.996   8.015 -2.0077  1.7890 -0.1369
   77CHL1   C24 8166   3.732   3.971   8.156 -0.4620 -0.4254 -0.0223
   77CHL1  H24A 8167   3.647   4.030   8.115 -0.0514 -0.6321 -1.2080
   77CHL1  H24B 8168   3.681   3.884   8.203 -1.8281 -0.6425 -1.8201
   77CHL1   C25 8169   3.802   4.060   8.269  0.0089  0.0448 -0.1466
   77CHL1   H25 8170   3.852   4.151   8.230  1.2824  0.7312  2.8377
   77CHL1   C26 8171   3.691   4.112   8.371  0.1207  0.0026  0.4380
   77CHL1  H26A 8172   3.740   4.159   8.459  1.1621  0.7591 -0.5155
   77CHL1  H26B 8173   3.617   4.175   8.316  1.5952  0.4090 -1.1846
   77CHL1  H26C 8174   3.630   4.023   8.397  0.4713  0.0199  1.3557
   77CHL1   C27 8175   3.907   3.973   8.343 -0.0425 -0.1395  0.1500
   77CHL1  H27A 8176   3.947   4.042   8.421  0.0685 -2.9686  2.7901
   77CHL1  H27B 8177   3.867   3.883   8.395  3.3134 -1.8877  0.0086
   77CHL1  H27C 8178   3.986   3.938   8.273 -0.9980 -2.4685  0.1280
   78CHL1    C3 8179   6.111   3.148   6.828  0.5958  0.1287  0.1165
   78CHL1    H3 8180   6.146   3.043   6.832  0.7286  0.1847  0.4484
   78CHL1    O3 8181   6.085   3.185   6.691 -0.1238  0.2005 -0.1354
   78CHL1   H3' 8182   6.065   3.279   6.690  0.3600  0.4136  2.6859
   78CHL1    C4 8183   5.974   3.157   6.905 -0.2713  0.3676  0.8223
   78CHL1   H4A 8184   5.922   3.251   6.878  0.5787  0.2794 -1.2400
   78CHL1   H4B 8185   5.908   3.080   6.859 -0.0953  0.7105 -0.0168
   78CHL1    C5 8186   6.001   3.143   7.055 -0.9345  0.6244 -0.4340
   78CHL1    C6 8187   5.929   3.052   7.125 -0.3144  0.2939 -0.0091
   78CHL1    H6 8188   5.856   2.985   7.077  0.5109  0.3043 -1.3346
   78CHL1    C7 8189   5.936   3.032   7.276  0.2348  0.2193 -0.0159
   78CHL1   H7A 8190   5.837   3.025   7.326  1.1046  0.8987  1.9109
   78CHL1   H7B 8191   5.983   2.934   7.302  0.4057  0.3664  0.2362
   78CHL1    C8 8192   6.015   3.143   7.342 -0.0415  0.1677 -0.5289
   78CHL1    H8 8193   5.954   3.236   7.344 -0.4020 -0.0694 -0.3858
   78CHL1   C14 8194   6.059   3.103   7.482 -0.6099  0.1602  0.1980
   78CHL1   H14 8195   6.130   3.020   7.467 -0.8260  0.0989 -0.4772
   78CHL1   C15 8196   5.946   3.040   7.571  0.0443 -0.9325 -0.3083
   78CHL1  H15A 8197   5.859   3.109   7.579 -0.7823 -2.0331  0.4622
   78CHL1  H15B 8198   5.921   2.935   7.543  0.0313 -0.0283 -4.2821
   78CHL1   C16 8199   6.017   3.044   7.709  0.1971  0.0904  0.3598
   78CHL1  H16A 8200   5.941   3.095   7.772 -2.7211 -0.0732 -2.7606
   78CHL1  H16B 8201   6.039   2.944   7.751 -1.4262 -0.1447  0.7173
   78CHL1   C17 8202   6.150   3.132   7.690  0.3895 -0.3580 -0.6085
   78CHL1   H17 8203   6.231   3.061   7.664  0.1244 -0.5182 -1.0067
   78CHL1   C13 8204   6.140   3.211   7.557 -0.2881 -0.1474 -0.8483
   78CHL1   C18 8205   6.063   3.348   7.574  0.1481  0.5244 -0.6988
   78CHL1  H18A 8206   5.977   3.349   7.644  1.0396 -1.2106  0.5086
   78CHL1  H18B 8207   6.137   3.420   7.616 -0.5165 -0.6021  2.6679
   78CHL1  H18C 8208   6.037   3.370   7.468  1.3846  0.6215 -1.0068
   78CHL1   C12 8209   6.276   3.224   7.474  0.1805 -0.4061  0.9203
   78CHL1  H12A 8210   6.349   3.295   7.517  0.7765 -1.4809  1.7651
   78CHL1  H12B 8211   6.322   3.123   7.460  0.0743 -0.6658  2.3076
   78CHL1   C11 8212   6.247   3.266   7.331 -0.4654 -0.0954  0.0678
   78CHL1  H11A 8213   6.202   3.367   7.338 -0.9727 -0.3441  0.4491
   78CHL1  H11B 8214   6.339   3.275   7.269 -0.2120 -2.4020  0.0082
   78CHL1    C9 8215   6.144   3.178   7.256 -0.1329  0.5548  0.4347
   78CHL1    H9 8216   6.191   3.077   7.253 -1.0815  0.0809  1.0803
   78CHL1   C10 8217   6.115   3.224   7.109  0.7584  0.1015  0.5926
   78CHL1   C19 8218   6.082   3.377   7.110  0.4453 -0.0002  0.6422
   78CHL1  H19A 8219   6.165   3.448   7.126 -0.5752  1.7459 -1.2985
   78CHL1  H19B 8220   6.051   3.404   7.007 -1.8730 -3.7400  0.1481
   78CHL1  H19C 8221   5.999   3.393   7.181  1.0550 -1.0588  1.6294
   78CHL1    C1 8222   6.244   3.218   7.026  0.1322  0.1446  0.0428
   78CHL1   H1A 8223   6.319   3.294   7.054  0.9198  0.0762 -1.7171
   78CHL1   H1B 8224   6.281   3.114   7.037 -1.7854 -0.8346 -1.9074
   78CHL1    C2 8225   6.220   3.235   6.878  0.0799  0.1692  0.0420
   78CHL1   H2A 8226   6.311   3.204   6.822 -0.1308 -1.3111  0.4676
   78CHL1   H2B 8227   6.186   3.337   6.851 -0.3762  0.1023  0.3670
   78CHL1   C20 8228   6.195   3.206   7.809  0.0553  0.1303  0.4800
   78CHL1   H20 8229   6.148   3.307   7.806 -1.7733 -0.7011  0.2757
   78CHL1   C21 8230   6.348   3.231   7.807  0.0846  0.7467  0.5916
   78CHL1  H21A 8231   6.378   3.269   7.907  2.7508 -3.2724  1.5698
   78CHL1  H21B 8232   6.368   3.299   7.722  1.7171  1.6522  1.6623
   78CHL1  H21C 8233   6.406   3.137   7.797 -1.9600 -0.7989  2.3070
   78CHL1   C22 8234   6.152   3.139   7.941 -0.3055 -0.5269  0.8364
   78CHL1  H22A 8235   6.198   3.201   8.021  1.6429  0.6751 -1.0982
   78CHL1  H22B 8236   6.042   3.125   7.935 -0.5605  0.5315 -6.6790
   78CHL1   C23 8237   6.226   3.002   7.977 -0.1623 -0.7947 -0.1669
   78CHL1  H23A 8238   6.237   2.931   7.892 -1.9945  0.0565 -1.1804
   78CHL1  H23B 8239   6.326   3.031   8.015 -1.5607  3.1257  0.9004
   78CHL1   C24 8240   6.139   2.926   8.080 -0.5863  0.1372 -0.4540
   78CHL1  H24A 8241   6.137   2.981   8.176 -1.5312  0.3825 -0.5967
   78CHL1  H24B 8242   6.033   2.917   8.045 -1.0115 -0.6835  0.9587
   78CHL1   C25 8243   6.183   2.783   8.106 -0.1277 -0.3609  0.7488
   78CHL1   H25 8244   6.182   2.744   8.002 -1.8927  0.2416  0.5112
   78CHL1   C26 8245   6.325   2.762   8.164  1.2269 -0.3367  0.3917
   78CHL1  H26A 8246   6.406   2.809   8.104  0.8867  1.0012  0.9569
   78CHL1  H26B 8247   6.307   2.803   8.266 -0.2907 -1.6690  0.7030
   78CHL1  H26C 8248   6.343   2.653   8.154 -0.2614 -0.4074 -2.3204
   78CHL1   C27 8249   6.070   2.714   8.189 -0.1246  0.6598  0.3803
   78CHL1  H27A 8250   6.066   2.604   8.181 -1.3950  0.5283  2.0812
   78CHL1  H27B 8251   6.074   2.738   8.298  0.6843  1.6569  0.1474
   78CHL1  H27C 8252   5.977   2.755   8.144  0.9309  0.2404 -2.3558
   79CHL1    C3 8253   4.327   3.757   7.360 -0.4534  0.9105  0.1848
   79CHL1    H3 8254   4.219   3.783   7.364 -0.8328 -0.3931 -0.7267
   79CHL1    O3 8255   4.370   3.798   7.236 -0.1566  0.2130 -0.3331
   79CHL1   H3' 8256   4.339   3.726   7.180 -0.8586 -0.2693  0.6510
   79CHL1    C4 8257   4.406   3.836   7.468  0.3067  0.5520  0.6293
   79CHL1   H4A 8258   4.513   3.812   7.450  0.7004  2.3551  0.4332
   79CHL1   H4B 8259   4.394   3.944   7.445 -1.8083 -0.2677 -2.7498
   79CHL1    C5 8260   4.363   3.794   7.601 -0.1812  0.4459 -0.5050
   79CHL1    C6 8261   4.303   3.867   7.691  0.0975  0.1724 -0.2365
   79CHL1    H6 8262   4.269   3.970   7.673 -0.7554  0.6413  3.3358
   79CHL1    C7 8263   4.259   3.824   7.833 -0.2447  0.1605  0.0731
   79CHL1   H7A 8264   4.288   3.902   7.906 -0.2498 -0.7555  1.0859
   79CHL1   H7B 8265   4.149   3.812   7.841 -0.1805 -0.7773 -0.2706
   79CHL1    C8 8266   4.336   3.692   7.874 -0.6346 -0.0600  0.0222
   79CHL1    H8 8267   4.441   3.727   7.885 -0.5631 -0.4507  0.6503
   79CHL1   C14 8268   4.287   3.631   8.006 -0.1007  0.0570  0.4264
   79CHL1   H14 8269   4.180   3.621   7.976 -0.1533  1.3473  0.1279
   79CHL1   C15 8270   4.284   3.719   8.133 -1.0024  1.1684 -0.4419
   79CHL1  H15A 8271   4.359   3.801   8.138 -1.7941  1.8151  2.3300
   79CHL1  H15B 8272   4.181   3.761   8.141 -1.3893  0.4819 -1.4999
   79CHL1   C16 8273   4.282   3.619   8.247  0.9111  0.6856  0.0886
   79CHL1  H16A 8274   4.361   3.651   8.318  0.8211  1.3477 -0.0989
   79CHL1  H16B 8275   4.187   3.621   8.304  0.1090 -1.7931 -1.0248
   79CHL1   C17 8276   4.314   3.472   8.189  0.8046 -0.8436 -0.0663
   79CHL1   H17 8277   4.210   3.434   8.178  0.6331  0.0560 -2.1034
   79CHL1   C13 8278   4.362   3.505   8.047 -0.1933  0.8650 -0.1062
   79CHL1   C18 8279   4.513   3.538   8.059  0.6563  0.3093 -0.5386
   79CHL1  H18A 8280   4.526   3.624   8.128 -0.9471  0.0718  0.1159
   79CHL1  H18B 8281   4.565   3.453   8.109  0.2899  0.2535 -0.2477
   79CHL1  H18C 8282   4.563   3.558   7.962  1.5395  0.3087 -0.0972
   79CHL1   C12 8283   4.330   3.399   7.941  0.6445  0.8000  0.1348
   79CHL1  H12A 8284   4.373   3.299   7.960 -1.7137  0.1981  3.0572
   79CHL1  H12B 8285   4.219   3.391   7.944  0.7373 -0.5703  0.7553
   79CHL1   C11 8286   4.382   3.438   7.799  0.2409  0.1387 -0.2488
   79CHL1  H11A 8287   4.492   3.424   7.805  0.1769  0.1826  1.1900
   79CHL1  H11B 8288   4.345   3.351   7.740 -0.2154 -0.9187  1.5326
   79CHL1    C9 8289   4.331   3.585   7.763  0.4709  0.7691  0.0180
   79CHL1    H9 8290   4.222   3.569   7.750  0.1966  3.0468 -0.8673
   79CHL1   C10 8291   4.390   3.640   7.627  1.1744  0.2059  0.8742
   79CHL1   C19 8292   4.544   3.620   7.635  0.7282 -0.2432 -0.0483
   79CHL1  H19A 8293   4.560   3.512   7.613 -0.8283 -0.9853  2.0279
   79CHL1  H19B 8294   4.595   3.681   7.558 -3.2628  1.8298 -1.2933
   79CHL1  H19C 8295   4.584   3.631   7.738 -1.0568  1.1784  0.5487
   79CHL1    C1 8296   4.319   3.557   7.509 -0.7368 -0.0870 -0.4230
   79CHL1   H1A 8297   4.359   3.454   7.520  0.5874  0.3328 -1.1105
   79CHL1   H1B 8298   4.208   3.553   7.517 -0.5856 -0.5817  2.5775
   79CHL1    C2 8299   4.354   3.609   7.361  0.4190  0.3031 -0.2469
   79CHL1   H2A 8300   4.298   3.551   7.284 -0.9594  1.2545 -0.0144
   79CHL1   H2B 8301   4.462   3.593   7.341  0.7012  2.2969 -0.4585
   79CHL1   C20 8302   4.393   3.395   8.292 -0.7354 -0.4566 -0.2110
   79CHL1   H20 8303   4.493   3.442   8.298 -0.6651 -0.6278 -0.0369
   79CHL1   C21 8304   4.404   3.248   8.235  0.0646  0.0520 -0.8235
   79CHL1  H21A 8305   4.305   3.203   8.259 -0.1496  1.1204  0.4024
   79CHL1  H21B 8306   4.482   3.192   8.292 -1.8631  0.6563  2.6982
   79CHL1  H21C 8307   4.429   3.257   8.128 -0.6904 -3.0871 -1.3627
   79CHL1   C22 8308   4.334   3.395   8.438  0.1014  0.8525 -0.5035
   79CHL1  H22A 8309   4.327   3.500   8.473  2.0679  0.0823  2.5820
   79CHL1  H22B 8310   4.230   3.356   8.439  0.4161 -0.0789 -1.8811
   79CHL1   C23 8311   4.440   3.324   8.529 -0.6364 -0.0728  0.1963
   79CHL1  H23A 8312   4.452   3.217   8.501 -0.1620 -0.0861  0.4472
   79CHL1  H23B 8313   4.533   3.377   8.500 -0.9978  0.0012 -0.8460
   79CHL1   C24 8314   4.411   3.337   8.674  0.0524 -0.0589 -0.2895
   79CHL1  H24A 8315   4.403   3.443   8.705  0.3878  0.2209 -1.1448
   79CHL1  H24B 8316   4.320   3.276   8.696  1.1405 -1.1743  1.4169
   79CHL1   C25 8317   4.526   3.288   8.761 -0.0741 -0.1742 -0.1761
   79CHL1   H25 8318   4.618   3.348   8.739  0.5315 -1.1709 -0.4140
   79CHL1   C26 8319   4.497   3.294   8.915  1.1190  0.7025  0.2566
   79CHL1  H26A 8320   4.587   3.297   8.979 -1.0383  2.1878  3.4868
   79CHL1  H26B 8321   4.432   3.383   8.933 -2.0334 -1.3101 -0.3232
   79CHL1  H26C 8322   4.438   3.205   8.945  1.0678  1.7971  3.7678
   79CHL1   C27 8323   4.567   3.142   8.728 -0.1651  0.0938 -0.3073
   79CHL1  H27A 8324   4.618   3.128   8.630  2.2320  1.1230  0.7142
   79CHL1  H27B 8325   4.648   3.117   8.800 -1.0873  0.1987  0.7940
   79CHL1  H27C 8326   4.490   3.063   8.742  0.7114 -0.4561  1.7825
   80CHL1    C3 8327   1.972   3.269   7.266 -0.0972 -0.4755 -0.5329
   80CHL1    H3 8328   1.882   3.204   7.274  0.7612 -1.4990  1.6188
   80CHL1    O3 8329   1.993   3.318   7.134 -0.9833  0.5541 -0.0911
   80CHL1   H3' 8330   2.017   3.408   7.153 -1.8623  0.1203  3.8526
   80CHL1    C4 8331   1.954   3.388   7.371 -0.3770  0.0552  0.0447
   80CHL1   H4A 8332   2.049   3.446   7.366  0.0215 -0.6571 -0.9529
   80CHL1   H4B 8333   1.878   3.464   7.345  0.2437  0.0223 -2.0714
   80CHL1    C5 8334   1.939   3.329   7.508  0.1588 -0.6607  0.1014
   80CHL1    C6 8335   1.831   3.356   7.580 -0.0473  0.0024 -0.3627
   80CHL1    H6 8336   1.753   3.417   7.530 -0.4420 -0.0818  0.1404
   80CHL1    C7 8337   1.815   3.312   7.723  0.1479  0.2486  0.0061
   80CHL1   H7A 8338   1.777   3.406   7.770 -4.1170  0.5739 -3.4557
   80CHL1   H7B 8339   1.737   3.233   7.729 -1.5134  1.7907 -0.3533
   80CHL1    C8 8340   1.946   3.260   7.785  0.1018 -0.2778  0.2366
   80CHL1    H8 8341   2.001   3.355   7.806 -0.0184 -0.3752  1.0322
   80CHL1   C14 8342   1.924   3.193   7.916  0.7946 -0.1117 -0.7058
   80CHL1   H14 8343   1.859   3.106   7.891  0.1805 -0.2243  1.1525
   80CHL1   C15 8344   1.836   3.264   8.022  0.4312 -0.4319 -0.3267
   80CHL1  H15A 8345   1.859   3.372   8.035  0.0040 -0.4254  0.4114
   80CHL1  H15B 8346   1.730   3.242   7.995  0.9618 -3.6752 -0.0888
   80CHL1   C16 8347   1.869   3.193   8.156  0.5977  0.1949 -0.2298
   80CHL1  H16A 8348   1.939   3.253   8.219 -0.6180  0.1719  1.1880
   80CHL1  H16B 8349   1.782   3.148   8.207  3.4310 -1.2164  3.9345
   80CHL1   C17 8350   1.963   3.075   8.113 -0.8272 -1.1076 -0.5201
   80CHL1   H17 8351   1.903   2.994   8.066  0.5575 -2.8299  0.5892
   80CHL1   C13 8352   2.043   3.135   7.990 -0.7033  0.5144  0.3810
   80CHL1   C18 8353   2.142   3.254   8.024  0.2107 -0.2225 -0.2365
   80CHL1  H18A 8354   2.229   3.217   8.083 -0.2545  0.9678  1.2603
   80CHL1  H18B 8355   2.180   3.304   7.932  1.8330 -0.7193  0.1230
   80CHL1  H18C 8356   2.083   3.326   8.085 -1.2847 -2.1149  0.6654
   80CHL1   C12 8357   2.100   3.028   7.897 -0.1363 -0.7358  0.5461
   80CHL1  H12A 8358   2.184   2.994   7.961 -1.2738 -0.0705  2.4603
   80CHL1  H12B 8359   2.036   2.938   7.881 -0.8584 -0.0208 -0.7270
   80CHL1   C11 8360   2.134   3.086   7.756 -0.0922 -0.3051 -0.8604
   80CHL1  H11A 8361   2.216   3.156   7.783  0.5925 -1.7697  1.0987
   80CHL1  H11B 8362   2.166   2.999   7.696  0.9216 -0.0415 -0.7237
   80CHL1    C9 8363   2.016   3.166   7.688  0.3749  0.3708 -0.3222
   80CHL1    H9 8364   1.930   3.098   7.670 -0.2957  1.8562 -3.2607
   80CHL1   C10 8365   2.052   3.235   7.556 -0.3982 -0.7721 -0.0850
   80CHL1   C19 8366   2.185   3.313   7.585  0.5021  0.4062 -0.2744
   80CHL1  H19A 8367   2.182   3.358   7.686  1.6648 -0.7058  0.2968
   80CHL1  H19B 8368   2.271   3.242   7.580 -0.6129 -0.9238 -1.1791
   80CHL1  H19C 8369   2.202   3.391   7.508  0.2658  1.3533  0.6114
   80CHL1    C1 8370   2.083   3.134   7.448 -0.2286 -0.1813  0.8718
   80CHL1   H1A 8371   2.180   3.086   7.473  0.7536  0.3227 -1.6296
   80CHL1   H1B 8372   2.012   3.049   7.449 -1.5276  0.8788  1.9590
   80CHL1    C2 8373   2.097   3.189   7.307  0.3210 -0.1264  0.6414
   80CHL1   H2A 8374   2.102   3.097   7.244 -1.5532  0.5006 -0.4854
   80CHL1   H2B 8375   2.184   3.256   7.289 -0.8712  1.0067 -1.3250
   80CHL1   C20 8376   2.039   3.003   8.229  0.2061 -0.4426 -0.1050
   80CHL1   H20 8377   2.144   3.039   8.228  0.7037 -1.7760  0.8773
   80CHL1   C21 8378   2.031   2.860   8.195 -0.0147 -0.5460  0.1019
   80CHL1  H21A 8379   2.098   2.801   8.261  0.9567  3.7655  3.4457
   80CHL1  H21B 8380   2.080   2.836   8.098 -0.4997 -3.3372  0.4698
   80CHL1  H21C 8381   1.926   2.829   8.211 -0.0334 -0.2212  0.6179
   80CHL1   C22 8382   1.988   3.036   8.373  0.6445  0.0423  0.3302
   80CHL1  H22A 8383   2.000   3.144   8.398  1.4407  0.2273 -0.7522
   80CHL1  H22B 8384   1.884   3.000   8.375  1.0102 -1.0108  1.3583
   80CHL1   C23 8385   2.057   2.959   8.485  0.3518  0.6548 -1.0082
   80CHL1  H23A 8386   2.045   2.850   8.469 -1.4002  0.6209  0.2617
   80CHL1  H23B 8387   2.165   2.983   8.477  0.8003  1.0442  3.5318
   80CHL1   C24 8388   2.025   3.011   8.631  0.5220  0.0513 -0.3819
   80CHL1  H24A 8389   2.060   3.117   8.637 -2.8717  1.2770  0.3374
   80CHL1  H24B 8390   1.919   3.011   8.662  1.0089  0.9578  1.3955
   80CHL1   C25 8391   2.113   2.934   8.736 -0.2636 -0.0951 -1.0300
   80CHL1   H25 8392   2.220   2.949   8.708 -0.2027  0.0276 -0.7339
   80CHL1   C26 8393   2.094   3.006   8.875 -0.1183  0.0893 -0.4621
   80CHL1  H26A 8394   1.985   3.007   8.894 -0.3886  0.2921 -1.8526
   80CHL1  H26B 8395   2.143   2.954   8.959 -0.7837 -0.3118 -0.3159
   80CHL1  H26C 8396   2.126   3.113   8.876  0.1666  0.0024  0.9734
   80CHL1   C27 8397   2.074   2.786   8.739  0.2074 -0.0231  0.2632
   80CHL1  H27A 8398   1.966   2.783   8.764 -0.0676 -0.4042 -0.8834
   80CHL1  H27B 8399   2.075   2.745   8.635 -0.5429  2.2678 -0.7183
   80CHL1  H27C 8400   2.138   2.728   8.809 -0.6619 -0.0981  1.0138
   81CHL1    C3 8401   1.185   2.025   6.845  0.5778 -0.7334  0.2709
   81CHL1    H3 8402   1.216   1.920   6.863  0.2229 -1.0643 -0.9787
   81CHL1    O3 8403   1.143   2.028   6.713  0.2321  0.2633  0.1047
   81CHL1   H3' 8404   1.119   2.121   6.710 -1.1120  0.1222  3.0500
   81CHL1    C4 8405   1.075   2.067   6.944  0.0215 -0.1789  0.9724
   81CHL1   H4A 8406   1.033   2.166   6.915 -0.5703 -0.0409  2.2512
   81CHL1   H4B 8407   0.992   1.995   6.926  0.7786 -0.3869 -2.4906
   81CHL1    C5 8408   1.140   2.065   7.076 -0.8046  0.2320  0.0442
   81CHL1    C6 8409   1.090   1.983   7.171  0.2958 -0.0590  0.8087
   81CHL1    H6 8410   1.006   1.923   7.132  1.4801 -1.9147  0.9979
   81CHL1    C7 8411   1.138   1.982   7.316 -0.8698  0.4467  0.1592
   81CHL1   H7A 8412   1.052   1.965   7.384 -2.0690  0.7383 -1.2359
   81CHL1   H7B 8413   1.192   1.886   7.332 -0.5220  0.8647  1.6809
   81CHL1    C8 8414   1.233   2.095   7.354  0.3555 -0.4110 -0.2537
   81CHL1    H8 8415   1.168   2.182   7.376 -0.4993 -1.2142  0.4132
   81CHL1   C14 8416   1.308   2.066   7.483 -0.3170 -0.3801 -0.5162
   81CHL1   H14 8417   1.380   1.983   7.467  1.7938  1.5855 -1.8497
   81CHL1   C15 8418   1.228   2.020   7.607 -0.8526  0.3346 -0.2777
   81CHL1  H15A 8419   1.145   2.091   7.626  0.5762  1.6781  1.2487
   81CHL1  H15B 8420   1.175   1.924   7.591  0.1735 -0.3361  0.2020
   81CHL1   C16 8421   1.329   2.035   7.727 -0.2399 -0.5512 -0.2496
   81CHL1  H16A 8422   1.278   2.085   7.812  1.9527  1.8389 -0.2019
   81CHL1  H16B 8423   1.350   1.931   7.759  1.8330 -0.7767 -2.0845
   81CHL1   C17 8424   1.446   2.121   7.677  0.5611  0.2637 -0.1064
   81CHL1   H17 8425   1.519   2.041   7.653 -0.9626 -1.5421  0.9777
   81CHL1   C13 8426   1.401   2.185   7.534  0.5364  1.1255  0.0653
   81CHL1   C18 8427   1.321   2.312   7.559  0.7395  0.0847 -0.1931
   81CHL1  H18A 8428   1.392   2.394   7.585  1.8248 -0.4993 -1.2152
   81CHL1  H18B 8429   1.255   2.336   7.474 -0.9413 -1.0666  0.7149
   81CHL1  H18C 8430   1.261   2.297   7.652  1.0164 -0.4597 -0.0963
   81CHL1   C12 8431   1.506   2.197   7.434  0.0026  0.0068  0.2166
   81CHL1  H12A 8432   1.583   2.277   7.436 -0.1888  0.1828  0.7760
   81CHL1  H12B 8433   1.555   2.099   7.415 -0.5201 -0.4218  1.0012
   81CHL1   C11 8434   1.432   2.227   7.294 -0.7323 -0.1334 -0.1643
   81CHL1  H11A 8435   1.387   2.328   7.292  1.6011  0.9791  0.3028
   81CHL1  H11B 8436   1.516   2.227   7.221 -0.3556  0.6380  0.2590
   81CHL1    C9 8437   1.336   2.119   7.241 -0.3582 -0.5092 -0.1601
   81CHL1    H9 8438   1.395   2.024   7.235 -1.9680 -1.5440 -0.3485
   81CHL1   C10 8439   1.268   2.154   7.109  0.2176  0.9093  0.4591
   81CHL1   C19 8440   1.208   2.298   7.108  0.4094  0.5023  0.0360
   81CHL1  H19A 8441   1.284   2.377   7.128 -0.3737  0.8415  1.9389
   81CHL1  H19B 8442   1.159   2.325   7.012  0.5772  2.0170  0.3370
   81CHL1  H19C 8443   1.138   2.301   7.195 -0.4933 -0.0482 -0.6466
   81CHL1    C1 8444   1.370   2.131   6.998  0.3974 -0.2771  0.4257
   81CHL1   H1A 8445   1.452   2.206   6.998  0.1285  0.0550 -1.1707
   81CHL1   H1B 8446   1.432   2.042   7.018  0.9292  0.3785  1.8144
   81CHL1    C2 8447   1.300   2.127   6.856 -0.2553  0.1743 -0.3957
   81CHL1   H2A 8448   1.385   2.095   6.792 -0.8826 -2.1632 -0.1348
   81CHL1   H2B 8449   1.270   2.230   6.826 -0.7853 -0.2721 -1.4578
   81CHL1   C20 8450   1.518   2.214   7.779 -0.0794 -0.4481 -0.6562
   81CHL1   H20 8451   1.448   2.284   7.830 -1.4249 -1.5088 -0.9802
   81CHL1   C21 8452   1.639   2.296   7.727  0.2848 -0.3485 -0.3090
   81CHL1  H21A 8453   1.594   2.360   7.648 -0.2272 -1.3543 -0.8546
   81CHL1  H21B 8454   1.719   2.233   7.683  3.0039  1.5354  1.6222
   81CHL1  H21C 8455   1.683   2.361   7.806  1.7237  1.1558 -2.2625
   81CHL1   C22 8456   1.574   2.119   7.893  0.0439 -0.0698  0.1188
   81CHL1  H22A 8457   1.497   2.062   7.949  0.2501  0.9936  1.5263
   81CHL1  H22B 8458   1.649   2.048   7.852  1.6196 -0.5152  3.4809
   81CHL1   C23 8459   1.650   2.202   8.007 -0.2446  0.2742  0.6225
   81CHL1  H23A 8460   1.753   2.228   7.972 -0.8398 -0.3203 -1.7453
   81CHL1  H23B 8461   1.596   2.297   8.024  2.1487  1.3543  3.0469
   81CHL1   C24 8462   1.660   2.126   8.140  0.3185 -1.0125 -0.8071
   81CHL1  H24A 8463   1.566   2.102   8.193  2.0171  0.1111  3.1360
   81CHL1  H24B 8464   1.716   2.031   8.130  2.1428  0.1622 -2.6606
   81CHL1   C25 8465   1.746   2.202   8.240  0.3546  0.6075 -0.0017
   81CHL1   H25 8466   1.840   2.221   8.183  0.7953 -0.7731  0.2318
   81CHL1   C26 8467   1.689   2.340   8.282 -0.2456 -0.0579 -0.8085
   81CHL1  H26A 8468   1.580   2.322   8.296 -0.4593  0.1275 -2.1063
   81CHL1  H26B 8469   1.730   2.379   8.378 -3.4530  0.4164  0.5184
   81CHL1  H26C 8470   1.707   2.416   8.203 -0.7669 -1.6414 -2.5221
   81CHL1   C27 8471   1.784   2.118   8.369  0.6577  0.0493  0.7243
   81CHL1  H27A 8472   1.688   2.098   8.423 -0.0771  2.0678  0.2385
   81CHL1  H27B 8473   1.851   2.031   8.353  0.6072  0.5105 -2.6510
   81CHL1  H27C 8474   1.843   2.191   8.428  1.7908  2.2439 -2.8487
   82CHL1    C3 8475   2.257   2.504   7.121 -0.1877  0.1821 -0.9458
   82CHL1    H3 8476   2.320   2.414   7.138  0.3143  0.8342  0.8348
   82CHL1    O3 8477   2.251   2.542   6.985 -1.1244  0.4500 -0.5242
   82CHL1   H3' 8478   2.273   2.636   6.981 -1.0614  0.5110  0.6581
   82CHL1    C4 8479   2.113   2.483   7.170  0.0936 -0.2819  0.5665
   82CHL1   H4A 8480   2.055   2.576   7.153 -0.4478 -0.6869  0.1554
   82CHL1   H4B 8481   2.081   2.402   7.102 -1.2527 -1.3025  2.3544
   82CHL1    C5 8482   2.107   2.457   7.318 -0.0143 -1.1583 -0.2042
   82CHL1    C6 8483   2.037   2.356   7.371 -0.5176  0.1985 -0.4071
   82CHL1    H6 8484   1.992   2.278   7.309 -0.5338 -0.3008  0.2239
   82CHL1    C7 8485   2.039   2.326   7.518  0.1942  0.4079  0.0105
   82CHL1   H7A 8486   1.934   2.305   7.545 -0.1782  0.4784 -1.3244
   82CHL1   H7B 8487   2.110   2.242   7.538 -0.8984 -0.2434  1.3238
   82CHL1    C8 8488   2.075   2.442   7.614 -0.3822 -0.2162  0.1285
   82CHL1    H8 8489   1.984   2.506   7.617 -0.3976 -0.2642  1.0219
   82CHL1   C14 8490   2.110   2.393   7.757  0.4172 -0.0547  1.0251
   82CHL1   H14 8491   2.203   2.336   7.735  0.7710  0.8912 -0.0752
   82CHL1   C15 8492   2.012   2.295   7.826 -0.1232 -0.6198  0.2677
   82CHL1  H15A 8493   1.920   2.354   7.809 -0.3800 -0.3822  2.2130
   82CHL1  H15B 8494   2.027   2.193   7.784  1.6628 -1.3609  2.4625
   82CHL1   C16 8495   2.051   2.304   7.971  0.3766 -0.1276 -0.0750
   82CHL1  H16A 8496   1.962   2.340   8.027 -1.3546 -2.4479 -1.1489
   82CHL1  H16B 8497   2.103   2.213   8.005  3.8212  1.5393 -0.3836
   82CHL1   C17 8498   2.158   2.416   7.983 -0.0067  0.6355  1.0964
   82CHL1   H17 8499   2.253   2.360   7.972 -0.6584 -0.2065 -0.6169
   82CHL1   C13 8500   2.140   2.501   7.853  0.5911  0.1298 -0.1566
   82CHL1   C18 8501   2.025   2.603   7.878 -0.2213 -0.4830  0.5030
   82CHL1  H18A 8502   2.001   2.654   7.782  3.2634  1.3397  0.4517
   82CHL1  H18B 8503   1.931   2.568   7.925 -3.1241  4.3583 -0.9696
   82CHL1  H18C 8504   2.067   2.687   7.938  3.9326 -0.6923 -1.7117
   82CHL1   C12 8505   2.268   2.572   7.801  0.0992 -0.0054 -0.0012
   82CHL1  H12A 8506   2.302   2.657   7.864 -0.5262  1.5415 -1.6664
   82CHL1  H12B 8507   2.346   2.493   7.802  0.0637 -0.0909 -1.6533
   82CHL1   C11 8508   2.245   2.623   7.657  0.0824 -0.1608 -0.5240
   82CHL1  H11A 8509   2.155   2.688   7.668 -0.4558 -1.1906  1.6453
   82CHL1  H11B 8510   2.329   2.686   7.621  0.9550 -1.7897 -1.4532
   82CHL1    C9 8511   2.196   2.515   7.553 -0.1350 -0.1334  0.1149
   82CHL1    H9 8512   2.274   2.436   7.555 -0.9999 -1.0085  0.0437
   82CHL1   C10 8513   2.185   2.556   7.404 -0.2584 -1.0332 -0.2148
   82CHL1   C19 8514   2.114   2.697   7.405  0.1621  0.2085 -1.2175
   82CHL1  H19A 8515   2.097   2.747   7.307 -0.6397  0.2975 -1.0409
   82CHL1  H19B 8516   2.016   2.706   7.456  0.3606  2.5768 -1.1492
   82CHL1  H19C 8517   2.180   2.768   7.458  0.2279 -1.0564  0.4685
   82CHL1    C1 8518   2.325   2.587   7.340 -0.0168  0.0292  1.1128
   82CHL1   H1A 8519   2.385   2.663   7.394  1.4403 -0.2083 -0.1007
   82CHL1   H1B 8520   2.378   2.490   7.353 -0.1685 -0.1221  0.6265
   82CHL1    C2 8521   2.321   2.624   7.192  0.7421  0.4521  0.6462
   82CHL1   H2A 8522   2.425   2.641   7.156  0.8172 -0.9752  0.1474
   82CHL1   H2B 8523   2.256   2.713   7.171  1.5228  1.0119  0.5608
   82CHL1   C20 8524   2.154   2.498   8.112 -0.5564 -0.2659 -0.4550
   82CHL1   H20 8525   2.059   2.550   8.137 -1.2374 -1.6467 -0.0764
   82CHL1   C21 8526   2.271   2.599   8.118 -0.1600 -0.3079 -0.0096
   82CHL1  H21A 8527   2.230   2.685   8.062 -1.4205 -0.6240  0.3899
   82CHL1  H21B 8528   2.361   2.562   8.064  0.3347  0.2918  0.3909
   82CHL1  H21C 8529   2.300   2.619   8.224 -1.1409  0.9016  0.0441
   82CHL1   C22 8530   2.199   2.405   8.232  0.1639 -0.8252 -0.2855
   82CHL1  H22A 8531   2.163   2.302   8.210 -1.0445 -0.2642 -1.0628
   82CHL1  H22B 8532   2.306   2.400   8.263 -0.0657 -0.6440  0.5545
   82CHL1   C23 8533   2.117   2.454   8.355 -0.1274 -0.1027 -0.2403
   82CHL1  H23A 8534   2.160   2.548   8.395 -0.1035 -1.9022  4.5917
   82CHL1  H23B 8535   2.011   2.475   8.332 -0.2797 -2.1585 -1.6515
   82CHL1   C24 8536   2.118   2.348   8.466 -0.3803 -0.0484 -0.7331
   82CHL1  H24A 8537   2.047   2.266   8.444  0.2212 -1.6404  2.7234
   82CHL1  H24B 8538   2.216   2.296   8.477 -0.9924 -1.1510 -0.3993
   82CHL1   C25 8539   2.076   2.401   8.604  0.1612  0.3971 -0.0644
   82CHL1   H25 8540   2.144   2.483   8.636  2.2285 -1.5574  0.7908
   82CHL1   C26 8541   1.934   2.467   8.584 -0.0473  0.2112  0.0709
   82CHL1  H26A 8542   1.875   2.390   8.529  1.4368 -1.0319  0.1330
   82CHL1  H26B 8543   1.891   2.490   8.684  1.5174  0.2494  0.7637
   82CHL1  H26C 8544   1.947   2.563   8.530  0.1144 -1.2473 -2.6897
   82CHL1   C27 8545   2.065   2.297   8.715 -0.0306 -0.0640  0.5855
   82CHL1  H27A 8546   2.006   2.210   8.678 -0.4120 -0.7780  2.7572
   82CHL1  H27B 8547   2.160   2.244   8.740 -0.4072 -0.5447  1.0152
   82CHL1  H27C 8548   2.008   2.335   8.802 -0.6867 -3.3388  1.7279
   83CHL1    C3 8549   4.889   2.559   6.798  0.3049  0.5560 -0.4223
   83CHL1    H3 8550   4.903   2.662   6.836 -0.4349  0.7874 -0.7663
   83CHL1    O3 8551   4.819   2.572   6.672 -0.9475 -0.2265  0.0576
   83CHL1   H3' 8552   4.842   2.494   6.621  1.3097  1.7288 -2.1366
   83CHL1    C4 8553   5.026   2.496   6.768  0.2915 -0.3833 -0.6777
   83CHL1   H4A 8554   5.014   2.403   6.709  1.6440 -0.0707 -1.4978
   83CHL1   H4B 8555   5.075   2.556   6.689  0.4812  1.4649  0.7688
   83CHL1    C5 8556   5.105   2.460   6.890  0.9486 -0.2063  0.1586
   83CHL1    C6 8557   5.226   2.510   6.908  0.0073 -0.1826 -0.0534
   83CHL1    H6 8558   5.271   2.570   6.826 -0.3847  0.6770  0.3435
   83CHL1    C7 8559   5.301   2.480   7.032  0.0308 -0.2943 -0.3715
   83CHL1   H7A 8560   5.408   2.453   7.015 -0.0356 -2.4133  1.9971
   83CHL1   H7B 8561   5.295   2.565   7.102  0.8614 -0.7558  0.2843
   83CHL1    C8 8562   5.243   2.371   7.117 -0.3207  0.0494  0.3160
   83CHL1    H8 8563   5.266   2.277   7.062  0.5826  0.8697 -0.7386
   83CHL1   C14 8564   5.313   2.362   7.248  0.4763 -0.2163 -0.3254
   83CHL1   H14 8565   5.290   2.454   7.306  3.0033  0.2730 -0.0065
   83CHL1   C15 8566   5.467   2.347   7.261  0.7182  0.2688  0.0686
   83CHL1  H15A 8567   5.485   2.256   7.199 -0.4381 -0.7009  1.1302
   83CHL1  H15B 8568   5.534   2.426   7.219 -0.1788  0.1064 -1.7537
   83CHL1   C16 8569   5.487   2.316   7.406  0.3145 -0.6463 -0.0273
   83CHL1  H16A 8570   5.559   2.232   7.415  3.4375  1.7490 -0.7121
   83CHL1  H16B 8571   5.534   2.400   7.461 -1.5889 -0.2582  1.0952
   83CHL1   C17 8572   5.350   2.280   7.467 -0.0144  0.3122 -0.1356
   83CHL1   H17 8573   5.324   2.376   7.516 -0.7818  1.1625 -2.1256
   83CHL1   C13 8574   5.252   2.255   7.349  0.5342 -0.1164 -0.1073
   83CHL1   C18 8575   5.269   2.112   7.298 -0.3207  0.2981  0.2386
   83CHL1  H18A 8576   5.235   2.092   7.194  1.6731 -0.5435 -0.3025
   83CHL1  H18B 8577   5.376   2.083   7.301  0.3768  2.6609  3.4244
   83CHL1  H18C 8578   5.207   2.049   7.365 -1.1410 -1.2655 -1.8661
   83CHL1   C12 8579   5.103   2.296   7.373  0.0737  0.3345  0.1541
   83CHL1  H12A 8580   5.046   2.234   7.445  1.9379 -0.8197  0.7100
   83CHL1  H12B 8581   5.102   2.398   7.417 -2.3349  0.1858  0.5629
   83CHL1   C11 8582   5.031   2.288   7.236  0.3387  0.3027  0.1708
   83CHL1  H11A 8583   5.042   2.187   7.190  1.3518  0.4230  0.1312
   83CHL1  H11B 8584   4.925   2.319   7.251  0.9762  3.0509 -0.5589
   83CHL1    C9 8585   5.092   2.371   7.125 -0.1120 -0.6118  0.1604
   83CHL1    H9 8586   5.074   2.473   7.165 -0.0810 -0.5335 -0.0245
   83CHL1   C10 8587   5.023   2.375   6.991 -0.0207  0.1057  0.5997
   83CHL1   C19 8588   5.020   2.230   6.932  0.2457 -0.4008 -0.1858
   83CHL1  H19A 8589   5.113   2.171   6.945  1.2174  1.1007 -0.0656
   83CHL1  H19B 8590   4.934   2.184   6.987 -0.9300  1.0718 -0.7059
   83CHL1  H19C 8591   4.993   2.223   6.825 -0.3549  0.8906 -0.1436
   83CHL1    C1 8592   4.880   2.427   7.022  0.3336  0.6471  0.1275
   83CHL1   H1A 8593   4.832   2.350   7.086  2.4505 -1.7001 -0.9282
   83CHL1   H1B 8594   4.885   2.521   7.081  0.6010  0.6462  0.1096
   83CHL1    C2 8595   4.807   2.469   6.887  0.4645  0.0906 -0.6791
   83CHL1   H2A 8596   4.713   2.515   6.924 -0.0483 -0.3870 -1.3767
   83CHL1   H2B 8597   4.787   2.378   6.828 -0.1899  0.0181 -0.3560
   83CHL1   C20 8598   5.352   2.171   7.575 -0.1176 -0.5921  0.0090
   83CHL1   H20 8599   5.396   2.075   7.541 -0.5805 -0.9118  0.2970
   83CHL1   C21 8600   5.214   2.133   7.639 -0.0244 -0.3566  0.5494
   83CHL1  H21A 8601   5.240   2.055   7.714  0.4328  0.8353  1.6623
   83CHL1  H21B 8602   5.149   2.077   7.568 -0.6018  0.1027  0.7080
   83CHL1  H21C 8603   5.169   2.231   7.666  0.4765  0.3493 -1.0557
   83CHL1   C22 8604   5.452   2.199   7.689 -0.2360 -0.2496  0.4118
   83CHL1  H22A 8605   5.438   2.117   7.762 -1.3512  0.1937  0.7092
   83CHL1  H22B 8606   5.551   2.195   7.639 -0.6843 -0.1657 -0.5035
   83CHL1   C23 8607   5.438   2.335   7.750  0.1710 -0.3552 -0.2353
   83CHL1  H23A 8608   5.473   2.414   7.680 -1.5568  0.9717  0.3116
   83CHL1  H23B 8609   5.335   2.369   7.777 -0.1483  0.1674 -1.9545
   83CHL1   C24 8610   5.532   2.372   7.864 -0.4081  0.3539 -0.6942
   83CHL1  H24A 8611   5.629   2.342   7.817 -1.4281 -2.0986 -1.4001
   83CHL1  H24B 8612   5.546   2.476   7.899  2.4331 -0.1665  0.0339
   83CHL1   C25 8613   5.520   2.286   7.995 -0.2745 -0.0061  0.1129
   83CHL1   H25 8614   5.517   2.181   7.959  3.1572  0.0697 -0.7647
   83CHL1   C26 8615   5.652   2.290   8.076  0.1425 -0.6269 -0.3477
   83CHL1  H26A 8616   5.627   2.359   8.160 -0.8518  0.6345 -1.6240
   83CHL1  H26B 8617   5.684   2.190   8.111  1.5342  0.2875  1.1382
   83CHL1  H26C 8618   5.729   2.343   8.016  0.0491  1.0759  0.9358
   83CHL1   C27 8619   5.397   2.317   8.083  0.8960  0.1724 -0.2930
   83CHL1  H27A 8620   5.311   2.260   8.043  1.7228 -0.5142 -1.1550
   83CHL1  H27B 8621   5.418   2.277   8.184  1.6428  0.6823 -0.2314
   83CHL1  H27C 8622   5.384   2.428   8.089 -0.1213  0.0380  0.1261
   84CHL1    C3 8623   1.331   0.399   7.014  0.4332  0.3105 -0.2326
   84CHL1    H3 8624   1.338   0.289   7.004  0.6138  0.3753 -0.9141
   84CHL1    O3 8625   1.317   0.461   6.885  0.2411 -0.1836  0.0062
   84CHL1   H3' 8626   1.316   0.556   6.900  1.5312 -0.0445 -0.6441
   84CHL1    C4 8627   1.205   0.428   7.098  0.0525 -0.0231 -0.4969
   84CHL1   H4A 8628   1.202   0.539   7.105  0.8426 -0.0529  0.6509
   84CHL1   H4B 8629   1.110   0.401   7.048 -1.4493  2.9207  0.5126
   84CHL1    C5 8630   1.229   0.369   7.243  0.1831  0.2830  0.5324
   84CHL1    C6 8631   1.146   0.269   7.286 -0.6560 -0.3257 -0.8730
   84CHL1    H6 8632   1.052   0.244   7.234 -1.6042  2.5871 -0.7236
   84CHL1    C7 8633   1.155   0.214   7.429  0.0010 -0.7508 -0.5768
   84CHL1   H7A 8634   1.056   0.225   7.478  1.2110  3.0051  1.3955
   84CHL1   H7B 8635   1.205   0.115   7.432  1.9269  0.2149  1.1749
   84CHL1    C8 8636   1.246   0.298   7.523 -0.1722 -0.2424 -0.1329
   84CHL1    H8 8637   1.192   0.391   7.551  2.7190  0.8427  2.3389
   84CHL1   C14 8638   1.271   0.219   7.650  0.3630  0.1206  0.0028
   84CHL1   H14 8639   1.326   0.127   7.622 -2.3098 -1.7339  0.4518
   84CHL1   C15 8640   1.165   0.160   7.741  0.6874  0.1267  0.8888
   84CHL1  H15A 8641   1.090   0.238   7.764 -1.6918 -2.3714  2.2004
   84CHL1  H15B 8642   1.122   0.066   7.701 -1.4998  0.9918  1.0700
   84CHL1   C16 8643   1.242   0.118   7.874  0.2776  0.6692  0.5082
   84CHL1  H16A 8644   1.166   0.132   7.954 -1.9995  3.9992 -1.9529
   84CHL1  H16B 8645   1.268   0.010   7.874  0.7737  0.7077  3.1757
   84CHL1   C17 8646   1.380   0.195   7.871  0.6896 -0.4864  0.3813
   84CHL1   H17 8647   1.452   0.111   7.861  2.4003  0.7812  1.5220
   84CHL1   C13 8648   1.369   0.290   7.742 -0.3046  0.2756 -0.3639
   84CHL1   C18 8649   1.315   0.427   7.785  0.3201  0.3370  0.1258
   84CHL1  H18A 8650   1.388   0.479   7.850 -1.9108  0.6979  2.5020
   84CHL1  H18B 8651   1.281   0.498   7.706  0.7602  2.3651  1.6847
   84CHL1  H18C 8652   1.222   0.409   7.843 -0.2711  0.9481 -0.6166
   84CHL1   C12 8653   1.507   0.303   7.672  0.7631  0.3757 -0.2308
   84CHL1  H12A 8654   1.583   0.348   7.739  0.3037  2.0302 -0.7827
   84CHL1  H12B 8655   1.541   0.199   7.651 -2.7610 -0.6917 -1.3892
   84CHL1   C11 8656   1.495   0.377   7.534 -0.2365  0.2574 -0.1378
   84CHL1  H11A 8657   1.483   0.485   7.557 -0.0118 -0.1826  2.3751
   84CHL1  H11B 8658   1.584   0.365   7.469 -0.1490  1.2595 -0.2181
   84CHL1    C9 8659   1.382   0.323   7.447  0.3096  1.1745 -0.4987
   84CHL1    H9 8660   1.415   0.222   7.415 -0.6105  0.6497  0.1646
   84CHL1   C10 8661   1.356   0.409   7.320  0.7200 -0.2824 -0.3155
   84CHL1   C19 8662   1.320   0.557   7.354  0.8370  0.7633  0.0084
   84CHL1  H19A 8663   1.225   0.561   7.411  0.3255  1.4753 -0.8714
   84CHL1  H19B 8664   1.392   0.603   7.426  0.3967  1.2118  0.1726
   84CHL1  H19C 8665   1.301   0.621   7.266 -1.9028  1.4382  0.9944
   84CHL1    C1 8666   1.472   0.390   7.219 -0.0529  0.4326 -0.7796
   84CHL1   H1A 8667   1.561   0.443   7.259 -1.8341  1.7944  1.6751
   84CHL1   H1B 8668   1.486   0.280   7.214 -0.6823  0.3393 -0.6479
   84CHL1    C2 8669   1.452   0.452   7.082 -0.1384  0.3560  0.6474
   84CHL1   H2A 8670   1.538   0.422   7.017 -0.3338  1.3051 -0.0717
   84CHL1   H2B 8671   1.462   0.562   7.087 -0.5086  0.3612  1.3343
   84CHL1   C20 8672   1.422   0.263   8.001  0.3604  0.2556 -0.2105
   84CHL1   H20 8673   1.492   0.344   7.973 -2.2696  2.9990  0.5736
   84CHL1   C21 8674   1.496   0.147   8.077  0.0186 -0.7209 -0.1316
   84CHL1  H21A 8675   1.546   0.184   8.170  0.6269  0.8376 -1.0433
   84CHL1  H21B 8676   1.578   0.101   8.018  0.6664  1.1576 -0.7693
   84CHL1  H21C 8677   1.420   0.074   8.111 -0.3114 -0.6087 -0.6192
   84CHL1   C22 8678   1.313   0.318   8.097  0.2682 -0.2979 -0.1682
   84CHL1  H22A 8679   1.250   0.391   8.041 -0.6166 -1.5058 -0.8066
   84CHL1  H22B 8680   1.252   0.234   8.135  0.4733 -1.0100 -1.3563
   84CHL1   C23 8681   1.376   0.394   8.211  0.1498  0.1006 -0.3400
   84CHL1  H23A 8682   1.452   0.329   8.260 -0.8411 -1.8750 -1.3093
   84CHL1  H23B 8683   1.424   0.481   8.162  0.1087  0.6546  0.5752
   84CHL1   C24 8684   1.274   0.426   8.318  0.3095  0.6138  0.7241
   84CHL1  H24A 8685   1.189   0.473   8.264 -0.9878  1.7539  3.5132
   84CHL1  H24B 8686   1.226   0.332   8.354  1.0355 -1.2034 -2.6157
   84CHL1   C25 8687   1.324   0.520   8.430 -0.3197 -0.1438 -0.1073
   84CHL1   H25 8688   1.391   0.461   8.496 -1.9581 -1.0057  0.8365
   84CHL1   C26 8689   1.417   0.632   8.377  0.1411 -0.6740  0.8486
   84CHL1  H26A 8690   1.513   0.585   8.344 -0.3983 -0.0276 -1.9041
   84CHL1  H26B 8691   1.364   0.694   8.301  0.0768  0.6740  1.9630
   84CHL1  H26C 8692   1.445   0.708   8.452  1.9680  1.4355 -1.7817
   84CHL1   C27 8693   1.207   0.573   8.516 -0.0970 -0.1959  0.1464
   84CHL1  H27A 8694   1.161   0.489   8.573  1.6616 -0.6700  0.9615
   84CHL1  H27B 8695   1.260   0.641   8.586  1.5893 -1.6547  0.3567
   84CHL1  H27C 8696   1.124   0.615   8.456  0.3745  2.5175  1.2741
   85CHL1    C3 8697   6.482   2.507   6.577 -0.3583  0.2804  0.7731
   85CHL1    H3 8698   6.574   2.452   6.607  0.0601 -0.1185 -1.1134
   85CHL1    O3 8699   6.462   2.491   6.431 -0.3729 -0.2638 -0.4221
   85CHL1   H3' 8700   6.419   2.406   6.416  0.7050 -0.7323 -1.0472
   85CHL1    C4 8701   6.355   2.452   6.641 -0.2343  0.1815  0.3821
   85CHL1   H4A 8702   6.276   2.512   6.592 -0.5300 -1.7378 -1.6849
   85CHL1   H4B 8703   6.318   2.352   6.610 -0.5443 -0.1519  1.7731
   85CHL1    C5 8704   6.349   2.478   6.786  0.4912 -0.3764  0.4952
   85CHL1    C6 8705   6.335   2.377   6.869 -0.7947 -0.2406  0.0223
   85CHL1    H6 8706   6.335   2.278   6.822  0.4330  1.2256 -3.3467
   85CHL1    C7 8707   6.322   2.385   7.016  0.0594 -0.5734 -0.2107
   85CHL1   H7A 8708   6.241   2.321   7.058  1.0338 -2.1215 -0.5929
   85CHL1   H7B 8709   6.419   2.353   7.060  1.1686  2.3610 -0.2921
   85CHL1    C8 8710   6.298   2.531   7.065  0.2433 -0.0444  0.0023
   85CHL1    H8 8711   6.190   2.558   7.064  0.0006 -0.9703 -1.7620
   85CHL1   C14 8712   6.345   2.540   7.212 -0.2229 -0.2009 -0.1204
   85CHL1   H14 8713   6.455   2.525   7.219 -0.4376 -2.1165 -0.1355
   85CHL1   C15 8714   6.288   2.435   7.313 -0.7677  0.0351 -0.1004
   85CHL1  H15A 8715   6.182   2.411   7.287 -0.7148 -0.2737 -0.0396
   85CHL1  H15B 8716   6.346   2.342   7.332 -0.0450  0.8604  2.1481
   85CHL1   C16 8717   6.309   2.516   7.445  0.5736  0.5866  0.2389
   85CHL1  H16A 8718   6.205   2.527   7.484 -0.0918 -0.7802 -1.0085
   85CHL1  H16B 8719   6.371   2.463   7.519 -0.3376 -0.8965 -0.0041
   85CHL1   C17 8720   6.377   2.655   7.417  0.3901  0.1589 -0.5189
   85CHL1   H17 8721   6.484   2.638   7.396 -0.0532  1.0924 -4.2852
   85CHL1   C13 8722   6.321   2.685   7.276 -0.1352 -0.0859 -0.0196
   85CHL1   C18 8723   6.169   2.721   7.276  0.1747  0.2604 -0.6240
   85CHL1  H18A 8724   6.106   2.641   7.320 -0.7483  0.5817 -1.3240
   85CHL1  H18B 8725   6.146   2.813   7.334 -0.0847 -0.0536 -0.2259
   85CHL1  H18C 8726   6.135   2.747   7.173 -0.5115 -1.7114 -0.9247
   85CHL1   C12 8727   6.405   2.783   7.188  0.1072  0.0534  0.1610
   85CHL1  H12A 8728   6.380   2.884   7.228 -1.0542 -0.6614  1.3245
   85CHL1  H12B 8729   6.511   2.756   7.200  0.3247  0.2398 -1.1442
   85CHL1   C11 8730   6.373   2.780   7.039  0.3137 -0.0951  0.3139
   85CHL1  H11A 8731   6.272   2.825   7.032 -0.0807 -1.1710 -2.3809
   85CHL1  H11B 8732   6.447   2.844   6.987 -0.3147  1.3774  1.1607
   85CHL1    C9 8733   6.375   2.635   6.984  0.0784 -1.0875 -0.2521
   85CHL1    H9 8734   6.479   2.598   6.992  0.6731 -0.1779 -2.9344
   85CHL1   C10 8735   6.365   2.626   6.829 -0.3954 -0.0044 -0.5072
   85CHL1   C19 8736   6.243   2.709   6.788 -0.2520 -0.0258 -0.1689
   85CHL1  H19A 8737   6.150   2.667   6.834  0.4008 -2.7766 -1.1736
   85CHL1  H19B 8738   6.262   2.818   6.800 -0.7039 -0.1626  2.5413
   85CHL1  H19C 8739   6.237   2.703   6.678 -1.9974  1.5812 -0.2218
   85CHL1    C1 8740   6.496   2.674   6.758  0.0877 -0.2323  0.1471
   85CHL1   H1A 8741   6.515   2.779   6.786 -1.6925 -0.2214  1.5377
   85CHL1   H1B 8742   6.585   2.619   6.794 -1.0710 -0.7648  2.3403
   85CHL1    C2 8743   6.496   2.658   6.604 -0.4748  0.2446 -0.1613
   85CHL1   H2A 8744   6.596   2.693   6.571  0.7726 -0.5502  2.4587
   85CHL1   H2B 8745   6.418   2.712   6.546  0.3425  0.2886 -1.2579
   85CHL1   C20 8746   6.361   2.769   7.521  0.5298 -0.3707  0.3684
   85CHL1   H20 8747   6.265   2.825   7.523 -0.4739 -2.0349  0.7200
   85CHL1   C21 8748   6.482   2.858   7.505  0.2183 -0.3234 -0.3880
   85CHL1  H21A 8749   6.508   2.908   7.601 -0.9597  0.2491 -0.3432
   85CHL1  H21B 8750   6.456   2.940   7.434 -0.2857 -0.1056  0.0400
   85CHL1  H21C 8751   6.571   2.794   7.488  0.3238 -1.2334  2.9187
   85CHL1   C22 8752   6.362   2.714   7.667  0.5721 -0.1758 -0.5063
   85CHL1  H22A 8753   6.344   2.798   7.737  2.8168 -0.3125  0.3244
   85CHL1  H22B 8754   6.275   2.644   7.672  1.2489 -1.0126 -0.0267
   85CHL1   C23 8755   6.485   2.640   7.718 -0.4335  0.2106  0.0641
   85CHL1  H23A 8756   6.520   2.563   7.647 -1.0448  0.5084 -0.5685
   85CHL1  H23B 8757   6.575   2.705   7.720 -0.8238  0.8022 -0.8235
   85CHL1   C24 8758   6.475   2.570   7.855  0.2849  0.0565  0.8766
   85CHL1  H24A 8759   6.410   2.632   7.921 -0.7096  1.8910 -1.6430
   85CHL1  H24B 8760   6.422   2.475   7.829  1.2370 -0.0972 -0.6495
   85CHL1   C25 8761   6.614   2.544   7.921 -0.0169 -0.3723  0.2346
   85CHL1   H25 8762   6.677   2.500   7.841 -1.9003 -1.7383 -0.5905
   85CHL1   C26 8763   6.685   2.670   7.964  0.2573  0.1584  0.6377
   85CHL1  H26A 8764   6.622   2.733   8.031 -0.9514  0.5371 -0.8075
   85CHL1  H26B 8765   6.786   2.645   8.004  0.8906  0.5526 -0.6523
   85CHL1  H26C 8766   6.699   2.739   7.878 -0.4304  2.0120  1.9463
   85CHL1   C27 8767   6.613   2.460   8.044  0.2052 -0.4644  0.2346
   85CHL1  H27A 8768   6.718   2.430   8.064  1.3497  2.5823 -0.6227
   85CHL1  H27B 8769   6.578   2.525   8.127  0.0145  0.5210 -0.6036
   85CHL1  H27C 8770   6.548   2.370   8.032 -0.1457 -0.2602  0.5780
   86CHL1    C3 8771   1.672   1.736   6.837 -0.1104  0.6914 -0.6748
   86CHL1    H3 8772   1.663   1.627   6.861 -1.1261  0.5248 -1.7126
   86CHL1    O3 8773   1.648   1.743   6.698 -0.1266  0.3957 -0.9954
   86CHL1   H3' 8774   1.663   1.833   6.667  1.1727  0.3034 -0.6806
   86CHL1    C4 8775   1.584   1.827   6.919  0.3453 -0.0517 -0.5157
   86CHL1   H4A 8776   1.612   1.926   6.879 -0.5032 -0.1564 -1.3867
   86CHL1   H4B 8777   1.481   1.801   6.885  0.3612  1.2306 -1.6003
   86CHL1    C5 8778   1.618   1.812   7.067  0.1905 -0.1385 -0.2864
   86CHL1    C6 8779   1.520   1.760   7.140 -0.9807  0.3267 -0.6814
   86CHL1    H6 8780   1.424   1.745   7.089 -1.6138 -0.9742  0.7915
   86CHL1    C7 8781   1.528   1.724   7.288 -0.0177 -0.7823 -0.0380
   86CHL1   H7A 8782   1.446   1.771   7.347  1.9321  1.0298  1.3608
   86CHL1   H7B 8783   1.536   1.615   7.305 -0.3136 -0.8184 -0.1158
   86CHL1    C8 8784   1.656   1.787   7.350 -0.8079  0.3019  0.2220
   86CHL1    H8 8785   1.643   1.895   7.373 -0.4162  0.6947 -1.2339
   86CHL1   C14 8786   1.678   1.712   7.488  0.1025 -0.6370  0.3409
   86CHL1   H14 8787   1.684   1.605   7.460  0.2522 -0.6739  0.5086
   86CHL1   C15 8788   1.571   1.726   7.600 -0.2055 -0.1820 -0.3627
   86CHL1  H15A 8789   1.547   1.834   7.593  1.2489  0.2825  1.0462
   86CHL1  H15B 8790   1.481   1.666   7.574  0.0641 -0.6038 -0.3421
   86CHL1   C16 8791   1.640   1.686   7.728 -0.0781 -0.0135 -0.0451
   86CHL1  H16A 8792   1.627   1.764   7.806  3.0799 -0.1019  0.7240
   86CHL1  H16B 8793   1.605   1.590   7.770  2.3039 -2.0650 -2.3386
   86CHL1   C17 8794   1.789   1.665   7.690 -0.2372 -0.2008  0.0368
   86CHL1   H17 8795   1.789   1.557   7.664 -1.0467 -0.4173  0.8688
   86CHL1   C13 8796   1.814   1.745   7.556  0.0950  0.0076  0.1686
   86CHL1   C18 8797   1.818   1.893   7.605  0.5027 -0.2806  0.2079
   86CHL1  H18A 8798   1.737   1.918   7.678 -0.0905  0.9499 -0.8399
   86CHL1  H18B 8799   1.915   1.906   7.657  0.6915 -2.5004  0.5339
   86CHL1  H18C 8800   1.796   1.957   7.518  0.5756 -0.3058  0.1714
   86CHL1   C12 8801   1.930   1.707   7.470 -0.0166  0.1937  1.1060
   86CHL1  H12A 8802   2.035   1.720   7.503  0.4423  1.3987 -0.6429
   86CHL1  H12B 8803   1.930   1.598   7.448  4.6019  0.3636 -1.1040
   86CHL1   C11 8804   1.918   1.779   7.331 -0.5126  0.4188  0.6829
   86CHL1  H11A 8805   1.935   1.889   7.339 -0.5205  0.6840 -2.0054
   86CHL1  H11B 8806   1.998   1.744   7.262 -1.0580 -0.1022  0.3137
   86CHL1    C9 8807   1.776   1.756   7.261 -0.2088 -0.2208  0.7010
   86CHL1    H9 8808   1.763   1.646   7.251  1.7601 -0.5404  1.1936
   86CHL1   C10 8809   1.759   1.821   7.114  0.3315 -0.5615 -0.4801
   86CHL1   C19 8810   1.810   1.965   7.117 -0.1037 -0.0141  1.1731
   86CHL1  H19A 8811   1.915   1.981   7.150  1.1843 -0.8222 -2.1141
   86CHL1  H19B 8812   1.812   2.008   7.014  0.5129 -2.4855  0.0908
   86CHL1  H19C 8813   1.742   2.032   7.173 -1.6244 -0.5786  0.0695
   86CHL1    C1 8814   1.846   1.755   7.010 -0.4455 -0.3424 -0.8116
   86CHL1   H1A 8815   1.953   1.778   7.029 -0.4923 -1.4749  1.1262
   86CHL1   H1B 8816   1.832   1.646   7.029 -2.0335  0.2344  1.8710
   86CHL1    C2 8817   1.812   1.779   6.863 -0.0227  0.4340  0.7805
   86CHL1   H2A 8818   1.878   1.728   6.789  1.2639  2.0297  0.7650
   86CHL1   H2B 8819   1.821   1.889   6.849 -3.1525  0.7758  0.7526
   86CHL1   C20 8820   1.876   1.692   7.813  0.6727 -0.2092  0.1206
   86CHL1   H20 8821   1.868   1.799   7.843  0.4696 -1.0086  3.3409
   86CHL1   C21 8822   2.036   1.678   7.786  0.3497 -0.6389 -0.0784
   86CHL1  H21A 8823   2.062   1.742   7.699  1.9741  0.2368  1.0006
   86CHL1  H21B 8824   2.062   1.574   7.757 -1.5620 -0.9785 -0.7133
   86CHL1  H21C 8825   2.093   1.716   7.873 -0.0853 -0.6189  0.2011
   86CHL1   C22 8826   1.844   1.603   7.931 -0.8718 -0.9530  0.3176
   86CHL1  H22A 8827   1.734   1.592   7.935 -1.3093  1.7126 -1.6677
   86CHL1  H22B 8828   1.879   1.501   7.904 -0.3226 -1.0455  1.3338
   86CHL1   C23 8829   1.892   1.644   8.068 -0.4245 -0.2655 -0.0413
   86CHL1  H23A 8830   2.003   1.653   8.075 -0.4084 -0.1477 -0.4342
   86CHL1  H23B 8831   1.850   1.744   8.093 -0.9604 -0.6864  0.7717
   86CHL1   C24 8832   1.860   1.544   8.186 -0.5581  0.9506  1.0266
   86CHL1  H24A 8833   1.883   1.439   8.159 -2.7413  0.0291  2.4829
   86CHL1  H24B 8834   1.917   1.568   8.279  2.6200  1.1164 -0.8319
   86CHL1   C25 8835   1.710   1.546   8.229  0.1698 -0.0207 -0.0387
   86CHL1   H25 8836   1.648   1.555   8.137 -1.2935 -0.7899  0.8253
   86CHL1   C26 8837   1.653   1.408   8.271 -0.2477 -0.0668  0.3288
   86CHL1  H26A 8838   1.546   1.433   8.288 -0.8767 -1.7639 -0.8895
   86CHL1  H26B 8839   1.672   1.326   8.199  1.6323 -0.1815  0.9081
   86CHL1  H26C 8840   1.696   1.372   8.366 -1.0579 -2.2629 -0.0769
   86CHL1   C27 8841   1.687   1.653   8.335  0.0390  0.2290 -0.0523
   86CHL1  H27A 8842   1.727   1.746   8.289 -1.7289 -0.4361 -3.2633
   86CHL1  H27B 8843   1.579   1.666   8.359  0.1270  2.8780 -0.7902
   86CHL1  H27C 8844   1.737   1.628   8.431 -0.8243  2.3052  1.0148
   87CHL1    C3 8845   3.561   6.435   6.988 -0.3961 -0.1432 -0.3432
   87CHL1    H3 8846   3.549   6.327   7.011  3.2381 -0.5005  0.4980
   87CHL1    O3 8847   3.571   6.447   6.848 -0.0578 -0.0785 -0.3406
   87CHL1   H3' 8848   3.562   6.542   6.839  0.9488  0.3255  2.0965
   87CHL1    C4 8849   3.435   6.508   7.023  0.2251 -0.1992 -0.2158
   87CHL1   H4A 8850   3.442   6.605   6.968 -1.5544  0.1477  0.1114
   87CHL1   H4B 8851   3.358   6.447   6.972  1.6367 -1.3311 -1.0592
   87CHL1    C5 8852   3.406   6.540   7.167 -0.6941  0.4031  0.3014
   87CHL1    C6 8853   3.286   6.507   7.222  0.5204 -0.0071 -0.0106
   87CHL1    H6 8854   3.206   6.468   7.158  0.0289  1.1636 -0.1390
   87CHL1    C7 8855   3.252   6.544   7.363  0.3400  0.1496 -0.3475
   87CHL1   H7A 8856   3.161   6.607   7.371  2.0372  2.6204  0.9458
   87CHL1   H7B 8857   3.237   6.458   7.431  2.3177  1.9571  2.5857
   87CHL1    C8 8858   3.365   6.626   7.439 -0.2289 -0.0285  0.4973
   87CHL1    H8 8859   3.354   6.728   7.397 -1.4145 -0.5150 -0.4120
   87CHL1   C14 8860   3.350   6.624   7.592 -0.3536  0.4543  0.3431
   87CHL1   H14 8861   3.353   6.517   7.620  1.4996  0.5943  0.7929
   87CHL1   C15 8862   3.206   6.666   7.653  0.0141  0.0016  0.9139
   87CHL1  H15A 8863   3.192   6.762   7.597  1.0977 -0.5884 -0.4442
   87CHL1  H15B 8864   3.131   6.587   7.636 -1.1391  0.6858  2.6155
   87CHL1   C16 8865   3.241   6.678   7.797 -0.0785  0.1260 -0.2873
   87CHL1  H16A 8866   3.225   6.786   7.815  0.1769  0.2150 -0.5936
   87CHL1  H16B 8867   3.177   6.608   7.856 -0.4679  1.3204  0.7625
   87CHL1   C17 8868   3.395   6.650   7.821 -0.3252  0.0906  0.2261
   87CHL1   H17 8869   3.408   6.542   7.839  0.7890  0.4835  1.9960
   87CHL1   C13 8870   3.454   6.685   7.682 -0.1984  0.0177 -0.0359
   87CHL1   C18 8871   3.466   6.831   7.658 -0.5278  0.1624  0.1770
   87CHL1  H18A 8872   3.372   6.885   7.680 -0.0751  0.9455  0.2464
   87CHL1  H18B 8873   3.547   6.867   7.725 -1.4868  1.9815  0.4168
   87CHL1  H18C 8874   3.482   6.861   7.552  0.2631 -0.1771  0.1890
   87CHL1   C12 8875   3.582   6.613   7.640  0.5482  1.0247 -0.2345
   87CHL1  H12A 8876   3.665   6.656   7.699 -0.1266  2.4921 -0.3088
   87CHL1  H12B 8877   3.569   6.507   7.671  0.8863  1.0316 -0.0683
   87CHL1   C11 8878   3.626   6.615   7.493  0.7886 -0.5631  0.0669
   87CHL1  H11A 8879   3.658   6.721   7.481 -1.0669  0.3689  2.5312
   87CHL1  H11B 8880   3.710   6.545   7.474 -0.0130 -1.6285  0.4059
   87CHL1    C9 8881   3.505   6.570   7.400 -0.5768 -0.2233 -0.1977
   87CHL1    H9 8882   3.494   6.462   7.422  0.8746 -0.5264 -0.8446
   87CHL1   C10 8883   3.527   6.592   7.252  0.4879  0.0653  1.3856
   87CHL1   C19 8884   3.555   6.736   7.211 -0.3101 -0.2725 -0.1248
   87CHL1  H19A 8885   3.471   6.809   7.208  0.9864  1.2744 -2.0425
   87CHL1  H19B 8886   3.635   6.782   7.273 -0.1428 -0.7977  0.0471
   87CHL1  H19C 8887   3.576   6.743   7.102 -1.1105 -1.2719 -0.3570
   87CHL1    C1 8888   3.656   6.506   7.212 -0.3875 -0.2309 -0.7588
   87CHL1   H1A 8889   3.741   6.557   7.262 -1.5028 -0.8532  1.9445
   87CHL1   H1B 8890   3.638   6.408   7.263  0.0797  1.0408  2.0472
   87CHL1    C2 8891   3.678   6.495   7.061 -0.0300  0.1959 -0.6216
   87CHL1   H2A 8892   3.768   6.432   7.042  0.0949  0.0652  0.3772
   87CHL1   H2B 8893   3.696   6.588   7.004 -1.0028  1.2830  0.7761
   87CHL1   C20 8894   3.440   6.719   7.942 -0.0192  0.0113 -1.0235
   87CHL1   H20 8895   3.416   6.827   7.935  4.1747  1.3548  1.6405
   87CHL1   C21 8896   3.590   6.703   7.963  0.8808 -0.2049  0.0793
   87CHL1  H21A 8897   3.614   6.598   7.989  2.5048  0.6974  2.6696
   87CHL1  H21B 8898   3.639   6.750   8.051 -0.7970  0.4122  0.7318
   87CHL1  H21C 8899   3.643   6.738   7.872  0.8272 -0.5130 -0.0697
   87CHL1   C22 8900   3.359   6.666   8.067  1.4418 -0.3918 -0.1672
   87CHL1  H22A 8901   3.254   6.703   8.064  1.7566  0.4732 -1.3633
   87CHL1  H22B 8902   3.342   6.558   8.051 -3.2329  0.1555 -0.1017
   87CHL1   C23 8903   3.406   6.691   8.208 -0.1021 -0.0911  0.4841
   87CHL1  H23A 8904   3.508   6.647   8.214  0.2922  0.6011 -0.7996
   87CHL1  H23B 8905   3.401   6.800   8.226 -1.3661  0.1186 -0.9832
   87CHL1   C24 8906   3.317   6.632   8.324  0.0031 -0.4109 -0.2889
   87CHL1  H24A 8907   3.210   6.652   8.307  0.1328 -0.5541 -1.3172
   87CHL1  H24B 8908   3.339   6.523   8.320  0.8509 -0.2196 -1.7438
   87CHL1   C25 8909   3.370   6.681   8.468 -0.2813  0.5840  0.2366
   87CHL1   H25 8910   3.479   6.660   8.471 -0.4930 -0.7068 -0.4138
   87CHL1   C26 8911   3.337   6.832   8.493 -0.5274 -0.7972 -0.7704
   87CHL1  H26A 8912   3.231   6.847   8.466 -0.3703  0.6304 -0.6616
   87CHL1  H26B 8913   3.350   6.848   8.602 -1.6249  2.3600 -1.0164
   87CHL1  H26C 8914   3.402   6.898   8.431  0.5258 -2.7722 -1.8703
   87CHL1   C27 8915   3.309   6.593   8.582 -0.3946 -0.2757  0.0485
   87CHL1  H27A 8916   3.199   6.589   8.568 -0.3117 -1.0408 -0.4656
   87CHL1  H27B 8917   3.341   6.488   8.567 -1.7126 -0.6295 -0.4494
   87CHL1  H27C 8918   3.339   6.645   8.676  1.6560  0.8308 -1.1448
   88CHL1    C3 8919   6.104   3.688   6.885  0.0939 -0.0901  1.0758
   88CHL1    H3 8920   6.136   3.584   6.907 -0.8668 -0.7322 -0.4116
   88CHL1    O3 8921   6.112   3.717   6.741 -0.2425 -0.2628  0.3174
   88CHL1   H3' 8922   6.065   3.801   6.735  1.3109  0.5901 -0.4447
   88CHL1    C4 8923   5.954   3.707   6.923  0.3044 -0.3757 -0.2234
   88CHL1   H4A 8924   5.919   3.805   6.884 -2.6520 -0.4468  1.9914
   88CHL1   H4B 8925   5.886   3.634   6.874 -1.4450  2.2709 -1.9979
   88CHL1    C5 8926   5.932   3.711   7.070 -0.1487 -0.4540 -0.4324
   88CHL1    C6 8927   5.839   3.633   7.136 -0.1708 -0.0287 -0.5058
   88CHL1    H6 8928   5.771   3.574   7.074 -0.7431  0.6558 -0.5358
   88CHL1    C7 8929   5.812   3.627   7.283 -0.3216 -0.2857  0.1821
   88CHL1   H7A 8930   5.702   3.620   7.297 -0.4650  1.3872  0.1603
   88CHL1   H7B 8931   5.864   3.540   7.326  2.1787  1.2320  0.4179
   88CHL1    C8 8932   5.882   3.754   7.349  0.0781  0.2162 -0.7179
   88CHL1    H8 8933   5.818   3.843   7.333 -2.1259 -0.6462  2.4366
   88CHL1   C14 8934   5.891   3.731   7.503 -0.0298  1.4525 -0.1952
   88CHL1   H14 8935   5.945   3.635   7.521 -2.2152 -0.1429 -1.5765
   88CHL1   C15 8936   5.755   3.704   7.578  0.3375  0.5620 -0.6093
   88CHL1  H15A 8937   5.678   3.781   7.559 -0.0831 -0.1556 -1.8846
   88CHL1  H15B 8938   5.710   3.607   7.549 -0.7038  0.6614  0.5842
   88CHL1   C16 8939   5.799   3.713   7.727 -0.6432 -0.0459 -0.5922
   88CHL1  H16A 8940   5.712   3.763   7.775 -0.7015  1.2579 -1.9948
   88CHL1  H16B 8941   5.810   3.610   7.768  1.0977 -0.1454 -1.2438
   88CHL1   C17 8942   5.935   3.782   7.738 -0.3010 -0.0688  0.3893
   88CHL1   H17 8943   6.010   3.706   7.764 -0.4529  0.8010  3.8407
   88CHL1   C13 8944   5.964   3.829   7.590 -0.3942 -0.2116 -0.1023
   88CHL1   C18 8945   5.893   3.969   7.571 -0.1081  0.3734 -0.3811
   88CHL1  H18A 8946   5.872   3.982   7.463 -0.6888 -1.1278 -0.4800
   88CHL1  H18B 8947   5.796   3.962   7.626  0.2361 -2.0310  0.0625
   88CHL1  H18C 8948   5.955   4.054   7.605  1.2614 -1.0059  0.7811
   88CHL1   C12 8949   6.110   3.831   7.539 -0.8082 -0.2801 -0.4731
   88CHL1  H12A 8950   6.172   3.905   7.595  1.3235 -1.1748 -1.5141
   88CHL1  H12B 8951   6.158   3.732   7.558 -0.0147  0.2791  0.5631
   88CHL1   C11 8952   6.115   3.861   7.391 -0.3447 -0.0111  0.1273
   88CHL1  H11A 8953   6.080   3.966   7.375  0.8841  0.5846  1.2330
   88CHL1  H11B 8954   6.223   3.863   7.363 -0.4504  1.5150 -0.2633
   88CHL1    C9 8955   6.026   3.770   7.299  0.0583 -0.6697  0.2802
   88CHL1    H9 8956   6.068   3.668   7.304 -0.8172 -1.0900 -0.4353
   88CHL1   C10 8957   6.029   3.813   7.143  0.4328  0.0882 -0.2587
   88CHL1   C19 8958   5.980   3.961   7.126  0.2089 -0.1496  0.5359
   88CHL1  H19A 8959   6.043   4.030   7.187 -0.2416 -0.6423  1.5721
   88CHL1  H19B 8960   5.981   3.989   7.018  0.1753  1.7701  0.9891
   88CHL1  H19C 8961   5.886   3.986   7.180  1.3426  1.9656  1.6656
   88CHL1    C1 8962   6.180   3.798   7.097  0.7778  0.5168 -0.1875
   88CHL1   H1A 8963   6.248   3.875   7.138  0.8307 -0.4153  1.5356
   88CHL1   H1B 8964   6.213   3.699   7.135 -1.6559 -0.0017  0.7221
   88CHL1    C2 8965   6.197   3.792   6.946  0.1305  0.4310  0.5480
   88CHL1   H2A 8966   6.299   3.764   6.912  0.6271  0.0654  2.2020
   88CHL1   H2B 8967   6.175   3.897   6.916  0.1760  0.1911 -0.3402
   88CHL1   C20 8968   5.936   3.878   7.857  0.5161  0.1834 -0.7254
   88CHL1   H20 8969   5.861   3.953   7.825 -0.9086 -0.5709  0.7093
   88CHL1   C21 8970   6.071   3.947   7.872  0.6974  1.1153 -0.0064
   88CHL1  H21A 8971   6.153   3.877   7.899  0.8127  0.2819 -2.2738
   88CHL1  H21B 8972   6.055   4.015   7.958 -0.4782 -0.5022  1.1126
   88CHL1  H21C 8973   6.101   4.009   7.784  2.0566  1.6179  0.7668
   88CHL1   C22 8974   5.890   3.807   7.988  0.2314  0.7750 -0.5799
   88CHL1  H22A 8975   5.925   3.877   8.066  2.3307  3.0456 -3.3329
   88CHL1  H22B 8976   5.780   3.788   7.989  0.5673 -1.5845  1.5750
   88CHL1   C23 8977   5.951   3.670   8.030 -0.0360  0.1281 -0.2227
   88CHL1  H23A 8978   5.896   3.588   7.979 -0.3436 -1.1248  1.9965
   88CHL1  H23B 8979   6.059   3.670   8.006 -0.5074 -0.0552 -2.6084
   88CHL1   C24 8980   5.930   3.643   8.183  0.4792  0.1490  0.2943
   88CHL1  H24A 8981   5.964   3.725   8.249 -0.4504  0.5636  0.2772
   88CHL1  H24B 8982   5.820   3.644   8.196  0.0632 -4.9390 -0.7652
   88CHL1   C25 8983   5.983   3.507   8.237  0.4400 -0.1675  0.4736
   88CHL1   H25 8984   6.091   3.517   8.214  0.4476  0.7586  0.8574
   88CHL1   C26 8985   5.949   3.499   8.382  0.2476 -0.9204 -0.4768
   88CHL1  H26A 8986   5.961   3.398   8.426 -0.6451 -0.6779  0.3517
   88CHL1  H26B 8987   6.018   3.562   8.442 -1.2692  0.4217 -0.0858
   88CHL1  H26C 8988   5.845   3.534   8.401  0.7552  0.2600  0.2404
   88CHL1   C27 8989   5.932   3.379   8.156 -0.6114 -0.8941  0.0167
   88CHL1  H27A 8990   5.961   3.371   8.049 -1.1250 -4.2755  0.0164
   88CHL1  H27B 8991   5.972   3.291   8.211  1.8400 -0.1477 -0.4384
   88CHL1  H27C 8992   5.821   3.374   8.163 -0.4528 -2.5263  2.6643
   89CHL1    C3 8993   1.815   0.714   6.877  0.2096  0.0412  0.7201
   89CHL1    H3 8994   1.752   0.624   6.890 -0.3664  0.5461  1.5854
   89CHL1    O3 8995   1.817   0.757   6.740  0.0067  0.5219  0.2034
   89CHL1   H3' 8996   1.738   0.717   6.701 -1.3887  2.9764  0.2878
   89CHL1    C4 8997   1.765   0.837   6.968 -0.3685  0.3281  0.0917
   89CHL1   H4A 8998   1.838   0.920   6.956  0.9655 -0.8962 -0.6231
   89CHL1   H4B 8999   1.673   0.890   6.936 -0.5117 -1.3787 -2.6246
   89CHL1    C5 9000   1.754   0.794   7.112  0.4062 -0.7730 -0.3379
   89CHL1    C6 9001   1.633   0.802   7.174 -0.0508  1.0066  0.5069
   89CHL1    H6 9002   1.545   0.834   7.117 -0.0582 -2.2727 -1.5294
   89CHL1    C7 9003   1.621   0.758   7.312  0.1893  0.2466 -0.0143
   89CHL1   H7A 9004   1.565   0.840   7.363  0.0390 -0.6126  1.2437
   89CHL1   H7B 9005   1.555   0.669   7.318  0.0109  0.3006 -1.0188
   89CHL1    C8 9006   1.753   0.739   7.390  0.3715 -1.3967  0.1212
   89CHL1    H8 9007   1.802   0.838   7.404  0.1376 -1.2889  0.1685
   89CHL1   C14 9008   1.732   0.671   7.522 -0.5327 -0.1202  0.0214
   89CHL1   H14 9009   1.688   0.575   7.489 -2.0083  1.3350 -2.6441
   89CHL1   C15 9010   1.630   0.734   7.617  0.5279 -0.2413 -0.4147
   89CHL1  H15A 9011   1.639   0.844   7.605  0.6292 -0.1575  0.4285
   89CHL1  H15B 9012   1.531   0.691   7.592  1.3460 -2.7096  0.3514
   89CHL1   C16 9013   1.663   0.676   7.755  0.2318  0.6814  0.2646
   89CHL1  H16A 9014   1.678   0.753   7.834  2.1945 -0.0694  0.6785
   89CHL1  H16B 9015   1.578   0.610   7.783 -0.0326  0.1523 -1.6639
   89CHL1   C17 9016   1.794   0.590   7.735 -0.3137 -0.5508  0.0834
   89CHL1   H17 9017   1.766   0.486   7.707  0.0746 -0.9989  1.2815
   89CHL1   C13 9018   1.856   0.653   7.610 -0.4005 -0.9274 -0.2418
   89CHL1   C18 9019   1.924   0.790   7.641 -0.5159  0.3642 -0.7003
   89CHL1  H18A 9020   1.951   0.844   7.548  1.8288 -1.0466 -0.9341
   89CHL1  H18B 9021   1.849   0.847   7.700 -2.2807 -1.4185 -1.0957
   89CHL1  H18C 9022   2.017   0.768   7.699 -1.2767  0.9656  0.7975
   89CHL1   C12 9023   1.946   0.561   7.528 -0.3533  0.5214 -0.0449
   89CHL1  H12A 9024   2.044   0.551   7.579 -0.5892 -1.0135  0.1577
   89CHL1  H12B 9025   1.900   0.460   7.525 -1.7598  1.0323  2.0171
   89CHL1   C11 9026   1.979   0.617   7.388  0.0033  0.1350 -0.5265
   89CHL1  H11A 9027   2.032   0.713   7.403  0.8243 -0.0108 -2.2247
   89CHL1  H11B 9028   2.045   0.541   7.340 -1.2317 -2.0971  1.1201
   89CHL1    C9 9029   1.853   0.659   7.297  0.3770  0.7505 -0.0586
   89CHL1    H9 9030   1.803   0.564   7.268  1.0321  0.6955 -1.0544
   89CHL1   C10 9031   1.885   0.739   7.165 -0.0934  0.1077 -0.2390
   89CHL1   C19 9032   1.970   0.864   7.197  0.0347  0.3623  0.3280
   89CHL1  H19A 9033   2.064   0.834   7.248 -0.3893  1.1146  1.6017
   89CHL1  H19B 9034   1.994   0.913   7.100  1.1400 -0.6134  0.0843
   89CHL1  H19C 9035   1.906   0.931   7.258 -0.4088  0.4028 -0.1749
   89CHL1    C1 9036   1.956   0.641   7.073  0.3489  0.0474  0.3857
   89CHL1   H1A 9037   2.061   0.629   7.109  0.1577 -0.4521  0.7960
   89CHL1   H1B 9038   1.918   0.537   7.086  2.4059 -0.8200 -0.0581
   89CHL1    C2 9039   1.953   0.682   6.926  0.5443  0.4985  0.0955
   89CHL1   H2A 9040   1.994   0.592   6.874 -0.3973 -1.4072  2.4513
   89CHL1   H2B 9041   2.016   0.772   6.909 -0.5426  1.5294  1.3078
   89CHL1   C20 9042   1.882   0.581   7.863  0.0976 -0.3762 -0.3672
   89CHL1   H20 9043   1.916   0.682   7.896  2.7074 -1.4097  0.4111
   89CHL1   C21 9044   2.012   0.500   7.841  0.2392  0.0799 -0.0719
   89CHL1  H21A 9045   2.089   0.539   7.771  1.2719 -2.2994 -0.3398
   89CHL1  H21B 9046   1.988   0.402   7.796 -1.0932  1.4812 -2.6784
   89CHL1  H21C 9047   2.061   0.484   7.939 -1.2676  3.0663  1.3113
   89CHL1   C22 9048   1.792   0.530   7.976  0.0655 -0.3001  0.4102
   89CHL1  H22A 9049   1.701   0.592   7.993 -0.3564  0.2206 -2.9144
   89CHL1  H22B 9050   1.747   0.435   7.939 -1.9499  1.1088 -1.0186
   89CHL1   C23 9051   1.863   0.507   8.104  0.7389 -0.1385 -0.8878
   89CHL1  H23A 9052   1.917   0.410   8.100  1.1240 -0.1477  2.2106
   89CHL1  H23B 9053   1.922   0.596   8.135 -0.8428  0.3521  0.8896
   89CHL1   C24 9054   1.765   0.473   8.222  0.1080  0.2838  0.6173
   89CHL1  H24A 9055   1.712   0.568   8.244 -0.5283  0.3974 -1.2203
   89CHL1  H24B 9056   1.696   0.389   8.198 -0.4112  1.5057 -2.5888
   89CHL1   C25 9057   1.845   0.430   8.349  0.2920 -0.7979  0.4009
   89CHL1   H25 9058   1.927   0.505   8.360 -0.4275  0.1167 -0.3144
   89CHL1   C26 9059   1.759   0.436   8.477  0.3085 -0.4768 -0.6712
   89CHL1  H26A 9060   1.815   0.407   8.569 -3.5460 -0.1224  2.0126
   89CHL1  H26B 9061   1.715   0.535   8.502 -1.0030 -0.7317 -1.8743
   89CHL1  H26C 9062   1.678   0.360   8.469  0.1739 -0.5589  1.0647
   89CHL1   C27 9063   1.908   0.292   8.340 -0.0400  0.8516  0.2377
   89CHL1  H27A 9064   1.933   0.259   8.443 -0.5262 -1.2174 -0.2727
   89CHL1  H27B 9065   1.823   0.232   8.301 -0.3959  1.0248  0.7352
   89CHL1  H27C 9066   1.989   0.289   8.263 -0.2278 -1.2578  0.0739
   90CHL1    C3 9067   2.741   3.533   7.008 -0.1437  1.1240 -0.1874
   90CHL1    H3 9068   2.852   3.537   7.017 -0.1036  0.0502 -0.1466
   90CHL1    O3 9069   2.720   3.521   6.877 -0.4356  0.1918  0.0515
   90CHL1   H3' 9070   2.628   3.546   6.862 -1.2673 -3.3467 -2.0197
   90CHL1    C4 9071   2.666   3.419   7.075  0.8444  0.1877  0.8992
   90CHL1   H4A 9072   2.563   3.424   7.034  1.2190  2.7000  0.1021
   90CHL1   H4B 9073   2.704   3.324   7.032 -0.9578  0.8359 -2.4986
   90CHL1    C5 9074   2.663   3.422   7.223  0.5532  0.3470  0.1298
   90CHL1    C6 9075   2.699   3.319   7.291 -0.3407  0.6491 -0.0344
   90CHL1    H6 9076   2.729   3.226   7.239 -1.4198 -0.2383  0.8679
   90CHL1    C7 9077   2.701   3.310   7.439  0.2209  0.0160  0.2528
   90CHL1   H7A 9078   2.646   3.222   7.478  1.5631  0.7250  4.2414
   90CHL1   H7B 9079   2.804   3.312   7.481  1.1636  1.6378 -1.8843
   90CHL1    C8 9080   2.620   3.426   7.500 -0.2966 -0.3904 -1.1868
   90CHL1    H8 9081   2.511   3.412   7.483 -0.8234  0.9091  0.8727
   90CHL1   C14 9082   2.647   3.442   7.650  0.9050  1.1002 -0.0032
   90CHL1   H14 9083   2.753   3.468   7.668  1.3815  1.1488 -2.5523
   90CHL1   C15 9084   2.646   3.311   7.728 -0.0835 -0.2492  0.0487
   90CHL1  H15A 9085   2.574   3.239   7.683 -1.1531 -0.3049  1.7706
   90CHL1  H15B 9086   2.749   3.269   7.733  0.5524  1.0143 -1.4510
   90CHL1   C16 9087   2.602   3.351   7.874  0.1445  0.2752  0.1489
   90CHL1  H16A 9088   2.500   3.313   7.894  0.2155 -1.8254 -2.7254
   90CHL1  H16B 9089   2.674   3.308   7.946  1.0137  0.3184 -0.6693
   90CHL1   C17 9090   2.597   3.509   7.868  0.3751  0.0853 -0.2891
   90CHL1   H17 9091   2.701   3.545   7.882  0.0431  1.3010 -0.7566
   90CHL1   C13 9092   2.561   3.542   7.719  0.0525  0.0795  0.3212
   90CHL1   C18 9093   2.412   3.509   7.689  0.2875  0.1251  0.7145
   90CHL1  H18A 9094   2.393   3.402   7.712  0.0495  0.3986  1.8612
   90CHL1  H18B 9095   2.341   3.561   7.757  0.6405  0.2021  1.0297
   90CHL1  H18C 9096   2.381   3.534   7.586 -1.8832 -0.0470  1.2774
   90CHL1   C12 9097   2.599   3.677   7.667 -0.8506 -0.8616  0.3305
   90CHL1  H12A 9098   2.553   3.765   7.716  0.1328 -0.7124  1.0279
   90CHL1  H12B 9099   2.709   3.691   7.674 -0.6546 -0.8053 -2.1307
   90CHL1   C11 9100   2.580   3.687   7.513 -0.2939  0.0745 -0.2358
   90CHL1  H11A 9101   2.472   3.673   7.488 -0.1191 -2.5616  0.1637
   90CHL1  H11B 9102   2.615   3.785   7.476 -0.3588 -0.0342 -0.5934
   90CHL1    C9 9103   2.656   3.563   7.440  0.6713  0.0321 -0.2506
   90CHL1    H9 9104   2.765   3.576   7.454  0.5797 -0.4742  1.0493
   90CHL1   C10 9105   2.623   3.553   7.284 -0.3979  0.1313 -0.3610
   90CHL1   C19 9106   2.466   3.569   7.267 -0.5522 -0.0595  0.2724
   90CHL1  H19A 9107   2.435   3.676   7.272  1.0620  0.4317  0.3857
   90CHL1  H19B 9108   2.437   3.537   7.165  0.5974  0.1508 -0.1342
   90CHL1  H19C 9109   2.411   3.500   7.334 -0.6485  0.2049  0.4677
   90CHL1    C1 9110   2.706   3.669   7.221 -0.4738  0.0483  1.5412
   90CHL1   H1A 9111   2.664   3.767   7.252  0.6469  0.1362  2.8834
   90CHL1   H1B 9112   2.812   3.666   7.253 -0.1420 -0.3081  0.4568
   90CHL1    C2 9113   2.704   3.668   7.066 -0.0009 -0.4308  0.1084
   90CHL1   H2A 9114   2.765   3.751   7.024 -0.5082 -0.2408 -0.2633
   90CHL1   H2B 9115   2.596   3.685   7.044 -0.3084  0.4521  2.0800
   90CHL1   C20 9116   2.501   3.562   7.980 -0.4735 -0.4720  0.5731
   90CHL1   H20 9117   2.403   3.523   7.946 -0.2053 -0.3516 -0.3735
   90CHL1   C21 9118   2.478   3.716   7.983 -0.1221 -0.4395  0.1074
   90CHL1  H21A 9119   2.403   3.737   8.063  0.4263  1.6723  0.1281
   90CHL1  H21B 9120   2.421   3.752   7.894 -1.4926  1.0776  1.5295
   90CHL1  H21C 9121   2.570   3.776   8.001 -0.0717 -0.4898  0.0153
   90CHL1   C22 9122   2.529   3.507   8.114 -0.3817 -0.8442  0.0389
   90CHL1  H22A 9123   2.560   3.400   8.110  0.4670 -0.5964 -0.0592
   90CHL1  H22B 9124   2.610   3.567   8.160 -1.5571  0.8181  0.0122
   90CHL1   C23 9125   2.415   3.518   8.206  0.1560  0.3450 -0.4455
   90CHL1  H23A 9126   2.388   3.623   8.227  1.9927  1.3523 -2.7073
   90CHL1  H23B 9127   2.327   3.471   8.156  1.3883  0.8107 -3.1942
   90CHL1   C24 9128   2.429   3.433   8.335  0.3663  0.2878 -0.0403
   90CHL1  H24A 9129   2.454   3.330   8.301  2.9008  1.0966 -0.8943
   90CHL1  H24B 9130   2.517   3.484   8.380 -0.3813  1.0954  0.5315
   90CHL1   C25 9131   2.319   3.436   8.440  0.9622 -0.1356 -0.2611
   90CHL1   H25 9132   2.353   3.380   8.529  0.6362 -0.8947 -0.6036
   90CHL1   C26 9133   2.284   3.577   8.479  0.2059  0.1702 -0.2267
   90CHL1  H26A 9134   2.212   3.590   8.562  1.2668  1.3678  0.5405
   90CHL1  H26B 9135   2.366   3.645   8.511  0.8659 -1.7902  2.5429
   90CHL1  H26C 9136   2.243   3.631   8.390  1.1474  1.0063 -0.1730
   90CHL1   C27 9137   2.196   3.361   8.386 -0.1104  0.0724 -0.1806
   90CHL1  H27A 9138   2.122   3.347   8.468 -0.3456 -1.0972 -0.5703
   90CHL1  H27B 9139   2.154   3.412   8.297  1.9892 -0.3377 -1.4871
   90CHL1  H27C 9140   2.227   3.258   8.356 -0.4291 -1.0270  2.8755
   91CHL1    C3 9141   3.424   4.986   7.247  0.3179 -0.5370 -0.0247
   91CHL1    H3 9142   3.423   4.881   7.285  1.4993 -0.0991  1.2984
   91CHL1    O3 9143   3.424   4.966   7.106  0.7145  0.1282 -0.1897
   91CHL1   H3' 9144   3.436   5.054   7.070 -2.6591  0.6704 -0.3031
   91CHL1    C4 9145   3.313   5.086   7.294 -0.3321  0.3404 -0.4812
   91CHL1   H4A 9146   3.319   5.184   7.242 -1.7852 -0.2642 -1.9076
   91CHL1   H4B 9147   3.220   5.044   7.250 -1.1670 -0.0311  1.5236
   91CHL1    C5 9148   3.309   5.106   7.445  0.2952 -0.8978  0.3603
   91CHL1    C6 9149   3.206   5.075   7.523 -0.2216 -1.3442 -0.1078
   91CHL1    H6 9150   3.122   5.024   7.472  0.2174 -2.0936 -0.0954
   91CHL1    C7 9151   3.201   5.103   7.670  0.2371  0.2222 -0.1249
   91CHL1   H7A 9152   3.101   5.142   7.698  0.0519 -0.8583  0.8062
   91CHL1   H7B 9153   3.230   5.017   7.734 -1.3152  0.6809  1.2509
   91CHL1    C8 9154   3.314   5.211   7.708  0.2224 -0.1035  0.2663
   91CHL1    H8 9155   3.277   5.306   7.664 -3.3551  0.1694  3.3241
   91CHL1   C14 9156   3.318   5.214   7.863 -0.3921  0.0201 -0.2225
   91CHL1   H14 9157   3.360   5.116   7.894  0.7441  0.1812 -1.1859
   91CHL1   C15 9158   3.191   5.228   7.942  0.2476 -0.5874  0.4155
   91CHL1  H15A 9159   3.120   5.295   7.890  1.4985  0.5187  0.0757
   91CHL1  H15B 9160   3.147   5.126   7.953  1.1229 -0.9030  1.2309
   91CHL1   C16 9161   3.234   5.274   8.082 -0.4865 -0.1060 -0.5936
   91CHL1  H16A 9162   3.164   5.359   8.100 -0.7729 -0.4925  0.1122
   91CHL1  H16B 9163   3.223   5.199   8.162  2.5477  0.5813  0.5786
   91CHL1   C17 9164   3.382   5.313   8.069 -0.9141  1.0254  0.2983
   91CHL1   H17 9165   3.436   5.228   8.117 -3.1795 -0.8762 -0.3133
   91CHL1   C13 9166   3.413   5.319   7.919 -0.2062  0.2214  0.5793
   91CHL1   C18 9167   3.381   5.463   7.864  0.1697  0.0889  0.6696
   91CHL1  H18A 9168   3.446   5.545   7.902  0.3371  0.5670 -0.6086
   91CHL1  H18B 9169   3.389   5.470   7.754 -0.2544 -1.8166  0.4861
   91CHL1  H18C 9170   3.281   5.490   7.904 -0.6286  0.8310 -1.6408
   91CHL1   C12 9171   3.552   5.261   7.883  0.2753  0.6665  0.6981
   91CHL1  H12A 9172   3.634   5.331   7.914  1.8498 -1.3382  1.2705
   91CHL1  H12B 9173   3.578   5.160   7.920  0.6541  0.9330  1.1691
   91CHL1   C11 9174   3.563   5.249   7.720  0.2421 -0.3836 -0.0563
   91CHL1  H11A 9175   3.577   5.354   7.688 -1.9878  0.2236  0.7322
   91CHL1  H11B 9176   3.654   5.192   7.692 -0.7097 -2.2345  0.4201
   91CHL1    C9 9177   3.447   5.173   7.649 -0.2123  0.3361  0.0029
   91CHL1    H9 9178   3.466   5.071   7.687 -0.1259  0.7255  1.0461
   91CHL1   C10 9179   3.449   5.162   7.494 -0.0308 -0.5415  0.1160
   91CHL1   C19 9180   3.484   5.309   7.437 -0.1663 -0.6312 -0.5462
   91CHL1  H19A 9181   3.493   5.309   7.326  0.6776 -3.4727 -0.5586
   91CHL1  H19B 9182   3.406   5.377   7.477  0.8046  1.1579 -1.5383
   91CHL1  H19C 9183   3.583   5.337   7.479 -0.8831  0.0763  0.7076
   91CHL1    C1 9184   3.566   5.068   7.443  0.7662  0.0705 -0.2094
   91CHL1   H1A 9185   3.664   5.106   7.476  1.2970 -2.3936  1.3232
   91CHL1   H1B 9186   3.551   4.967   7.488  0.3689  0.6439  0.9792
   91CHL1    C2 9187   3.557   5.042   7.288 -0.4668  0.6280 -0.3497
   91CHL1   H2A 9188   3.625   4.960   7.256 -0.1990 -0.0361  1.7591
   91CHL1   H2B 9189   3.585   5.140   7.243  0.1844  0.1044 -1.1266
   91CHL1   C20 9190   3.409   5.438   8.156 -0.3117 -0.3028 -0.4557
   91CHL1   H20 9191   3.329   5.510   8.128 -0.8489 -2.0767 -4.0299
   91CHL1   C21 9192   3.558   5.465   8.139  0.1483 -0.1492 -0.1717
   91CHL1  H21A 9193   3.568   5.512   8.038 -1.4199 -0.1583 -0.3528
   91CHL1  H21B 9194   3.619   5.372   8.139 -0.2532 -0.4263 -0.9525
   91CHL1  H21C 9195   3.596   5.532   8.219  0.3157  1.0047 -1.1936
   91CHL1   C22 9196   3.369   5.409   8.297  0.5613 -0.7543 -0.2332
   91CHL1  H22A 9197   3.267   5.366   8.303  0.9327 -1.5805  0.1746
   91CHL1  H22B 9198   3.435   5.338   8.351 -1.3199 -0.0055  3.3572
   91CHL1   C23 9199   3.354   5.531   8.393  1.0280  0.2724  0.4882
   91CHL1  H23A 9200   3.449   5.587   8.383  1.5481 -0.6419  0.1759
   91CHL1  H23B 9201   3.280   5.607   8.363  2.8134  1.9776  0.2264
   91CHL1   C24 9202   3.331   5.484   8.538  0.1163 -0.3852 -0.4407
   91CHL1  H24A 9203   3.233   5.433   8.542  0.4189 -0.8896  1.6795
   91CHL1  H24B 9204   3.404   5.407   8.570  2.7162  1.4044 -1.7333
   91CHL1   C25 9205   3.322   5.592   8.644 -0.2650  0.0327 -0.4195
   91CHL1   H25 9206   3.405   5.667   8.647 -0.5006  0.2747  0.4043
   91CHL1   C26 9207   3.195   5.681   8.620  0.0878 -0.4476  0.0528
   91CHL1  H26A 9208   3.196   5.730   8.520 -3.4454 -2.1658 -0.9932
   91CHL1  H26B 9209   3.097   5.628   8.620 -0.2026  0.0646 -0.7569
   91CHL1  H26C 9210   3.182   5.766   8.691 -1.3117 -0.7543  0.1935
   91CHL1   C27 9211   3.315   5.523   8.777  0.0987 -0.5098 -0.1774
   91CHL1  H27A 9212   3.218   5.469   8.773 -0.1351 -0.0318 -1.5383
   91CHL1  H27B 9213   3.400   5.453   8.787  1.0253  0.7237  0.8290
   91CHL1  H27C 9214   3.309   5.597   8.859  0.8455 -0.5174 -0.1136
   92CHL1    C3 9215   5.964   4.955   6.730  0.0089 -0.0603 -0.3031
   92CHL1    H3 9216   5.897   5.041   6.751 -1.3046 -1.2961  0.7733
   92CHL1    O3 9217   5.962   4.923   6.593 -0.1645 -0.4945 -0.1899
   92CHL1   H3' 9218   6.015   4.997   6.562 -1.9662  1.5629  1.2966
   92CHL1    C4 9219   6.108   4.975   6.788 -0.4558 -0.9840  0.6794
   92CHL1   H4A 9220   6.170   4.891   6.749  2.3323  0.2566  2.1612
   92CHL1   H4B 9221   6.158   5.051   6.725  0.2186 -1.3009  0.8204
   92CHL1    C5 9222   6.113   4.992   6.934 -0.1611 -0.1168  0.3270
   92CHL1    C6 9223   6.159   5.109   6.985  0.4134  0.0272  0.5839
   92CHL1    H6 9224   6.205   5.183   6.918  2.4180 -2.7453 -1.3407
   92CHL1    C7 9225   6.182   5.119   7.133 -0.2318 -0.1389 -0.2758
   92CHL1   H7A 9226   6.277   5.173   7.157 -0.6541 -0.3464  2.1346
   92CHL1   H7B 9227   6.105   5.191   7.168  1.1705  0.2244  2.3324
   92CHL1    C8 9228   6.162   4.988   7.215  1.4693 -0.5071  0.1483
   92CHL1    H8 9229   6.251   4.923   7.198  2.2487  0.4103  0.6070
   92CHL1   C14 9230   6.150   5.024   7.359  0.3177 -0.0860 -0.4685
   92CHL1   H14 9231   6.055   5.080   7.368 -0.0398 -0.7440 -0.0663
   92CHL1   C15 9232   6.256   5.110   7.427  0.8982  0.6885 -0.1075
   92CHL1  H15A 9233   6.353   5.085   7.378 -0.0226 -0.6519 -1.3283
   92CHL1  H15B 9234   6.235   5.217   7.409 -0.0605  0.6617  0.7660
   92CHL1   C16 9235   6.235   5.077   7.576 -0.3545  0.1013  0.2641
   92CHL1  H16A 9236   6.329   5.028   7.607  0.7273  0.9553 -1.4964
   92CHL1  H16B 9237   6.204   5.159   7.644 -1.0960 -1.0886  1.4069
   92CHL1   C17 9238   6.129   4.961   7.586 -0.1114  0.5753  0.4918
   92CHL1   H17 9239   6.026   5.003   7.591 -1.1515 -1.7219 -0.2900
   92CHL1   C13 9240   6.129   4.904   7.445  0.0811  0.5716  0.6557
   92CHL1   C18 9241   6.243   4.800   7.424 -0.4229  0.3272 -0.2393
   92CHL1  H18A 9242   6.216   4.716   7.491  1.3067 -0.0994 -0.0303
   92CHL1  H18B 9243   6.266   4.762   7.322  0.4634 -2.1102  0.8066
   92CHL1  H18C 9244   6.337   4.850   7.455  0.1136  0.9028 -2.5507
   92CHL1   C12 9245   5.996   4.846   7.403 -0.3403 -0.5931 -0.3646
   92CHL1  H12A 9246   5.975   4.755   7.463  0.1043  0.5840  1.6959
   92CHL1  H12B 9247   5.908   4.910   7.429 -0.7943 -1.9064  1.5374
   92CHL1   C11 9248   5.998   4.799   7.257  0.5424 -0.6575  1.0438
   92CHL1  H11A 9249   6.068   4.714   7.242  0.4819 -0.5903  0.3679
   92CHL1  H11B 9250   5.900   4.760   7.223 -1.0794  2.3138  1.9100
   92CHL1    C9 9251   6.042   4.912   7.166  0.3364 -0.7546  0.3125
   92CHL1    H9 9252   5.957   4.984   7.174  0.5575 -0.5992  1.4994
   92CHL1   C10 9253   6.053   4.885   7.019  0.0933  0.2286  0.2081
   92CHL1   C19 9254   6.147   4.762   7.000 -0.2597  0.4133  0.2129
   92CHL1  H19A 9255   6.157   4.720   6.898 -1.9812  1.4579 -0.4330
   92CHL1  H19B 9256   6.249   4.781   7.039 -0.1373  1.8012 -0.7112
   92CHL1  H19C 9257   6.102   4.677   7.055  0.9558  0.7608  1.8174
   92CHL1    C1 9258   5.907   4.854   6.965 -0.3584 -0.4307 -0.1657
   92CHL1   H1A 9259   5.871   4.757   7.005  0.1029 -1.4717 -2.1174
   92CHL1   H1B 9260   5.844   4.944   6.982  0.7674  0.7358 -1.7909
   92CHL1    C2 9261   5.904   4.842   6.807  0.0780 -0.3045 -0.3513
   92CHL1   H2A 9262   5.802   4.834   6.764 -0.9335  3.5628  0.9325
   92CHL1   H2B 9263   5.955   4.745   6.786  2.2993  0.8558 -0.5743
   92CHL1   C20 9264   6.149   4.870   7.707  0.2467  0.3226  0.9529
   92CHL1   H20 9265   6.245   4.814   7.698  0.9100  1.6283 -0.6505
   92CHL1   C21 9266   6.030   4.773   7.743 -0.4887 -0.5509  0.2797
   92CHL1  H21A 9267   6.017   4.697   7.664  2.1821 -0.0078 -0.7980
   92CHL1  H21B 9268   5.939   4.836   7.754 -0.2093 -0.5062  3.1036
   92CHL1  H21C 9269   6.034   4.720   7.841  0.8751  1.4447  1.3700
   92CHL1   C22 9270   6.171   4.963   7.831 -0.2531 -0.0880 -0.8551
   92CHL1  H22A 9271   6.220   5.062   7.823 -1.9909  1.1973  2.2834
   92CHL1  H22B 9272   6.074   4.983   7.881  0.4572 -1.0583  0.9937
   92CHL1   C23 9273   6.255   4.888   7.945 -0.3880  0.1688  0.7224
   92CHL1  H23A 9274   6.213   4.785   7.953  1.4304 -0.7006 -0.1016
   92CHL1  H23B 9275   6.361   4.887   7.912 -0.4484  0.4569  0.5215
   92CHL1   C24 9276   6.244   4.960   8.081  0.0983  0.5990  0.4484
   92CHL1  H24A 9277   6.301   5.055   8.080  1.0402  0.0747  2.0760
   92CHL1  H24B 9278   6.140   4.997   8.097 -1.0058 -1.0431 -2.2223
   92CHL1   C25 9279   6.307   4.891   8.202  0.3538 -0.4357 -0.3787
   92CHL1   H25 9280   6.262   4.790   8.208  0.5650 -0.5876 -1.1556
   92CHL1   C26 9281   6.451   4.878   8.206 -0.2626  0.0898 -0.3311
   92CHL1  H26A 9282   6.478   4.847   8.103 -1.0971  1.7782 -1.1077
   92CHL1  H26B 9283   6.505   4.975   8.218  1.3050 -0.3393 -3.0873
   92CHL1  H26C 9284   6.501   4.817   8.284  0.9868  0.6065 -0.6990
   92CHL1   C27 9285   6.255   4.970   8.331  0.0004  0.7091  1.1219
   92CHL1  H27A 9286   6.158   4.921   8.357 -0.2187 -0.2365 -1.2208
   92CHL1  H27B 9287   6.326   4.970   8.416  1.7183  1.1752 -0.2780
   92CHL1  H27C 9288   6.235   5.077   8.308  1.1387  0.4371 -1.3803
   93CHL1    C3 9289   5.035   2.913   7.099 -1.1152 -0.5006 -0.0543
   93CHL1    H3 9290   4.941   2.854   7.101 -1.5967  0.2575  1.8630
   93CHL1    O3 9291   5.051   2.979   6.980 -0.3031  0.4219 -0.2289
   93CHL1   H3' 9292   5.100   3.058   7.005  1.7859 -0.6971 -0.5214
   93CHL1    C4 9293   5.032   3.023   7.212 -0.1095  0.6441  0.1268
   93CHL1   H4A 9294   5.126   3.080   7.195  1.7532 -1.9446  1.1180
   93CHL1   H4B 9295   4.943   3.087   7.191  0.0189  0.6092 -0.5626
   93CHL1    C5 9296   5.036   2.965   7.355  0.8818  0.0022 -0.0516
   93CHL1    C6 9297   4.958   3.011   7.460  0.1393  0.3203  0.1782
   93CHL1    H6 9298   4.901   3.104   7.445 -0.0490  0.3290  0.9106
   93CHL1    C7 9299   4.940   2.954   7.596  0.5333 -0.0943  0.2661
   93CHL1   H7A 9300   4.952   3.038   7.667 -1.3469  0.3306  0.1416
   93CHL1   H7B 9301   4.832   2.926   7.590  0.6015 -0.0130 -2.5036
   93CHL1    C8 9302   5.034   2.841   7.633 -1.0442 -0.2966  0.1297
   93CHL1    H8 9303   5.117   2.898   7.679 -0.8681 -1.3446  1.1630
   93CHL1   C14 9304   4.983   2.752   7.741 -0.6723  0.0532 -0.2483
   93CHL1   H14 9305   4.892   2.701   7.700  0.4524 -0.4705 -2.2103
   93CHL1   C15 9306   4.944   2.824   7.872  0.2418  0.1903  0.2533
   93CHL1  H15A 9307   5.025   2.895   7.900  0.8076  0.8472 -2.7245
   93CHL1  H15B 9308   4.850   2.879   7.852 -1.1123 -1.7624  1.0034
   93CHL1   C16 9309   4.933   2.706   7.973  0.4629  0.5431  0.5502
   93CHL1  H16A 9310   5.001   2.734   8.057  1.0798 -2.7599  1.3353
   93CHL1  H16B 9311   4.827   2.705   8.005  0.9067  1.3390  2.1885
   93CHL1   C17 9312   4.983   2.575   7.900 -0.3927  0.0725 -0.4281
   93CHL1   H17 9313   4.887   2.536   7.859 -2.3868  3.4150  0.6522
   93CHL1   C13 9314   5.074   2.638   7.783 -0.3834 -0.0495 -0.0976
   93CHL1   C18 9315   5.208   2.695   7.846  0.0480 -0.1229 -0.7457
   93CHL1  H18A 9316   5.200   2.741   7.946  1.1697 -1.8578  0.2045
   93CHL1  H18B 9317   5.270   2.603   7.860 -0.6301 -0.5369 -0.4036
   93CHL1  H18C 9318   5.253   2.761   7.769  0.9016  0.1238 -0.0535
   93CHL1   C12 9319   5.103   2.551   7.656 -0.1181  0.5523  0.4879
   93CHL1  H12A 9320   5.173   2.470   7.684 -0.2453  0.8120  1.6301
   93CHL1  H12B 9321   5.007   2.500   7.634  1.6745 -2.3977 -1.1108
   93CHL1   C11 9322   5.159   2.644   7.543 -0.6460  0.3670 -0.2285
   93CHL1  H11A 9323   5.261   2.670   7.578 -1.1561  3.0725 -0.5367
   93CHL1  H11B 9324   5.187   2.584   7.454 -2.7429 -1.0862  0.0190
   93CHL1    C9 9325   5.073   2.764   7.507 -0.5304  0.8046 -0.2832
   93CHL1    H9 9326   4.981   2.712   7.474  0.4325 -1.5196  0.4441
   93CHL1   C10 9327   5.132   2.850   7.390 -0.0238  0.2574  0.5050
   93CHL1   C19 9328   5.273   2.895   7.421  0.3041 -0.0757 -0.3810
   93CHL1  H19A 9329   5.341   2.810   7.441 -0.7341 -0.5206  1.5401
   93CHL1  H19B 9330   5.317   2.954   7.338  0.5369 -0.5978 -0.6292
   93CHL1  H19C 9331   5.279   2.961   7.511 -0.5503  2.3071 -1.9675
   93CHL1    C1 9332   5.142   2.753   7.267 -0.2612  0.2423 -0.8030
   93CHL1   H1A 9333   5.226   2.680   7.277 -0.1134  0.0504 -2.9116
   93CHL1   H1B 9334   5.050   2.691   7.257 -1.5757  2.2401 -1.6478
   93CHL1    C2 9335   5.167   2.830   7.135  0.0399 -0.4541  0.1835
   93CHL1   H2A 9336   5.190   2.777   7.040  0.5726  1.3892 -0.7590
   93CHL1   H2B 9337   5.243   2.911   7.141 -0.2913 -0.0797 -0.4996
   93CHL1   C20 9338   5.046   2.473   7.996 -0.2007 -0.2236  0.2875
   93CHL1   H20 9339   5.147   2.503   8.032  0.6048  0.8051 -2.5510
   93CHL1   C21 9340   5.043   2.335   7.922 -0.5370 -0.1921  0.5307
   93CHL1  H21A 9341   5.112   2.327   7.836 -1.8632  0.4937 -0.6485
   93CHL1  H21B 9342   4.947   2.301   7.878 -0.3205 -0.2647  0.1076
   93CHL1  H21C 9343   5.081   2.254   7.987  3.3375 -0.6843 -2.0354
   93CHL1   C22 9344   4.966   2.465   8.130  0.1947 -0.2506 -0.8183
   93CHL1  H22A 9345   4.972   2.564   8.179  0.0484 -0.0205 -1.2581
   93CHL1  H22B 9346   4.857   2.451   8.116  0.2748 -1.3444 -0.4148
   93CHL1   C23 9347   4.995   2.348   8.230  0.0126  0.6196 -0.0186
   93CHL1  H23A 9348   4.957   2.265   8.166 -1.7148 -1.0599  2.9888
   93CHL1  H23B 9349   5.102   2.350   8.261 -0.2270  0.0699  0.8744
   93CHL1   C24 9350   4.910   2.343   8.360 -0.0872 -0.0554  0.1267
   93CHL1  H24A 9351   4.804   2.349   8.327  0.3406  0.1159 -1.3064
   93CHL1  H24B 9352   4.927   2.247   8.413 -0.0699  0.3901  0.9469
   93CHL1   C25 9353   4.954   2.456   8.462  0.1115 -0.0776 -0.2411
   93CHL1   H25 9354   4.956   2.554   8.410 -0.4683  0.1862  0.2233
   93CHL1   C26 9355   4.845   2.490   8.571 -0.3220 -0.0575  0.1544
   93CHL1  H26A 9356   4.877   2.580   8.628 -1.4119  0.2609  0.2913
   93CHL1  H26B 9357   4.752   2.523   8.520 -1.2814 -2.1040  0.4590
   93CHL1  H26C 9358   4.825   2.405   8.640  0.3376  0.0736  0.5089
   93CHL1   C27 9359   5.093   2.437   8.538  0.0268 -0.6519 -0.8724
   93CHL1  H27A 9360   5.092   2.338   8.589 -2.0748  0.6413  1.8938
   93CHL1  H27B 9361   5.178   2.455   8.469 -0.9443  0.2170 -1.8888
   93CHL1  H27C 9362   5.109   2.508   8.623  3.0315 -3.0595  0.7664
   94CHL1    C3 9363   2.509   0.011   7.015 -0.2646 -1.1693  0.6634
   94CHL1    H3 9364   2.606  -0.034   7.045  0.6635  0.5119  0.2806
   94CHL1    O3 9365   2.490   0.012   6.874 -0.2768 -0.2819 -0.2977
   94CHL1   H3' 9366   2.397   0.012   6.847 -0.0997 -1.0864 -0.9483
   94CHL1    C4 9367   2.397  -0.045   7.094 -0.3927 -0.5374 -0.5687
   94CHL1   H4A 9368   2.300   0.005   7.073 -0.5268  0.6881  2.4182
   94CHL1   H4B 9369   2.378  -0.150   7.065 -2.4366 -0.8122  1.5325
   94CHL1    C5 9370   2.417  -0.026   7.248  0.3439  0.7533  0.3254
   94CHL1    C6 9371   2.431  -0.132   7.333  0.3545 -0.1391  0.5579
   94CHL1    H6 9372   2.426  -0.232   7.286  0.2160  1.1604 -2.3881
   94CHL1    C7 9373   2.430  -0.126   7.486 -0.6684  1.0483  0.7364
   94CHL1   H7A 9374   2.353  -0.195   7.526 -0.8382 -0.7584 -2.4058
   94CHL1   H7B 9375   2.522  -0.175   7.524 -0.1766 -0.0236 -1.6536
   94CHL1    C8 9376   2.408   0.021   7.531 -0.8458 -0.6485  0.5345
   94CHL1    H8 9377   2.300   0.042   7.516 -0.7409 -0.0955  0.5354
   94CHL1   C14 9378   2.441   0.033   7.677 -0.4513  0.0040  0.8453
   94CHL1   H14 9379   2.543  -0.009   7.688 -0.6425 -0.4897  0.7712
   94CHL1   C15 9380   2.370  -0.066   7.763  0.7157  0.0042 -0.6772
   94CHL1  H15A 9381   2.262  -0.060   7.738  0.5179 -2.1659 -0.5638
   94CHL1  H15B 9382   2.385  -0.176   7.764 -2.6045 -0.6736  2.9638
   94CHL1   C16 9383   2.382  -0.004   7.905  0.3084 -0.8233 -0.1035
   94CHL1  H16A 9384   2.285   0.026   7.948 -0.2768  0.3265 -2.1189
   94CHL1  H16B 9385   2.429  -0.070   7.982  0.1307  0.3620  1.0696
   94CHL1   C17 9386   2.469   0.126   7.884 -0.1699 -0.1961 -0.5107
   94CHL1   H17 9387   2.576   0.095   7.881  0.7665  2.7045 -0.2591
   94CHL1   C13 9388   2.439   0.167   7.739  0.0310  0.4968 -0.2099
   94CHL1   C18 9389   2.287   0.213   7.728 -0.2384 -0.6367  0.6599
   94CHL1  H18A 9390   2.256   0.309   7.775 -2.1660 -1.5996  1.4618
   94CHL1  H18B 9391   2.261   0.221   7.621  1.1936  1.4847  0.3943
   94CHL1  H18C 9392   2.218   0.135   7.765 -1.7232  0.4588  0.2632
   94CHL1   C12 9393   2.545   0.250   7.668 -0.2750 -0.4117  0.2536
   94CHL1  H12A 9394   2.551   0.357   7.697 -0.5097  0.0507 -1.2840
   94CHL1  H12B 9395   2.648   0.207   7.670 -0.3597 -0.6583 -0.4049
   94CHL1   C11 9396   2.509   0.255   7.517  0.1019 -0.1114  0.0520
   94CHL1  H11A 9397   2.417   0.316   7.508  0.1174 -0.2850 -1.4224
   94CHL1  H11B 9398   2.597   0.307   7.473  0.3967 -0.0742  0.6637
   94CHL1    C9 9399   2.486   0.118   7.445  0.2839 -0.1710 -0.4215
   94CHL1    H9 9400   2.591   0.080   7.443  0.4295 -0.0850  2.4538
   94CHL1   C10 9401   2.428   0.120   7.301 -0.3126  0.3822  0.7936
   94CHL1   C19 9402   2.296   0.202   7.283 -0.0650  0.1206 -0.2588
   94CHL1  H19A 9403   2.290   0.307   7.320 -0.6730 -0.5850  1.7812
   94CHL1  H19B 9404   2.254   0.206   7.180 -0.4475  0.8951 -0.0865
   94CHL1  H19C 9405   2.216   0.143   7.332 -0.7334  0.4142 -0.9666
   94CHL1    C1 9406   2.538   0.178   7.201  0.3321  0.3511  0.3117
   94CHL1   H1A 9407   2.547   0.286   7.224 -0.9152 -0.0485  3.0402
   94CHL1   H1B 9408   2.638   0.133   7.224 -0.8133 -1.4643  2.1229
   94CHL1    C2 9409   2.515   0.162   7.050 -0.1693  0.5615  0.3175
   94CHL1   H2A 9410   2.600   0.206   6.994  0.1048  1.6340  1.5487
   94CHL1   H2B 9411   2.422   0.212   7.014 -0.4900  0.3150  0.8016
   94CHL1   C20 9412   2.449   0.238   7.998  0.0168  0.2873 -0.2951
   94CHL1   H20 9413   2.341   0.262   7.994 -0.4992 -1.5415  1.2503
   94CHL1   C21 9414   2.538   0.361   7.967  0.2888 -0.2729 -0.6725
   94CHL1  H21A 9415   2.506   0.424   7.881  2.4297  0.4397 -1.0088
   94CHL1  H21B 9416   2.634   0.317   7.935  0.4957 -0.1284 -0.2552
   94CHL1  H21C 9417   2.558   0.422   8.058 -1.8586 -1.0978  0.4340
   94CHL1   C22 9418   2.488   0.186   8.139 -1.0867 -0.2999 -0.3191
   94CHL1  H22A 9419   2.453   0.080   8.144  2.6650 -1.6468  0.9421
   94CHL1  H22B 9420   2.599   0.186   8.143 -1.0583  1.5275 -0.4265
   94CHL1   C23 9421   2.426   0.265   8.257  0.1058  0.1255  0.1689
   94CHL1  H23A 9422   2.479   0.360   8.276  1.7475 -0.6224 -0.5379
   94CHL1  H23B 9423   2.319   0.280   8.230  0.2741 -2.0083 -2.0065
   94CHL1   C24 9424   2.441   0.187   8.390  0.0214  0.5689 -1.0801
   94CHL1  H24A 9425   2.395   0.086   8.384  0.8308  0.1202 -0.0782
   94CHL1  H24B 9426   2.547   0.182   8.420  0.0891  0.1201 -1.3843
   94CHL1   C25 9427   2.383   0.265   8.515 -0.0522 -0.2910  0.1494
   94CHL1   H25 9428   2.430   0.364   8.502  0.4601 -0.6812 -1.0953
   94CHL1   C26 9429   2.227   0.282   8.507 -0.6080 -0.2314  0.1623
   94CHL1  H26A 9430   2.202   0.330   8.410  0.0630 -2.0407 -0.9628
   94CHL1  H26B 9431   2.182   0.181   8.518  1.0446 -1.0021  0.1182
   94CHL1  H26C 9432   2.190   0.352   8.584 -3.0925 -0.3991 -0.7797
   94CHL1   C27 9433   2.424   0.199   8.644  0.1955 -0.1226  0.0889
   94CHL1  H27A 9434   2.526   0.230   8.675  0.6312 -0.6470 -0.7883
   94CHL1  H27B 9435   2.355   0.219   8.730 -0.8711 -0.4872 -0.6636
   94CHL1  H27C 9436   2.445   0.091   8.629  1.2518  0.0077  0.5298
   95CHL1    C3 9437   0.402   6.061   6.570 -0.4247  0.5245 -0.5731
   95CHL1    H3 9438   0.291   6.050   6.564 -0.3786 -1.7488  1.1999
   95CHL1    O3 9439   0.450   6.092   6.439 -0.0935 -0.8956 -0.3796
   95CHL1   H3' 9440   0.404   6.038   6.373 -0.0979  0.5657 -1.6383
   95CHL1    C4 9441   0.414   6.175   6.668 -0.3634  0.7138  0.5622
   95CHL1   H4A 9442   0.514   6.224   6.673 -0.0363 -0.0434  3.3123
   95CHL1   H4B 9443   0.355   6.260   6.629  1.0027  1.7737  0.7637
   95CHL1    C5 9444   0.381   6.141   6.810  0.3801 -0.3251 -1.0833
   95CHL1    C6 9445   0.288   6.202   6.891 -0.2461 -0.7660 -0.6688
   95CHL1    H6 9446   0.232   6.288   6.851 -0.7844 -0.8229 -0.0552
   95CHL1    C7 9447   0.258   6.173   7.038  0.3788 -0.3847 -0.4075
   95CHL1   H7A 9448   0.268   6.271   7.088  1.6725 -0.8750  0.3355
   95CHL1   H7B 9449   0.167   6.110   7.047 -0.5659  0.5932 -2.4433
   95CHL1    C8 9450   0.372   6.085   7.106 -0.2373  0.5007 -0.0558
   95CHL1    H8 9451   0.445   6.167   7.119 -2.2995  2.7836 -1.9387
   95CHL1   C14 9452   0.330   6.009   7.230 -0.2858 -0.3222  0.1706
   95CHL1   H14 9453   0.254   5.933   7.204  0.4318 -0.6969 -0.9214
   95CHL1   C15 9454   0.247   6.091   7.340 -0.1988 -0.0408  0.4763
   95CHL1  H15A 9455   0.304   6.186   7.352  0.2740 -0.2289 -0.1745
   95CHL1  H15B 9456   0.151   6.119   7.292 -0.2288  0.3400  0.7568
   95CHL1   C16 9457   0.251   6.004   7.463  0.3427  0.7621  0.7921
   95CHL1  H16A 9458   0.279   6.057   7.557 -0.4843  1.5372  0.6149
   95CHL1  H16B 9459   0.152   5.954   7.469  0.5465  0.2676  0.1423
   95CHL1   C17 9460   0.363   5.891   7.435  0.2978  0.2650  0.2473
   95CHL1   H17 9461   0.298   5.807   7.403 -0.4192  0.4805  1.0920
   95CHL1   C13 9462   0.439   5.940   7.302  0.2233  0.2688 -0.3331
   95CHL1   C18 9463   0.548   6.035   7.346 -0.1017  0.3932  0.5793
   95CHL1  H18A 9464   0.581   6.095   7.258  0.7975 -0.0107  0.6336
   95CHL1  H18B 9465   0.507   6.095   7.430 -0.9161 -1.0091  1.2212
   95CHL1  H18C 9466   0.644   5.987   7.374  1.0080 -0.8067 -4.4369
   95CHL1   C12 9467   0.483   5.838   7.200  0.7829  0.4052 -0.5139
   95CHL1  H12A 9468   0.551   5.766   7.249  1.5176 -0.2734 -2.4412
   95CHL1  H12B 9469   0.392   5.778   7.177  0.9036  0.7823 -2.1317
   95CHL1   C11 9470   0.538   5.894   7.074  0.7009 -0.3558 -0.4431
   95CHL1  H11A 9471   0.632   5.950   7.093  0.1724 -0.0859  1.6849
   95CHL1  H11B 9472   0.546   5.807   7.006  1.7268  0.5843 -1.5775
   95CHL1    C9 9473   0.431   5.983   7.006  0.2175  0.1958 -0.5065
   95CHL1    H9 9474   0.343   5.916   6.996  0.6413 -0.6651  1.1798
   95CHL1   C10 9475   0.465   6.024   6.862  1.0273  0.1710 -0.3852
   95CHL1   C19 9476   0.608   6.076   6.864 -0.1477  0.1696 -0.4257
   95CHL1  H19A 9477   0.617   6.159   6.938  0.0995 -0.9648  0.8462
   95CHL1  H19B 9478   0.671   5.994   6.904 -0.6863 -0.3487 -0.6211
   95CHL1  H19C 9479   0.650   6.092   6.762  1.9124  1.6631  0.5755
   95CHL1    C1 9480   0.443   5.901   6.768 -0.2774 -0.3563  0.0205
   95CHL1   H1A 9481   0.507   5.814   6.796 -0.1360 -0.5753 -0.9671
   95CHL1   H1B 9482   0.340   5.861   6.781 -0.0870 -0.6721  0.6059
   95CHL1    C2 9483   0.472   5.932   6.621  0.0226 -0.8366  0.6840
   95CHL1   H2A 9484   0.446   5.850   6.550  0.2652  0.5181 -1.0475
   95CHL1   H2B 9485   0.582   5.942   6.609  0.3786 -2.8934  1.7732
   95CHL1   C20 9486   0.448   5.847   7.554 -0.0126  1.1075  0.0351
   95CHL1   H20 9487   0.517   5.933   7.568 -1.0968  1.9566  0.3434
   95CHL1   C21 9488   0.537   5.730   7.514 -0.5562  0.2416  0.1262
   95CHL1  H21A 9489   0.625   5.761   7.453  0.0927  0.2240  1.0359
   95CHL1  H21B 9490   0.472   5.662   7.454 -1.1474  2.0641 -1.3860
   95CHL1  H21C 9491   0.561   5.671   7.605 -0.3942  1.8376  1.1539
   95CHL1   C22 9492   0.367   5.817   7.681  0.0454 -0.3623 -0.1414
   95CHL1  H22A 9493   0.273   5.876   7.685  1.5942  2.2082  0.7826
   95CHL1  H22B 9494   0.339   5.710   7.684 -1.2389 -0.0658 -0.5487
   95CHL1   C23 9495   0.443   5.857   7.816 -0.4366  0.0503 -0.3953
   95CHL1  H23A 9496   0.551   5.860   7.791 -0.4556 -1.3036 -0.7173
   95CHL1  H23B 9497   0.409   5.959   7.841 -0.7999 -0.5836  1.8870
   95CHL1   C24 9498   0.417   5.769   7.942  0.3501 -0.6043 -0.9760
   95CHL1  H24A 9499   0.311   5.774   7.976  0.9451 -0.4574  0.9711
   95CHL1  H24B 9500   0.450   5.666   7.915  2.2484 -0.6735  1.2907
   95CHL1   C25 9501   0.514   5.806   8.051 -0.5402 -0.4713  0.1340
   95CHL1   H25 9502   0.496   5.913   8.078 -0.2280 -0.1440 -0.9016
   95CHL1   C26 9503   0.491   5.722   8.175  0.1224  0.3569 -0.2636
   95CHL1  H26A 9504   0.557   5.761   8.257  1.5268 -0.1735 -1.0999
   95CHL1  H26B 9505   0.386   5.729   8.209 -0.3063 -2.6385 -0.7039
   95CHL1  H26C 9506   0.517   5.617   8.150  2.6413  1.2037 -1.6098
   95CHL1   C27 9507   0.667   5.793   8.024  0.1324  0.3452  0.1381
   95CHL1  H27A 9508   0.675   5.691   7.981  0.7498  0.5878 -0.3241
   95CHL1  H27B 9509   0.714   5.862   7.951  0.8528 -0.4041 -0.1176
   95CHL1  H27C 9510   0.726   5.807   8.117  1.8429 -1.1774 -0.6621
   96CHL1    C3 9511   0.885   4.033   6.695  0.3643 -0.2852  0.2738
   96CHL1    H3 9512   0.980   4.056   6.747  0.0549 -0.5043  0.9468
   96CHL1    O3 9513   0.887   4.059   6.554 -0.0258 -0.0122  0.3393
   96CHL1   H3' 9514   0.938   4.140   6.543 -0.5437  0.3245  0.3437
   96CHL1    C4 9515   0.848   3.884   6.714  0.2485 -0.2103  0.5331
   96CHL1   H4A 9516   0.754   3.870   6.656  0.0736 -1.2804  1.0451
   96CHL1   H4B 9517   0.923   3.819   6.665  0.3664 -0.4715  1.0604
   96CHL1    C5 9518   0.837   3.848   6.860 -0.6697 -0.3466 -0.1107
   96CHL1    C6 9519   0.922   3.765   6.926  0.6695 -0.0634 -0.0196
   96CHL1    H6 9520   1.009   3.718   6.879  0.1230 -2.1171  0.9186
   96CHL1    C7 9521   0.915   3.730   7.076  0.6209 -0.2526 -0.1169
   96CHL1   H7A 9522   0.929   3.620   7.088  0.1971 -0.1564  1.5243
   96CHL1   H7B 9523   0.994   3.784   7.132 -1.2763 -0.2529  2.7648
   96CHL1    C8 9524   0.785   3.768   7.136  0.9502 -0.3350  0.0556
   96CHL1    H8 9525   0.711   3.698   7.092 -0.0759  0.4757  0.4559
   96CHL1   C14 9526   0.786   3.753   7.289 -0.2668  0.3722  0.1478
   96CHL1   H14 9527   0.877   3.811   7.317 -0.3605  1.6579 -2.0095
   96CHL1   C15 9528   0.815   3.614   7.355 -0.6967  0.0741  0.7180
   96CHL1  H15A 9529   0.770   3.533   7.294  0.6983  1.0554 -1.8036
   96CHL1  H15B 9530   0.926   3.609   7.361 -0.4610  2.7765 -0.0377
   96CHL1   C16 9531   0.768   3.626   7.499 -0.1319  0.7439  0.1480
   96CHL1  H16A 9532   0.699   3.541   7.516 -0.0231  0.3657 -1.1625
   96CHL1  H16B 9533   0.858   3.620   7.563  0.3084  2.0652 -0.3064
   96CHL1   C17 9534   0.690   3.754   7.511 -0.0591 -0.1475  0.5982
   96CHL1   H17 9535   0.764   3.821   7.558  0.3212 -0.1730  0.0379
   96CHL1   C13 9536   0.663   3.807   7.368  0.8441  0.3728 -0.0756
   96CHL1   C18 9537   0.541   3.726   7.324 -0.0056  0.4011  0.9946
   96CHL1  H18A 9538   0.531   3.740   7.214 -0.9047  0.1127  1.0308
   96CHL1  H18B 9539   0.551   3.617   7.348  0.4937  0.2416  0.1070
   96CHL1  H18C 9540   0.447   3.766   7.368 -0.5577 -1.1510  1.3174
   96CHL1   C12 9541   0.664   3.954   7.342  0.1681  0.3081 -0.0209
   96CHL1  H12A 9542   0.581   4.002   7.398 -2.9011 -2.3748 -1.9364
   96CHL1  H12B 9543   0.765   3.986   7.376  0.7247 -1.1450 -0.2746
   96CHL1   C11 9544   0.643   3.990   7.191 -0.4839 -0.8041 -0.3601
   96CHL1  H11A 9545   0.541   3.956   7.164 -1.2492 -0.5772  2.0230
   96CHL1  H11B 9546   0.641   4.100   7.171 -2.0460 -0.5293  1.0678
   96CHL1    C9 9547   0.751   3.916   7.095  0.0693  0.4128  0.0879
   96CHL1    H9 9548   0.843   3.971   7.122  0.8654 -1.1951  0.8134
   96CHL1   C10 9549   0.736   3.929   6.942 -0.4364  0.1007  0.1659
   96CHL1   C19 9550   0.593   3.887   6.888  0.4521 -0.3149 -0.0651
   96CHL1  H19A 9551   0.593   3.922   6.782  0.0837  2.1155  0.6740
   96CHL1  H19B 9552   0.570   3.779   6.896  0.0023 -0.2640 -0.6197
   96CHL1  H19C 9553   0.527   3.953   6.949  1.2877 -1.0874  1.7351
   96CHL1    C1 9554   0.759   4.081   6.908 -0.0513 -0.1207  0.0013
   96CHL1   H1A 9555   0.673   4.135   6.952  1.7926  2.1227  1.0647
   96CHL1   H1B 9556   0.853   4.114   6.957 -1.1002  0.4312  1.7183
   96CHL1    C2 9557   0.777   4.117   6.757  0.4078 -0.3101 -0.1518
   96CHL1   H2A 9558   0.824   4.218   6.757 -1.7502  0.7581 -1.1064
   96CHL1   H2B 9559   0.687   4.126   6.692  1.2187  1.4010 -1.1189
   96CHL1   C20 9560   0.576   3.743   7.618 -0.8898  0.2357 -0.4470
   96CHL1   H20 9561   0.502   3.664   7.594 -1.2436  0.0358  1.2142
   96CHL1   C21 9562   0.491   3.877   7.622 -0.5373 -0.4486 -0.8998
   96CHL1  H21A 9563   0.402   3.870   7.689 -0.8114 -0.5541 -1.2689
   96CHL1  H21B 9564   0.453   3.911   7.523 -0.3937  2.8993  0.0695
   96CHL1  H21C 9565   0.550   3.957   7.671 -3.0052  0.4208  0.8610
   96CHL1   C22 9566   0.640   3.704   7.757 -0.1309 -0.2846  0.2308
   96CHL1  H22A 9567   0.697   3.609   7.762 -1.1868 -0.9881 -0.6542
   96CHL1  H22B 9568   0.700   3.789   7.796  0.3418 -0.3346 -0.3760
   96CHL1   C23 9569   0.531   3.690   7.876  0.1861  0.2564  0.4368
   96CHL1  H23A 9570   0.482   3.788   7.894  0.3899  0.7391 -1.4467
   96CHL1  H23B 9571   0.447   3.625   7.843 -0.2574  1.2933 -0.5358
   96CHL1   C24 9572   0.576   3.615   8.003  0.5979  0.2938  0.1987
   96CHL1  H24A 9573   0.627   3.521   7.976  0.2149  0.3146 -0.6175
   96CHL1  H24B 9574   0.649   3.677   8.059  0.0100  1.9980 -0.8312
   96CHL1   C25 9575   0.461   3.574   8.110 -0.2200 -0.4435 -0.1873
   96CHL1   H25 9576   0.385   3.522   8.046 -0.7818  1.2448 -0.9522
   96CHL1   C26 9577   0.532   3.482   8.210  0.1257 -0.3432  0.3501
   96CHL1  H26A 9578   0.563   3.388   8.161  1.3144  0.1871  0.0439
   96CHL1  H26B 9579   0.625   3.530   8.247 -0.0768  1.4598 -1.2492
   96CHL1  H26C 9580   0.460   3.467   8.293 -0.4700  2.8888  0.5694
   96CHL1   C27 9581   0.395   3.702   8.166  0.1990  0.2309 -0.0824
   96CHL1  H27A 9582   0.332   3.755   8.091 -0.9825 -0.2694  0.5244
   96CHL1  H27B 9583   0.320   3.677   8.244  2.2392  0.4194  2.0207
   96CHL1  H27C 9584   0.468   3.768   8.216 -0.3350 -0.1473  1.2452
   97OSM      N 9585   4.243   5.473  11.040  0.0537 -0.0304  0.3736
   97OSM    C15 9586   4.098   5.455  11.082 -0.0464 -0.0897  0.0014
   97OSM   H15A 9587   4.085   5.348  11.088  0.3618 -0.1439 -0.0538
   97OSM   H15B 9588   4.017   5.486  11.018 -0.0122  2.6842  1.1736
   97OSM   H15C 9589   4.084   5.495  11.181 -0.3362 -1.0885  0.3755
   97OSM    C14 9590   4.339   5.406  11.134 -0.2398 -0.2968 -0.6420
   97OSM   H14A 9591   4.434   5.411  11.082  0.0611 -1.5235 -0.2506
   97OSM   H14B 9592   4.327   5.299  11.146  1.1710 -0.3144  0.8727
   97OSM   H14C 9593   4.338   5.441  11.236 -3.9165  0.0534 -0.6571
   97OSM    C13 9594   4.263   5.406  10.909 -0.3895  0.3894 -0.6498
   97OSM   H13A 9595   4.188   5.448  10.844 -0.3706  0.5927 -0.5434
   97OSM   H13B 9596   4.240   5.301  10.916 -1.4510  0.6836  0.7884
   97OSM   H13C 9597   4.366   5.426  10.885  0.3787 -0.1323  1.8848
   97OSM    C12 9598   4.274   5.623  11.036 -0.3158 -0.3188  0.3147
   97OSM   H12A 9599   4.211   5.665  10.959  0.4587 -0.4754 -0.4072
   97OSM   H12B 9600   4.374   5.642  11.002 -0.7677  1.0906 -0.2881
   97OSM    C11 9601   4.253   5.699  11.170 -0.1263  0.1635 -0.2915
   97OSM   H11A 9602   4.307   5.646  11.252  1.3450  2.6172  0.4233
   97OSM   H11B 9603   4.149   5.711  11.208 -0.5304  0.5600 -1.5023
   97OSM      P 9604   4.214   5.943  11.115 -0.2197  0.2385 -0.6062
   97OSM    O13 9605   4.132   5.971  11.233  0.7509 -0.3083  0.1592
   97OSM    O14 9606   4.301   6.052  11.074  0.1221 -0.5076  0.0864
   97OSM    O11 9607   4.124   5.887  10.995 -0.1285 -0.0004  0.2753
   97OSM    O12 9608   4.308   5.830  11.161  0.5043 -0.2635 -0.2469
   97OSM    C1S 9609   4.066   5.975  10.904  0.0624  0.5680 -0.3121
   97OSM    H1S 9610   4.140   6.043  10.855 -0.7755  1.3271 -0.5369
   97OSM    H1T 9611   3.995   6.039  10.960 -0.5387 -0.0337 -0.3837
   97OSM     NF 9612   3.934   5.999  10.697 -0.2627  0.6256 -0.6607
   97OSM    HNF 9613   3.855   6.059  10.703 -0.6187  0.0137  1.7079
   97OSM    C2S 9614   3.975   5.898  10.801  0.9733 -0.2970  0.1179
   97OSM    H2S 9615   4.033   5.816  10.755 -1.4889 -1.7075 -0.6810
   97OSM    C3S 9616   3.862   5.822  10.872  0.3545 -0.8340  0.0274
   97OSM    H3S 9617   3.790   5.891  10.920 -0.2553 -1.2057 -0.3450
   97OSM     O3 9618   3.894   5.720  10.966 -0.5509 -0.2586 -0.0556
   97OSM    HO3 9619   3.990   5.725  10.959 -0.5206  0.8851  0.8973
   97OSM    C4S 9620   3.775   5.763  10.763 -0.6396  0.1078  0.5333
   97OSM    H4S 9621   3.681   5.821  10.757 -1.4044 -0.9931  1.5045
   97OSM    C5S 9622   3.788   5.649  10.689 -0.2994 -0.3718 -0.2487
   97OSM    H5S 9623   3.877   5.586  10.703 -2.1728 -2.8252  1.8769
   97OSM    C6S 9624   3.687   5.606  10.578 -0.2306  0.2622  0.0490
   97OSM    H6S 9625   3.673   5.496  10.591 -3.8140  0.7816  1.8509
   97OSM    H6T 9626   3.723   5.609  10.473 -1.0296 -0.3880 -0.2582
   97OSM    C7S 9627   3.544   5.666  10.584  0.4499 -0.2995  0.5550
   97OSM    H7S 9628   3.556   5.775  10.568 -0.7888 -0.2515 -0.1546
   97OSM    H7T 9629   3.496   5.642  10.682  1.3360  0.2461  1.1420
   97OSM    C8S 9630   3.454   5.616  10.471 -0.2417 -0.0185 -0.4086
   97OSM    H8S 9631   3.492   5.651  10.373 -0.5300 -1.7173 -1.1499
   97OSM    H8T 9632   3.353   5.662  10.485 -1.2003 -1.1549 -2.9385
   97OSM    C9S 9633   3.444   5.465  10.477 -0.3908 -0.2739 -0.1490
   97OSM    H9S 9634   3.433   5.425  10.580 -1.1560  2.2652  0.8301
   97OSM    H9T 9635   3.541   5.423  10.442 -1.0884 -1.0864 -1.1702
   97OSM   C10S 9636   3.336   5.399  10.382  0.4792  0.1875  0.5661
   97OSM   H10S 9637   3.364   5.427  10.278  1.8907 -1.7196  0.3783
   97OSM   H10T 9638   3.232   5.431  10.404 -0.1682 -1.7078  0.4158
   97OSM   C11S 9639   3.336   5.236  10.381  0.0955  0.0371 -0.8370
   97OSM   H11S 9640   3.297   5.198  10.477  2.4724  0.9823  0.6162
   97OSM   H11T 9641   3.442   5.203  10.381 -0.2662 -1.1621 -1.2538
   97OSM   C12S 9642   3.256   5.158  10.273  0.0685  0.5493 -0.1584
   97OSM   H12S 9643   3.150   5.184  10.251  0.2851  1.3606 -0.2825
   97OSM   H12T 9644   3.244   5.054  10.309 -0.5634 -0.1183 -2.1645
   97OSM   C13S 9645   3.316   5.143  10.127  0.3951  0.2916 -0.4753
   97OSM   H13S 9646   3.250   5.083  10.061 -0.4613 -1.4787  1.8361
   97OSM   H13T 9647   3.415   5.094  10.133  0.6037  0.6880 -0.6065
   97OSM   C14S 9648   3.316   5.283  10.063 -0.5073 -0.1425 -0.0101
   97OSM   H14S 9649   3.401   5.347  10.093 -0.6856  0.9887 -1.7802
   97OSM   H14T 9650   3.227   5.338  10.100  0.2769 -0.1365  1.9563
   97OSM   C15S 9651   3.329   5.282   9.904  0.0043 -0.1369 -0.1240
   97OSM   H15S 9652   3.236   5.240   9.859  0.6465 -0.5928 -1.0449
   97OSM   H15T 9653   3.410   5.211   9.879  1.5111  0.9983  1.2971
   97OSM   C16S 9654   3.365   5.420   9.856  0.1267  0.2411  0.5323
   97OSM   H16S 9655   3.431   5.463   9.934 -0.3600  0.2387  0.9569
   97OSM   H16T 9656   3.267   5.472   9.851  0.2082  0.4940  1.4037
   97OSM   C17S 9657   3.444   5.424   9.728 -0.0623  0.1707 -0.2382
   97OSM   H17S 9658   3.541   5.371   9.739 -1.1083 -1.3872  2.3789
   97OSM   H17T 9659   3.482   5.528   9.719  0.3219 -0.1486 -3.8849
   97OSM   C18S 9660   3.367   5.385   9.604  0.0908 -0.2232 -0.2570
   97OSM   H18S 9661   3.287   5.461   9.617  1.2456  0.5941  3.3497
   97OSM   H18T 9662   3.330   5.280   9.613 -1.5345  0.4903  2.4923
   97OSM   H18U 9663   3.420   5.401   9.508 -1.8495 -0.5945 -1.4433
   97OSM    C1F 9664   4.024   6.040  10.611 -0.6828 -0.6621  0.3615
   97OSM     OF 9665   4.125   5.974  10.597 -0.3366 -0.1448 -0.5932
   97OSM    C2F 9666   3.981   6.154  10.519 -0.2750  0.5665 -0.0406
   97OSM    H2F 9667   3.965   6.239  10.588 -1.0841  0.6193 -0.2863
   97OSM    H2G 9668   3.887   6.118  10.472  0.6334 -2.9677  0.5541
   97OSM    C3F 9669   4.105   6.180  10.423  0.5779  0.5509 -0.1681
   97OSM    H3F 9670   4.140   6.085  10.377  0.1700 -0.3956  1.4365
   97OSM    H3G 9671   4.189   6.225  10.479  2.3073 -0.7757 -1.5780
   97OSM    C4F 9672   4.062   6.275  10.311  0.0946  0.0357  0.1611
   97OSM    H4F 9673   3.960   6.317  10.328 -0.1684  0.1701 -1.5908
   97OSM    H4G 9674   4.046   6.212  10.221 -0.8745 -1.0067  1.0131
   97OSM    C5F 9675   4.141   6.407  10.301 -0.1113  0.1126  1.0066
   97OSM    H5F 9676   4.250   6.388  10.300  0.4919  3.1946  1.2318
   97OSM    H5G 9677   4.116   6.477  10.383  3.9310  2.3683  0.5421
   97OSM    C6F 9678   4.110   6.480  10.162 -0.7294  0.4441  0.8073
   97OSM    H6F 9679   4.159   6.579  10.164  3.1801 -1.1950 -1.3188
   97OSM    H6G 9680   4.001   6.499  10.151 -0.5718  1.2374  0.5694
   97OSM    C7F 9681   4.157   6.403  10.037  0.3221  0.0106  0.5003
   97OSM    H7F 9682   4.085   6.321  10.015 -0.1408  0.8742 -1.3972
   97OSM    H7G 9683   4.258   6.361  10.058  1.2524  0.4847 -2.5137
   97OSM    C8F 9684   4.144   6.483   9.904  0.0206  0.1996  0.4306
   97OSM    H8F 9685   4.213   6.570   9.907  0.2757 -0.0290  2.0264
   97OSM    H8G 9686   4.051   6.543   9.907  0.7580  1.3375  1.3418
   97OSM    C9F 9687   4.157   6.403   9.777  0.4488  0.0712  0.1878
   97OSM    H9F 9688   4.094   6.313   9.771 -0.3716  0.4525  2.3485
   97OSM   C10F 9689   4.238   6.427   9.676 -0.4296  0.6460 -0.3163
   97OSM   H10F 9690   4.230   6.365   9.587 -2.1202  0.1706  0.1339
   97OSM   C11F 9691   4.343   6.533   9.672 -0.1886  0.0207 -0.4773
   97OSM   H11F 9692   4.445   6.490   9.678 -0.5907 -0.7447  1.7144
   97OSM   H11G 9693   4.337   6.596   9.764 -0.3299  1.1555 -1.2448
   97OSM   C12F 9694   4.317   6.632   9.558 -0.0081  0.7045  0.2872
   97OSM   H12F 9695   4.398   6.707   9.543  1.2309 -0.9286 -1.8773
   97OSM   H12G 9696   4.217   6.679   9.572 -1.5562 -2.0677 -0.7487
   97OSM   C13F 9697   4.323   6.569   9.414 -0.0364  0.0259 -0.3688
   97OSM   H13F 9698   4.278   6.468   9.411  0.0717 -0.1422  1.9332
   97OSM   H13G 9699   4.429   6.546   9.390  0.5070 -0.1710  1.9513
   97OSM   C14F 9700   4.261   6.657   9.302  0.6319 -0.4365  0.6309
   97OSM   H14F 9701   4.293   6.762   9.323 -0.7082  0.7252 -2.4274
   97OSM   H14G 9702   4.151   6.648   9.312  0.3139  0.1247 -1.6372
   97OSM   C15F 9703   4.318   6.618   9.162  0.4222 -0.7496 -0.5359
   97OSM   H15F 9704   4.350   6.511   9.160  0.7134 -0.6680 -0.2363
   97OSM   H15G 9705   4.403   6.686   9.143 -0.4269  0.4604 -0.1250
   97OSM   C16F 9706   4.217   6.642   9.051 -0.4483 -0.0949  0.5942
   97OSM   H16F 9707   4.177   6.745   9.054 -1.7306 -0.5484 -0.1828
   97OSM   H16G 9708   4.131   6.572   9.057  0.2173 -1.0168 -0.1695
   97OSM   C17F 9709   4.277   6.625   8.908  0.2657  0.1857 -0.1626
   97OSM   H17F 9710   4.209   6.591   8.827  0.7641 -0.1225 -0.4626
   97OSM   H17G 9711   4.351   6.543   8.921  0.4485  0.5206  0.9713
   97OSM   C18F 9712   4.347   6.748   8.851  0.1965 -0.0113 -0.0116
   97OSM   H18F 9713   4.377   6.726   8.746 -1.5857 -0.7045 -0.4059
   97OSM   H18G 9714   4.436   6.761   8.915 -0.7593 -0.3049  1.4240
   97OSM   H18H 9715   4.282   6.838   8.857 -1.3020 -0.8520 -2.3436
   98OSM      N 9716   3.202   6.233  11.209  0.0903 -0.6778 -0.9319
   98OSM    C15 9717   3.279   6.355  11.240 -0.1239  0.4084  0.2086
   98OSM   H15A 9718   3.321   6.356  11.339  1.4411  2.8492 -0.3757
   98OSM   H15B 9719   3.214   6.442  11.236  1.6011  1.7421 -0.4906
   98OSM   H15C 9720   3.359   6.368  11.168  0.6681 -0.3290  0.9482
   98OSM    C14 9721   3.298   6.118  11.227  0.5245  0.4863 -0.1792
   98OSM   H14A 9722   3.285   6.043  11.151 -0.8290 -0.1758  0.6695
   98OSM   H14B 9723   3.283   6.077  11.326 -1.2327  0.6370 -0.3644
   98OSM   H14C 9724   3.393   6.165  11.206  0.4903  0.0122 -1.4620
   98OSM    C13 9725   3.093   6.215  11.317 -1.0410 -0.4725  0.3446
   98OSM   H13A 9726   3.038   6.308  11.317 -1.1428 -0.5018 -1.5293
   98OSM   H13B 9727   3.131   6.187  11.414 -0.1416 -2.0961 -0.4348
   98OSM   H13C 9728   3.021   6.140  11.287 -1.3498  0.1210 -0.4222
   98OSM    C12 9729   3.138   6.221  11.075 -0.6257  0.1445 -0.2943
   98OSM   H12A 9730   3.055   6.290  11.063 -0.5746  0.1151 -0.8402
   98OSM   H12B 9731   3.103   6.119  11.071  0.6395 -0.2765 -1.2325
   98OSM    C11 9732   3.227   6.239  10.954 -0.1404 -0.2573  0.2364
   98OSM   H11A 9733   3.161   6.248  10.865  1.4482 -0.2983 -0.9854
   98OSM   H11B 9734   3.290   6.153  10.923 -0.4890  0.1885 -1.8181
   98OSM      P 9735   3.275   6.503  10.900 -0.1442  0.1177  0.2879
   98OSM    O13 9736   3.145   6.553  10.948 -0.3582  0.7567  0.1007
   98OSM    O14 9737   3.388   6.596  10.917 -0.7043  0.2105 -0.2928
   98OSM    O11 9738   3.263   6.476  10.743 -0.5057  0.2566  0.3221
   98OSM    O12 9739   3.309   6.355  10.957 -0.4017  0.1227 -0.1131
   98OSM    C1S 9740   3.354   6.398  10.668 -0.6162  0.3289 -0.5341
   98OSM    H1S 9741   3.362   6.304  10.727 -0.3651 -0.2591 -1.4834
   98OSM    H1T 9742   3.450   6.453  10.663 -1.1989  1.3393 -0.8184
   98OSM     NF 9743   3.417   6.267  10.466  0.0347  0.7423 -0.2410
   98OSM    HNF 9744   3.482   6.299  10.396  2.1904  0.2069  1.4166
   98OSM    C2S 9745   3.315   6.356  10.523  0.1439 -0.1880 -0.3037
   98OSM    H2S 9746   3.221   6.300  10.539  1.0776 -1.4005  1.2513
   98OSM    C3S 9747   3.279   6.489  10.446 -1.2300 -0.0444  0.9209
   98OSM    H3S 9748   3.363   6.562  10.450  0.1293 -1.5971  2.7988
   98OSM     O3 9749   3.171   6.563  10.484  0.4610  0.4899  0.0732
   98OSM    HO3 9750   3.147   6.534  10.572 -2.5534  0.7443 -0.5755
   98OSM    C4S 9751   3.262   6.444  10.299  0.0363  0.0405 -0.0535
   98OSM    H4S 9752   3.354   6.449  10.239 -0.4178 -0.1199 -0.7740
   98OSM    C5S 9753   3.139   6.400  10.251 -0.7975 -0.2956 -0.3869
   98OSM    H5S 9754   3.046   6.407  10.310 -0.3307 -1.1626  0.4882
   98OSM    C6S 9755   3.120   6.354  10.112 -0.3804 -0.2430  0.3778
   98OSM    H6S 9756   3.061   6.427  10.052 -1.1777 -0.5326  0.8056
   98OSM    H6T 9757   3.066   6.258  10.121 -1.8787  0.5431  0.0763
   98OSM    C7S 9758   3.248   6.313  10.029 -0.2378  0.2075  0.2331
   98OSM    H7S 9759   3.325   6.278  10.100  0.4309  1.1551 -0.0073
   98OSM    H7T 9760   3.296   6.401   9.981  0.1839 -0.4967 -0.6807
   98OSM    C8S 9761   3.223   6.218   9.915  0.4053 -0.6877  0.1000
   98OSM    H8S 9762   3.150   6.262   9.844  1.4161 -1.6909 -1.6371
   98OSM    H8T 9763   3.188   6.118   9.948 -0.0213 -0.4411  0.4051
   98OSM    C9S 9764   3.353   6.204   9.834 -0.7596 -0.2640  0.2829
   98OSM    H9S 9765   3.436   6.163   9.897  0.1437 -3.1354 -2.5254
   98OSM    H9T 9766   3.381   6.306   9.801  0.0956 -1.1913 -2.0108
   98OSM   C10S 9767   3.349   6.129   9.698 -0.0707  0.5751  0.6462
   98OSM   H10S 9768   3.448   6.149   9.653  0.3635  1.1021  1.7985
   98OSM   H10T 9769   3.269   6.175   9.636  0.7696 -0.0287 -0.9233
   98OSM   C11S 9770   3.329   5.979   9.715  0.0081  1.0409  0.3333
   98OSM   H11S 9771   3.228   5.959   9.757 -0.6973  2.5468 -0.5618
   98OSM   H11T 9772   3.396   5.937   9.792  1.0968  1.3313 -0.4260
   98OSM   C12S 9773   3.351   5.880   9.593  0.3906 -0.0602 -0.3115
   98OSM   H12S 9774   3.252   5.871   9.543 -1.0193  1.6050  1.9973
   98OSM   H12T 9775   3.382   5.784   9.639  0.2485 -0.8667 -1.8279
   98OSM   C13S 9776   3.457   5.926   9.487  0.1898 -0.1043  0.2688
   98OSM   H13S 9777   3.557   5.954   9.527 -0.4065  0.5592  1.3764
   98OSM   H13T 9778   3.415   6.024   9.456  0.1803  0.0986  0.9107
   98OSM   C14S 9779   3.475   5.825   9.373  0.2455  0.7477  0.9402
   98OSM   H14S 9780   3.567   5.848   9.316 -0.6709  0.3044 -0.7925
   98OSM   H14T 9781   3.386   5.820   9.306 -0.3047  4.3135  1.1905
   98OSM   C15S 9782   3.505   5.684   9.432 -0.1260 -0.3379  0.7848
   98OSM   H15S 9783   3.411   5.626   9.443  0.3378 -1.4272 -0.6712
   98OSM   H15T 9784   3.555   5.695   9.531  0.7525  0.5391  0.2587
   98OSM   C16S 9785   3.586   5.592   9.340  0.1881 -0.4215 -0.4818
   98OSM   H16S 9786   3.616   5.500   9.393  1.1380 -0.5004 -1.1383
   98OSM   H16T 9787   3.684   5.633   9.309  0.8265 -1.2304  0.3966
   98OSM   C17S 9788   3.515   5.543   9.214  0.1498 -0.4908 -0.6113
   98OSM   H17S 9789   3.478   5.629   9.154 -0.0696 -0.0364  0.1614
   98OSM   H17T 9790   3.426   5.486   9.245  0.3029  0.3626  1.5543
   98OSM   C18S 9791   3.604   5.464   9.121  0.1839 -0.5786  0.8850
   98OSM   H18S 9792   3.636   5.374   9.178  0.7306 -0.3450  0.9515
   98OSM   H18T 9793   3.693   5.524   9.092 -0.9412  0.8585  0.2671
   98OSM   H18U 9794   3.545   5.412   9.043  0.6049  0.6983 -0.3382
   98OSM    C1F 9795   3.436   6.146  10.513 -0.7893 -0.7124 -0.1184
   98OSM     OF 9796   3.366   6.103  10.599  0.6786 -0.1259 -0.1081
   98OSM    C2F 9797   3.541   6.074  10.453 -0.5671  0.3910  0.5379
   98OSM    H2F 9798   3.574   5.991  10.519  1.0492  0.0347 -0.6235
   98OSM    H2G 9799   3.631   6.139  10.448 -1.2138  1.2525 -0.1118
   98OSM    C3F 9800   3.508   6.020  10.318  0.0319  0.2297 -0.2702
   98OSM    H3F 9801   3.498   6.111  10.255 -0.7282  1.2359  1.2545
   98OSM    H3G 9802   3.407   5.976  10.329 -0.3191  1.5401  2.4834
   98OSM    C4F 9803   3.618   5.925  10.254  0.6961 -0.6840 -0.5249
   98OSM    H4F 9804   3.630   5.843  10.328 -0.9986 -1.0248 -0.5825
   98OSM    H4G 9805   3.716   5.977  10.251  1.0210 -0.8727  2.6992
   98OSM    C5F 9806   3.573   5.879  10.117  0.3408  0.2583 -0.3471
   98OSM    H5F 9807   3.576   5.958  10.040 -0.5020 -2.1038 -2.9511
   98OSM    H5G 9808   3.474   5.833  10.135  0.0412 -0.4840 -3.3813
   98OSM    C6F 9809   3.654   5.764  10.059 -0.3546 -0.4176 -0.6491
   98OSM    H6F 9810   3.663   5.674  10.124 -0.2994  0.4696  0.6020
   98OSM    H6G 9811   3.760   5.796  10.056 -0.2059 -0.8455 -3.4760
   98OSM    C7F 9812   3.610   5.715   9.921 -0.1595 -0.0923  0.3315
   98OSM    H7F 9813   3.609   5.807   9.859 -1.1532 -0.4493 -0.2055
   98OSM    H7G 9814   3.510   5.666   9.921  0.3169 -1.0927  0.5867
   98OSM    C8F 9815   3.718   5.633   9.840  0.3490  0.1973  0.1627
   98OSM    H8F 9816   3.670   5.616   9.741  2.0937  1.6929 -0.9989
   98OSM    H8G 9817   3.736   5.533   9.886  0.7360 -0.1334 -0.6926
   98OSM    C9F 9818   3.856   5.691   9.805 -0.4053  0.1181 -0.9075
   98OSM    H9F 9819   3.930   5.690   9.886  1.0313 -2.4169 -2.1516
   98OSM   C10F 9820   3.897   5.745   9.692 -0.7076  0.6846  0.0197
   98OSM   H10F 9821   3.996   5.791   9.685  1.1353 -3.1146 -2.3800
   98OSM   C11F 9822   3.814   5.748   9.568 -0.1695  0.3738  0.3636
   98OSM   H11F 9823   3.722   5.800   9.601 -0.0780 -0.1445  1.5044
   98OSM   H11G 9824   3.792   5.643   9.539 -1.3298  0.4216  0.9883
   98OSM   C12F 9825   3.887   5.824   9.449  1.3939 -0.0344 -0.7605
   98OSM   H12F 9826   3.929   5.918   9.490 -0.4179  1.0472 -1.2656
   98OSM   H12G 9827   3.813   5.850   9.370  0.3854 -0.7284 -0.0691
   98OSM   C13F 9828   3.979   5.727   9.373  0.4652  0.2881 -0.0621
   98OSM   H13F 9829   3.918   5.640   9.340 -0.6146  0.7079  0.7343
   98OSM   H13G 9830   4.062   5.680   9.430 -1.0143 -3.3919 -0.6532
   98OSM   C14F 9831   4.031   5.785   9.243 -0.0778  0.5284  0.6625
   98OSM   H14F 9832   4.079   5.884   9.257  1.5374 -0.2612  0.8690
   98OSM   H14G 9833   3.938   5.800   9.183 -0.5332  0.5542  1.3595
   98OSM   C15F 9834   4.140   5.688   9.190 -0.1170 -0.0581  0.0717
   98OSM   H15F 9835   4.096   5.587   9.175  2.4710 -1.0240 -1.6426
   98OSM   H15G 9836   4.219   5.683   9.268 -1.6447  0.3067  1.7003
   98OSM   C16F 9837   4.193   5.722   9.052  0.6643  0.6255 -0.5171
   98OSM   H16F 9838   4.108   5.719   8.982 -0.6990  2.5381  0.9323
   98OSM   H16G 9839   4.274   5.651   9.027 -0.2169 -0.6080  0.0409
   98OSM   C17F 9840   4.248   5.870   9.046 -0.4343  0.0930 -0.6763
   98OSM   H17F 9841   4.297   5.894   9.143  0.3170  3.3681 -1.7522
   98OSM   H17G 9842   4.164   5.942   9.036  1.7345  2.5893 -2.1253
   98OSM   C18F 9843   4.346   5.876   8.936  0.0465 -0.9078 -0.7242
   98OSM   H18F 9844   4.294   5.853   8.841  2.2856 -1.2830 -1.9458
   98OSM   H18G 9845   4.423   5.798   8.957 -0.4115 -1.3635 -0.7334
   98OSM   H18H 9846   4.385   5.979   8.927 -1.5251  0.1645  2.9813
   99OSM      N 9847   4.992   0.385  10.933  0.3813 -0.2340  0.6731
   99OSM    C15 9848   4.895   0.444  10.829 -0.3311 -0.0063  0.0532
   99OSM   H15A 9849   4.918   0.543  10.793 -0.7112 -0.2103 -0.7793
   99OSM   H15B 9850   4.804   0.442  10.887 -0.8078 -1.8176 -0.6704
   99OSM   H15C 9851   4.876   0.383  10.742  0.5048  0.7616 -0.6938
   99OSM    C14 9852   5.000   0.480  11.049  0.1329 -0.1947  0.6771
   99OSM   H14A 9853   5.001   0.580  11.009  0.1973 -0.6819 -0.6022
   99OSM   H14B 9854   5.092   0.460  11.101  0.4895  1.8502  0.9031
   99OSM   H14C 9855   4.920   0.473  11.121  0.9813  4.6551  2.4352
   99OSM    C13 9856   4.937   0.258  10.977  0.3358  0.0597 -0.5874
   99OSM   H13A 9857   4.837   0.272  11.015  0.4491 -2.0646  0.7007
   99OSM   H13B 9858   4.996   0.218  11.058 -1.2308  0.1221  0.6399
   99OSM   H13C 9859   4.937   0.194  10.890  1.4085 -0.4251 -0.2446
   99OSM    C12 9860   5.127   0.363  10.866 -0.3770 -0.7166  0.4201
   99OSM   H12A 9861   5.197   0.322  10.937  1.0564  0.8403 -0.0149
   99OSM   H12B 9862   5.159   0.459  10.827  0.1130 -1.0395  0.0127
   99OSM    C11 9863   5.116   0.263  10.749 -0.4109 -0.0062 -0.6069
   99OSM   H11A 9864   5.212   0.273  10.693 -0.6371  0.7986 -0.8632
   99OSM   H11B 9865   5.036   0.286  10.675 -0.8661  1.0130  0.1776
   99OSM      P 9866   5.234   0.048  10.869 -0.5004  0.0865 -0.3446
   99OSM    O13 9867   5.315   0.147  10.957  0.1166  0.8793 -0.3243
   99OSM    O14 9868   5.177  -0.073  10.932  0.7814 -0.2470 -0.3293
   99OSM    O11 9869   5.316  -0.004  10.741 -0.4067 -0.1251  0.2132
   99OSM    O12 9870   5.109   0.128  10.799 -0.3882 -0.2389  0.5720
   99OSM    C1S 9871   5.250  -0.060  10.628  0.1431  1.2069  0.1180
   99OSM    H1S 9872   5.157  -0.005  10.604 -0.3516  0.2374 -0.2456
   99OSM    H1T 9873   5.223  -0.167  10.645 -1.2340  1.6028  0.5605
   99OSM     NF 9874   5.244  -0.118  10.382 -0.5508  0.3798  0.3542
   99OSM    HNF 9875   5.273  -0.204  10.340 -1.8513  0.9236 -1.7493
   99OSM    C2S 9876   5.331  -0.050  10.488 -0.1161 -0.6474 -0.3747
   99OSM    H2S 9877   5.334   0.058  10.465  0.5131 -0.8728 -1.3946
   99OSM    C3S 9878   5.474  -0.107  10.503  0.4895 -0.8383 -0.1359
   99OSM    H3S 9879   5.457  -0.217  10.503 -1.2832 -0.5956  0.3465
   99OSM     O3 9880   5.548  -0.077  10.622  0.0699 -0.2841 -0.5639
   99OSM    HO3 9881   5.490  -0.026  10.679 -0.3613 -0.1072 -1.1538
   99OSM    C4S 9882   5.557  -0.080  10.385  0.1802 -0.2100  0.2826
   99OSM    H4S 9883   5.575  -0.162  10.314 -1.7566  1.6028 -2.4857
   99OSM    C5S 9884   5.600   0.037  10.349 -0.3804  0.3947 -0.5037
   99OSM    H5S 9885   5.587   0.125  10.415 -1.0539  2.9278 -3.7363
   99OSM    C6S 9886   5.678   0.055  10.227 -0.5620  0.3069 -0.3832
   99OSM    H6S 9887   5.716  -0.039  10.182  0.3800  0.0100  1.0080
   99OSM    H6T 9888   5.765   0.119  10.251 -0.9474  0.3158  1.0549
   99OSM    C7S 9889   5.583   0.122  10.122 -0.5469 -0.9879  0.0614
   99OSM    H7S 9890   5.552   0.222  10.161  1.8347  0.6987 -2.0833
   99OSM    H7T 9891   5.497   0.056  10.094 -1.2108 -0.5282  0.9609
   99OSM    C8S 9892   5.660   0.156   9.990  0.3931 -0.4359  0.6982
   99OSM    H8S 9893   5.723   0.069   9.960  3.0111  1.1278  1.3795
   99OSM    H8T 9894   5.722   0.247   9.992 -0.3572  0.1191 -0.3366
   99OSM    C9S 9895   5.567   0.184   9.864 -0.3145  0.3605 -0.1496
   99OSM    H9S 9896   5.503   0.274   9.875  1.6512  2.2839 -2.8697
   99OSM    H9T 9897   5.500   0.099   9.840  0.4395  0.1440 -1.6167
   99OSM   C10S 9898   5.648   0.184   9.743 -0.5679 -0.2424 -0.7824
   99OSM   H10S 9899   5.656   0.083   9.698 -1.5849 -2.3789  3.3615
   99OSM   H10T 9900   5.744   0.231   9.772 -2.0281  2.5817 -0.1704
   99OSM   C11S 9901   5.597   0.289   9.636  0.1979 -0.3379 -0.4944
   99OSM   H11S 9902   5.581   0.386   9.687 -0.7234 -0.8134  0.1291
   99OSM   H11T 9903   5.504   0.252   9.587  1.6703 -2.6828 -1.7040
   99OSM   C12S 9904   5.702   0.309   9.519 -0.2893  0.1832 -0.7305
   99OSM   H12S 9905   5.800   0.341   9.561  0.0280 -0.1383 -1.2111
   99OSM   H12T 9906   5.720   0.212   9.467 -2.2502 -1.0785  0.7793
   99OSM   C13S 9907   5.651   0.407   9.408  0.4913 -0.1789  0.0821
   99OSM   H13S 9908   5.652   0.509   9.451 -0.7419 -0.1492  0.0992
   99OSM   H13T 9909   5.547   0.370   9.394  0.2707 -0.2756  1.7708
   99OSM   C14S 9910   5.726   0.383   9.272  0.3215 -0.0045  0.3064
   99OSM   H14S 9911   5.671   0.436   9.192  1.2486  0.5748  0.0307
   99OSM   H14T 9912   5.723   0.273   9.262 -1.8427  0.1067 -0.5739
   99OSM   C15S 9913   5.877   0.422   9.274  0.1712  0.1771 -0.3160
   99OSM   H15S 9914   5.921   0.366   9.360  2.3391 -1.4830 -2.3649
   99OSM   H15T 9915   5.874   0.531   9.297  0.4525 -0.0987  1.1697
   99OSM   C16S 9916   5.952   0.387   9.147  0.1909  0.5010 -0.1759
   99OSM   H16S 9917   5.946   0.277   9.137  1.6967  0.2863  0.9564
   99OSM   H16T 9918   6.061   0.407   9.153  0.4875 -0.4197 -1.9228
   99OSM   C17S 9919   5.894   0.439   9.012  0.1371 -0.3739  0.2098
   99OSM   H17S 9920   5.886   0.550   9.016  0.5661 -0.3730  1.1680
   99OSM   H17T 9921   5.790   0.399   9.006 -0.4171  0.2182  3.8685
   99OSM   C18S 9922   5.966   0.381   8.889 -0.2541 -0.0350 -0.5935
   99OSM   H18S 9923   5.930   0.406   8.787  1.0768  0.2961 -1.0087
   99OSM   H18T 9924   5.963   0.270   8.893 -0.2829 -0.0616 -1.1981
   99OSM   H18U 9925   6.071   0.418   8.887 -0.9683  2.4197  1.8981
   99OSM    C1F 9926   5.126  -0.075  10.345  0.0249  0.0010 -0.0463
   99OSM     OF 9927   5.095   0.037  10.367 -0.3262  0.0850 -0.1684
   99OSM    C2F 9928   5.031  -0.173  10.273  0.4081 -0.2848 -0.4710
   99OSM    H2F 9929   4.939  -0.193  10.333  0.7205 -1.2494 -0.3085
   99OSM    H2G 9930   5.092  -0.265  10.257  2.4366  0.7334  0.9729
   99OSM    C3F 9931   4.978  -0.118  10.139  0.6844  0.1997 -0.2398
   99OSM    H3F 9932   4.910  -0.198  10.104  1.4880 -1.0269  0.9252
   99OSM    H3G 9933   4.914  -0.028  10.157  1.2844  0.2398  1.9854
   99OSM    C4F 9934   5.086  -0.092  10.029 -0.4800 -0.0544 -0.4721
   99OSM    H4F 9935   5.151  -0.007  10.058  1.1261 -0.8785 -1.5252
   99OSM    H4G 9936   5.029  -0.058   9.940 -0.6589  0.1610 -0.2764
   99OSM    C5F 9937   5.178  -0.212   9.996 -0.2669 -0.9818 -0.3366
   99OSM    H5F 9938   5.102  -0.290   9.974 -0.2243 -2.4742  3.8124
   99OSM    H5G 9939   5.239  -0.239  10.085 -0.7804 -0.9034  0.0484
   99OSM    C6F 9940   5.265  -0.183   9.871  0.0446  0.5105  0.4116
   99OSM    H6F 9941   5.319  -0.277   9.847 -1.9196 -0.8032  0.8571
   99OSM    H6G 9942   5.346  -0.109   9.890 -0.0479  0.8171 -0.3526
   99OSM    C7F 9943   5.172  -0.154   9.744 -0.1496 -0.3709 -1.1233
   99OSM    H7F 9944   5.128  -0.053   9.759  0.6427 -0.0904 -0.6503
   99OSM    H7G 9945   5.091  -0.229   9.754 -0.6853  0.1749 -1.2777
   99OSM    C8F 9946   5.243  -0.174   9.607  0.1108 -0.5902  0.1067
   99OSM    H8F 9947   5.156  -0.191   9.540  0.7992 -1.1141 -0.6756
   99OSM    H8G 9948   5.304  -0.267   9.603 -0.7796 -1.1557 -1.6082
   99OSM    C9F 9949   5.330  -0.057   9.572 -0.4286 -0.7453 -0.2836
   99OSM    H9F 9950   5.345   0.014   9.655  0.4209 -0.3820 -0.7315
   99OSM   C10F 9951   5.393  -0.026   9.456 -0.5371  0.4464 -0.5115
   99OSM   H10F 9952   5.445   0.071   9.451 -1.9723  1.1988 -1.3875
   99OSM   C11F 9953   5.398  -0.104   9.328  0.4833 -0.0093 -0.4832
   99OSM   H11F 9954   5.356  -0.041   9.247  1.1841  0.1046 -0.7686
   99OSM   H11G 9955   5.330  -0.192   9.333  0.3445 -0.0779 -2.5073
   99OSM   C12F 9956   5.540  -0.154   9.290 -0.1724 -0.0239  0.3893
   99OSM   H12F 9957   5.569  -0.236   9.358 -2.3854 -2.0212 -0.9179
   99OSM   H12G 9958   5.598  -0.059   9.291 -0.5914  0.2372  1.4653
   99OSM   C13F 9959   5.561  -0.208   9.147  0.6608  0.1283 -0.1946
   99OSM   H13F 9960   5.561  -0.130   9.068  0.1250 -1.2705 -1.6354
   99OSM   H13G 9961   5.482  -0.280   9.116  0.8663 -1.0134  1.7994
   99OSM   C14F 9962   5.702  -0.273   9.130 -0.3319 -0.1113 -0.0163
   99OSM   H14F 9963   5.716  -0.348   9.211  1.1405 -0.1819 -0.2975
   99OSM   H14G 9964   5.771  -0.188   9.150 -0.5329  0.2588 -0.8679
   99OSM   C15F 9965   5.737  -0.319   8.984  0.1322 -0.7478 -0.4512
   99OSM   H15F 9966   5.685  -0.249   8.916  0.6775 -0.0478 -0.1708
   99OSM   H15G 9967   5.689  -0.419   8.977 -1.0150 -0.3452  1.0760
   99OSM   C16F 9968   5.884  -0.341   8.946  0.9656 -0.3508  0.3107
   99OSM   H16F 9969   5.929  -0.240   8.937 -0.2607  0.4038  2.1162
   99OSM   H16G 9970   5.873  -0.384   8.844  0.5031 -0.3650  0.3624
   99OSM   C17F 9971   5.959  -0.444   9.027  0.2796 -0.1963  0.1233
   99OSM   H17F 9972   5.881  -0.519   9.051  0.3499 -0.1637  0.4630
   99OSM   H17G 9973   5.999  -0.405   9.123  3.1920 -1.2814 -0.5527
   99OSM   C18F 9974   6.071  -0.513   8.960  0.0150  0.0557  0.0193
   99OSM   H18F 9975   6.092  -0.611   9.010 -1.7069 -0.1563  0.3869
   99OSM   H18G 9976   6.166  -0.456   8.959 -0.3416  0.7646  1.7745
   99OSM   H18H 9977   6.049  -0.525   8.852 -0.5254  1.0022  0.0092
  100OSM      N 9978   6.804   0.224  11.059  0.4928  0.0157  0.1286
  100OSM    C15 9979   6.890   0.321  10.985 -0.6236  0.2273 -0.1129
  100OSM   H15A 9980   6.962   0.248  10.952 -0.8208  0.1462 -0.3664
  100OSM   H15B 9981   6.937   0.386  11.058 -1.2355 -0.5143  0.9782
  100OSM   H15C 9982   6.839   0.371  10.904  0.8900  0.6806 -0.8207
  100OSM    C14 9983   6.884   0.191  11.182  0.4331  0.6989 -0.0975
  100OSM   H14A 9984   6.920   0.277  11.237 -1.2064  0.8096  0.9013
  100OSM   H14B 9985   6.976   0.138  11.162  2.2747  0.9008  5.8361
  100OSM   H14C 9986   6.816   0.141  11.249  0.4708 -0.6194 -1.0250
  100OSM    C13 9987   6.673   0.293  11.109 -0.5548  0.4241  0.9523
  100OSM   H13A 9988   6.609   0.227  11.167  0.9115  0.0098  2.1833
  100OSM   H13B 9989   6.612   0.321  11.025  0.2300 -2.8595 -0.9011
  100OSM   H13C 9990   6.702   0.387  11.153  2.1127  0.4399 -0.6725
  100OSM    C12 9991   6.773   0.094  10.984  0.0143  0.0476 -0.0923
  100OSM   H12A 9992   6.724   0.122  10.892 -1.0943 -0.4817  0.3273
  100OSM   H12B 9993   6.707   0.040  11.050 -1.1313 -0.6017 -1.7055
  100OSM    C11 9994   6.893  -0.001  10.965  0.2628  0.6899  0.2085
  100OSM   H11A 9995   6.860  -0.100  10.928 -2.9210  1.6053  0.2666
  100OSM   H11B 9996   6.935  -0.022  11.066 -0.1191  0.8901  0.4117
  100OSM      P 9997   7.133  -0.002  10.870 -0.2611  0.2600 -0.3703
  100OSM    O13 9998   7.240   0.095  10.831 -0.8315 -0.1137  0.9143
  100OSM    O14 9999   7.162  -0.084  10.990  0.0189 -0.3496 -0.0861
  100OSM    O1110000   7.117  -0.105  10.755 -0.6230 -0.1274  0.1783
  100OSM    O1210001   6.989   0.059  10.870  0.7521 -0.2637  0.5806
  100OSM    C1S10002   7.061  -0.066  10.625  0.4885 -0.1239  0.7248
  100OSM    H1S10003   7.049   0.044  10.620 -4.3080 -0.1807  4.0931
  100OSM    H1T10004   6.959  -0.106  10.606  0.9729 -1.1555  0.2152
  100OSM     NF10005   7.098  -0.066  10.375 -0.2744 -0.1582 -0.3492
  100OSM    HNF10006   7.066  -0.136  10.312 -0.6458  0.5684 -0.9699
  100OSM    C2S10007   7.155  -0.111  10.509 -0.0602  0.9292  0.5503
  100OSM    H2S10008   7.247  -0.052  10.527  0.0878  0.5889  0.9082
  100OSM    C3S10009   7.177  -0.271  10.516  0.1379 -0.7616 -0.2511
  100OSM    H3S10010   7.081  -0.324  10.502  1.4232 -3.9553  1.8499
  100OSM     O310011   7.225  -0.324  10.640 -0.0661  0.2001  0.0171
  100OSM    HO310012   7.214  -0.245  10.693 -0.6339 -0.6911  1.2676
  100OSM    C4S10013   7.277  -0.319  10.409  0.6931  0.2635 -0.3087
  100OSM    H4S10014   7.236  -0.352  10.312 -0.8055 -1.3935  0.8076
  100OSM    C5S10015   7.411  -0.341  10.427  0.5056 -0.6500  0.5418
  100OSM    H5S10016   7.463  -0.306  10.517  1.2444 -0.5036  0.0696
  100OSM    C6S10017   7.498  -0.394  10.318  0.5836  0.9762 -0.4548
  100OSM    H6S10018   7.512  -0.502  10.340  3.7953  1.2594 -0.6669
  100OSM    H6T10019   7.601  -0.353  10.326 -0.0297  2.3892  0.8978
  100OSM    C7S10020   7.454  -0.357  10.178 -0.8136  0.0209  0.3639
  100OSM    H7S10021   7.354  -0.399  10.153 -0.3440  0.3661 -2.3590
  100OSM    H7T10022   7.525  -0.413  10.113 -1.4004 -0.1496 -0.1407
  100OSM    C8S10023   7.464  -0.206  10.148 -0.5962  0.0717  0.0678
  100OSM    H8S10024   7.552  -0.165  10.202 -1.9675  0.6283  1.9760
  100OSM    H8T10025   7.376  -0.158  10.195  0.6233  3.4866 -0.8243
  100OSM    C9S10026   7.465  -0.171   9.999  0.5409  0.4840 -0.3684
  100OSM    H9S10027   7.409  -0.246   9.940  0.9424  0.7900 -1.1601
  100OSM    H9T10028   7.574  -0.173   9.975  1.2251 -0.7661  2.3390
  100OSM   C10S10029   7.410  -0.031   9.974  0.2108 -0.3972 -0.0092
  100OSM   H10S10030   7.491   0.040  10.000  0.9640 -0.9817 -0.7279
  100OSM   H10T10031   7.324  -0.004  10.040 -0.2693 -0.1908 -0.7073
  100OSM   C11S10032   7.373  -0.002   9.824  0.3822 -0.0944 -0.1124
  100OSM   H11S10033   7.336   0.101   9.805 -3.4697 -1.2535  0.2298
  100OSM   H11T10034   7.282  -0.058   9.797  0.5605 -1.0510  1.1575
  100OSM   C12S10035   7.493  -0.044   9.733 -0.3146 -0.3978 -0.1145
  100OSM   H12S10036   7.536  -0.141   9.763 -2.1195 -1.2982 -0.3007
  100OSM   H12T10037   7.575   0.030   9.746  0.5080 -0.6239 -3.2520
  100OSM   C13S10038   7.464  -0.051   9.581 -0.0698 -0.0446  0.1022
  100OSM   H13S10039   7.452   0.057   9.554 -0.6448  0.3115  1.6983
  100OSM   H13T10040   7.372  -0.111   9.565 -0.4268  0.8010 -1.2199
  100OSM   C14S10041   7.577  -0.117   9.498  0.3779 -0.3442  0.3344
  100OSM   H14S10042   7.594  -0.219   9.538  0.0593  0.3079  2.2432
  100OSM   H14T10043   7.667  -0.051   9.492  0.4599 -0.4590  0.3092
  100OSM   C15S10044   7.523  -0.132   9.353  0.0141 -0.2969 -0.2653
  100OSM   H15S10045   7.510  -0.036   9.297 -0.7189 -1.5751 -2.4012
  100OSM   H15T10046   7.426  -0.185   9.345  0.2394 -0.5596 -1.4383
  100OSM   C16S10047   7.634  -0.200   9.266 -0.1731  0.0456 -0.1157
  100OSM   H16S10048   7.640  -0.306   9.297 -2.4420 -0.3679 -0.8905
  100OSM   H16T10049   7.722  -0.133   9.278 -0.9170  1.1825 -0.8389
  100OSM   C17S10050   7.602  -0.215   9.117  0.7328 -0.1292  0.8050
  100OSM   H17S10051   7.594  -0.116   9.067 -0.9043 -0.3911  0.4889
  100OSM   H17T10052   7.499  -0.254   9.101  0.5352  0.7557 -0.1706
  100OSM   C18S10053   7.701  -0.297   9.033 -0.0825 -0.1571  0.3228
  100OSM   H18S10054   7.790  -0.230   9.036 -1.2100  1.3938  0.6003
  100OSM   H18T10055   7.671  -0.298   8.926 -1.7810  2.5992  0.6899
  100OSM   H18U10056   7.712  -0.399   9.076  0.6469 -0.3554 -0.2932
  100OSM    C1F10057   7.088   0.064  10.342 -0.1113  0.1167  0.7988
  100OSM     OF10058   7.147   0.141  10.415  0.7214 -0.5832 -0.7872
  100OSM    C2F10059   7.006   0.102  10.219  0.2778 -0.7829 -0.0786
  100OSM    H2F10060   6.974   0.008  10.169  0.4506 -1.1125  0.4142
  100OSM    H2G10061   7.069   0.161  10.149  0.0711  0.5879  0.8489
  100OSM    C3F10062   6.885   0.206  10.252 -0.2110  0.3401  0.1538
  100OSM    H3F10063   6.927   0.284  10.319 -0.4481  0.9685 -0.4110
  100OSM    H3G10064   6.822   0.150  10.324 -0.2068 -0.4744 -0.4616
  100OSM    C4F10065   6.811   0.269  10.134  0.2742 -1.1192  0.1642
  100OSM    H4F10066   6.879   0.344  10.088  0.3706 -1.5094 -0.3392
  100OSM    H4G10067   6.717   0.313  10.172  1.4072  0.6257  1.0903
  100OSM    C5F10068   6.766   0.170  10.030 -0.7171 -0.2633  0.4757
  100OSM    H5F10069   6.665   0.189   9.989 -0.7516 -1.0762  0.1713
  100OSM    H5G10070   6.765   0.074  10.086  0.0805 -0.8020 -0.4187
  100OSM    C6F10071   6.858   0.159   9.906  0.5966 -0.5996  0.2783
  100OSM    H6F10072   6.958   0.140   9.952  1.7286  1.5565 -1.1447
  100OSM    H6G10073   6.864   0.254   9.851 -3.7094  0.2005  0.8607
  100OSM    C7F10074   6.814   0.052   9.809  0.0856 -0.0600 -0.7383
  100OSM    H7F10075   6.709   0.087   9.805  0.3794  1.1315  0.9420
  100OSM    H7G10076   6.826  -0.044   9.863 -0.8806 -1.5232 -2.9555
  100OSM    C8F10077   6.879   0.049   9.664 -0.5624 -0.1411 -0.0743
  100OSM    H8F10078   6.839   0.138   9.611 -2.1729 -1.0225 -0.4248
  100OSM    H8G10079   6.842  -0.039   9.608 -1.0668  0.5460 -0.8532
  100OSM    C9F10080   7.032   0.057   9.662 -0.5096 -1.0487 -0.2466
  100OSM    H9F10081   7.084   0.042   9.758  0.5722 -0.9699 -0.7996
  100OSM   C10F10082   7.114   0.067   9.557  0.3569 -0.0624  0.0717
  100OSM   H10F10083   7.220   0.049   9.581  0.2623  0.1512  0.6555
  100OSM   C11F10084   7.078   0.065   9.410 -0.1590  0.8437 -0.2111
  100OSM   H11F10085   7.021   0.157   9.383 -1.6634  0.4222  1.3214
  100OSM   H11G10086   7.005  -0.015   9.385 -0.9936  1.8246 -1.0431
  100OSM   C12F10087   7.200   0.054   9.319 -0.1004  0.7898 -0.1059
  100OSM   H12F10088   7.242  -0.047   9.335  2.7255  1.6600 -1.4360
  100OSM   H12G10089   7.279   0.123   9.356 -0.0933  0.9799 -0.4669
  100OSM   C13F10090   7.168   0.076   9.169 -0.1046  0.1060  0.7479
  100OSM   H13F10091   7.135   0.182   9.158  2.7323  0.9425 -0.7137
  100OSM   H13G10092   7.080   0.012   9.146 -0.2613 -0.1163  1.8919
  100OSM   C14F10093   7.285   0.048   9.069  0.0610 -0.0217  0.6196
  100OSM   H14F10094   7.304  -0.061   9.071  0.7753  0.1139  1.8868
  100OSM   H14G10095   7.372   0.112   9.094 -0.4663 -0.0508  2.8005
  100OSM   C15F10096   7.249   0.085   8.918  0.7289  0.3390 -0.6330
  100OSM   H15F10097   7.141   0.070   8.896  1.2051 -1.1672 -2.1204
  100OSM   H15G10098   7.306   0.026   8.843 -2.3517 -1.0632 -2.0344
  100OSM   C16F10099   7.276   0.232   8.889  0.0078  0.7968  0.1992
  100OSM   H16F10100   7.369   0.275   8.931  0.0498 -0.9323  2.0529
  100OSM   H16G10101   7.192   0.294   8.925  0.2436  0.1050  2.0311
  100OSM   C17F10102   7.306   0.256   8.733 -0.3082 -0.0317 -0.0318
  100OSM   H17F10103   7.215   0.222   8.678 -0.2693  1.6775 -1.2300
  100OSM   H17G10104   7.391   0.196   8.697 -1.1914 -0.4439 -1.5151
  100OSM   C18F10105   7.319   0.402   8.689 -0.2565  0.7912  0.2233
  100OSM   H18F10106   7.345   0.407   8.581 -1.5846  1.5158 -0.0865
  100OSM   H18G10107   7.401   0.454   8.744 -0.1780  0.7220  0.1723
  100OSM   H18H10108   7.224   0.451   8.719 -0.9170  0.6254 -1.4757
  101OSM      N10109   4.016   6.567  11.036  0.4343  0.8077  0.2008
  101OSM    C1510110   3.935   6.630  11.142 -0.8589 -0.2283 -0.1681
  101OSM   H15A10111   3.938   6.738  11.143  1.0103 -0.2355 -0.9595
  101OSM   H15B10112   3.961   6.592  11.240  0.6643 -1.2737 -0.9504
  101OSM   H15C10113   3.832   6.599  11.132 -0.8247 -1.2262  2.0025
  101OSM    C1410114   4.150   6.631  11.048  0.1647 -0.5974 -0.0204
  101OSM   H14A10115   4.146   6.739  11.036 -1.2957 -0.7358 -0.9544
  101OSM   H14B10116   4.208   6.589  10.967  2.5292  2.7154 -0.2567
  101OSM   H14C10117   4.203   6.611  11.140 -0.6069 -0.2193  0.5156
  101OSM    C1310118   4.023   6.415  11.055  0.6619 -0.5687  0.1741
  101OSM   H13A10119   3.925   6.381  11.025  1.4702 -0.9562 -2.2658
  101OSM   H13B10120   4.054   6.374  11.150  0.5345 -0.4675  0.2597
  101OSM   H13C10121   4.101   6.374  10.993  0.1585  0.5576 -1.2751
  101OSM    C1210122   3.953   6.604  10.907  0.1914 -0.1587 -0.1530
  101OSM   H12A10123   3.973   6.708  10.885  1.5596 -0.0125  1.5337
  101OSM   H12B10124   3.848   6.605  10.932  0.6194 -2.7769  2.2770
  101OSM    C1110125   3.975   6.518  10.774  0.1929 -0.0336 -0.4191
  101OSM   H11A10126   4.084   6.514  10.755  0.5303  2.1173  0.8014
  101OSM   H11B10127   3.934   6.574  10.687  1.1511  1.0372 -0.1974
  101OSM      P10128   3.765   6.351  10.774 -0.3160 -0.1365 -0.4035
  101OSM    O1310129   3.739   6.215  10.721  0.1864 -0.1377 -1.3615
  101OSM    O1410130   3.709   6.373  10.911 -0.5545 -0.4586 -0.0982
  101OSM    O1110131   3.713   6.455  10.671  0.5698  0.2805 -0.5858
  101OSM    O1210132   3.920   6.382  10.780  0.0225 -0.5161  0.0313
  101OSM    C1S10133   3.742   6.440  10.528 -0.2374  0.2170 -0.4873
  101OSM    H1S10134   3.699   6.342  10.499  0.6109 -0.3092 -0.0267
  101OSM    H1T10135   3.851   6.435  10.509 -0.3232  0.2033 -0.9930
  101OSM     NF10136   3.726   6.535  10.308 -0.0257  0.2464  0.1544
  101OSM    HNF10137   3.783   6.611  10.279  0.2002  0.2083  0.4929
  101OSM    C2S10138   3.673   6.552  10.439  0.0744  1.0928 -0.1902
  101OSM    H2S10139   3.563   6.534  10.437 -0.4743  4.0049 -0.6696
  101OSM    C3S10140   3.683   6.698  10.497 -0.1336 -0.3979  0.4239
  101OSM    H3S10141   3.793   6.717  10.492 -0.4023  1.0371 -3.2349
  101OSM     O310142   3.642   6.713  10.629  0.4371  0.1896  0.2276
  101OSM    HO310143   3.606   6.629  10.656  1.4859 -0.4892 -0.4483
  101OSM    C4S10144   3.608   6.800  10.415 -0.6338 -0.1200 -0.5753
  101OSM    H4S10145   3.679   6.852  10.349  0.6438  3.2609  3.0560
  101OSM    C5S10146   3.478   6.820  10.421  1.0784  0.2200  0.6655
  101OSM    H5S10147   3.413   6.779  10.500  0.0366  0.1956 -0.1814
  101OSM    C6S10148   3.403   6.915  10.333 -0.8070 -0.0891  0.2022
  101OSM    H6S10149   3.374   6.990  10.411  2.1707 -1.5811  3.0152
  101OSM    H6T10150   3.308   6.861  10.316 -1.3007  0.7790  0.1269
  101OSM    C7S10151   3.473   6.980  10.214  0.6203  0.2078  0.1483
  101OSM    H7S10152   3.583   6.972  10.221  0.6180 -1.6309 -1.3983
  101OSM    H7T10153   3.439   7.085  10.202 -1.7800 -0.2276  2.1814
  101OSM    C8S10154   3.439   6.905  10.079 -0.4075 -0.4023  0.1582
  101OSM    H8S10155   3.445   6.982   9.999 -0.2585  1.9782  2.2898
  101OSM    H8T10156   3.332   6.882  10.095 -0.3050  0.1040  1.7463
  101OSM    C9S10157   3.526   6.779  10.063 -0.9122 -0.1147  0.0950
  101OSM    H9S10158   3.521   6.726  10.160 -0.3821  0.0722  0.2246
  101OSM    H9T10159   3.629   6.819  10.062 -1.4848  1.6292  2.2813
  101OSM   C10S10160   3.472   6.691   9.951  0.3871 -0.0942  0.3822
  101OSM   H10S10161   3.369   6.656   9.974 -1.1270  2.4755 -1.8644
  101OSM   H10T10162   3.537   6.603   9.933  0.1316 -0.8850  2.9749
  101OSM   C11S10163   3.474   6.762   9.816  0.0833 -0.1204 -0.3546
  101OSM   H11S10164   3.582   6.787   9.809  0.4286 -1.4443 -0.0884
  101OSM   H11T10165   3.404   6.849   9.815 -0.8821 -0.7890  1.8965
  101OSM   C12S10166   3.433   6.678   9.692 -0.4136  0.0931  0.3593
  101OSM   H12S10167   3.413   6.743   9.604  0.9393 -0.6294 -0.5142
  101OSM   H12T10168   3.348   6.613   9.722  0.4870 -1.2139  0.1516
  101OSM   C13S10169   3.538   6.568   9.655 -0.6965  0.4089 -0.1450
  101OSM   H13S10170   3.580   6.521   9.746 -0.3921 -0.2526 -0.6202
  101OSM   H13T10171   3.629   6.610   9.605 -0.0010 -1.4960 -0.5639
  101OSM   C14S10172   3.472   6.465   9.563  0.1824 -0.0679  0.6212
  101OSM   H14S10173   3.374   6.422   9.594  1.4381 -2.9238  0.8745
  101OSM   H14T10174   3.525   6.367   9.563  0.0963 -0.1155  0.4555
  101OSM   C15S10175   3.444   6.515   9.421 -0.1016 -0.0267  0.4756
  101OSM   H15S10176   3.377   6.603   9.427  1.0564  0.7930  4.8104
  101OSM   H15T10177   3.391   6.437   9.362 -0.8089 -0.3121  1.4693
  101OSM   C16S10178   3.574   6.547   9.345 -0.5471  0.3724 -0.4404
  101OSM   H16S10179   3.639   6.460   9.367 -1.2889 -0.4942 -1.5262
  101OSM   H16T10180   3.621   6.637   9.389 -1.5319 -0.2218  2.0421
  101OSM   C17S10181   3.564   6.553   9.192 -0.0797  0.2508  0.3792
  101OSM   H17S10182   3.511   6.458   9.166  1.6885 -1.0644  1.3503
  101OSM   H17T10183   3.665   6.560   9.147  0.4636  3.4022  1.8034
  101OSM   C18S10184   3.478   6.668   9.143  0.5698  0.0688 -0.3202
  101OSM   H18S10185   3.431   6.662   9.043 -0.1422 -0.3554  0.0312
  101OSM   H18T10186   3.532   6.764   9.157  0.7926  0.2945 -2.4194
  101OSM   H18U10187   3.387   6.676   9.207  0.4434 -1.1377 -0.3324
  101OSM    C1F10188   3.684   6.433  10.232  0.8408  0.1240  0.4613
  101OSM     OF10189   3.582   6.369  10.255  0.2123 -0.3604  0.2895
  101OSM    C2F10190   3.751   6.412  10.100 -0.2115  0.0074  0.1673
  101OSM    H2F10191   3.857   6.381  10.111 -0.1996 -0.2112 -0.5112
  101OSM    H2G10192   3.759   6.510  10.049  0.6901 -0.3044 -0.3048
  101OSM    C3F10193   3.684   6.304  10.011  0.5236  1.1140  0.1992
  101OSM    H3F10194   3.575   6.324  10.006 -0.0781 -1.9845 -1.6160
  101OSM    H3G10195   3.695   6.207  10.064 -1.6003  0.4603 -0.4913
  101OSM    C4F10196   3.751   6.282   9.873  0.1135  0.2083 -0.5067
  101OSM    H4F10197   3.856   6.318   9.879  0.3076 -0.4738  0.3616
  101OSM    H4G10198   3.697   6.337   9.793 -1.7066 -0.2713  0.3295
  101OSM    C5F10199   3.759   6.133   9.840  0.0753  1.1131  0.2119
  101OSM    H5F10200   3.657   6.093   9.826  0.1800  0.5255  1.0432
  101OSM    H5G10201   3.790   6.057   9.914 -0.7608  0.0383 -0.5235
  101OSM    C6F10202   3.836   6.115   9.697  0.3872  0.0681 -0.6449
  101OSM    H6F10203   3.945   6.117   9.716  0.1902 -3.0751  1.8001
  101OSM    H6G10204   3.803   6.013   9.667  1.0222 -0.6414  0.9160
  101OSM    C7F10205   3.806   6.217   9.589  0.1688  0.0175 -0.0523
  101OSM    H7F10206   3.820   6.320   9.626 -0.1276 -0.3677  1.1859
  101OSM    H7G10207   3.699   6.233   9.565 -0.0346  0.5229  1.1329
  101OSM    C8F10208   3.879   6.200   9.459 -0.3552 -0.0849  0.3506
  101OSM    H8F10209   3.834   6.122   9.394  3.1817 -1.3781 -0.7996
  101OSM    H8G10210   3.979   6.158   9.485 -0.4458 -0.1258  0.6305
  101OSM    C9F10211   3.924   6.331   9.396 -0.4116  0.3788  0.3862
  101OSM    H9F10212   3.948   6.416   9.462 -2.4362  1.6029 -0.3544
  101OSM   C10F10213   3.920   6.354   9.260  0.4491 -0.3577 -0.4733
  101OSM   H10F10214   3.949   6.450   9.216 -0.2582 -0.4183 -1.1005
  101OSM   C11F10215   3.876   6.264   9.154  0.3332 -0.3753 -0.2233
  101OSM   H11F10216   3.824   6.322   9.075  0.7133 -1.0285 -0.9795
  101OSM   H11G10217   3.804   6.185   9.182  2.0013 -1.9923 -0.2669
  101OSM   C12F10218   3.988   6.173   9.082  0.5179  0.3478 -0.2642
  101OSM   H12F10219   3.992   6.070   9.125 -0.7818 -0.4102 -1.8339
  101OSM   H12G10220   4.083   6.228   9.099 -0.3570  2.8492 -2.7286
  101OSM   C13F10221   3.975   6.164   8.928 -0.4598 -0.7607 -0.1257
  101OSM   H13F10222   4.070   6.121   8.889 -0.4812  0.1133 -1.1580
  101OSM   H13G10223   3.973   6.266   8.885  2.7723 -0.8183 -0.6685
  101OSM   C14F10224   3.847   6.094   8.881  0.6095  0.0319 -0.7031
  101OSM   H14F10225   3.835   6.098   8.770 -0.9598 -1.1950 -0.6115
  101OSM   H14G10226   3.755   6.144   8.917  1.4937  0.5046  0.9832
  101OSM   C15F10227   3.840   5.948   8.928 -0.3204 -0.5188 -0.2657
  101OSM   H15F10228   3.812   5.943   9.035  1.9977  1.8588  0.5670
  101OSM   H15G10229   3.945   5.911   8.919 -0.9705 -2.2177 -1.3614
  101OSM   C16F10230   3.765   5.863   8.824 -0.7092  0.4110 -0.6470
  101OSM   H16F10231   3.795   5.902   8.725 -1.1394  1.2359 -0.4568
  101OSM   H16G10232   3.655   5.875   8.835 -0.7047 -0.4398  0.5428
  101OSM   C17F10233   3.809   5.720   8.836  0.1632 -0.6109  0.3163
  101OSM   H17F10234   3.791   5.688   8.941 -1.8273  1.0330  0.5315
  101OSM   H17G10235   3.917   5.715   8.811  0.0605 -0.7694 -0.1025
  101OSM   C18F10236   3.733   5.632   8.741  0.2711  0.0443  1.0735
  101OSM   H18F10237   3.757   5.654   8.634  1.2885  0.2515  1.3289
  101OSM   H18G10238   3.624   5.651   8.750 -0.1255 -1.2386 -0.5673
  101OSM   H18H10239   3.746   5.525   8.768 -0.6537  0.1942  2.1717
  102OSM      N10240   5.260   1.262  11.055 -0.4391  0.9756 -0.4498
  102OSM    C1510241   5.204   1.391  11.101 -0.1924  0.2015 -0.4396
  102OSM   H15A10242   5.275   1.435  11.169 -0.0609 -1.6256  0.6605
  102OSM   H15B10243   5.105   1.386  11.144 -0.8254  1.7018 -1.6194
  102OSM   H15C10244   5.178   1.450  11.014 -1.0979 -1.0301 -1.0364
  102OSM    C1410245   5.282   1.167  11.180 -0.7161  0.0172 -0.0072
  102OSM   H14A10246   5.194   1.112  11.209 -0.5835 -0.8868 -1.2439
  102OSM   H14B10247   5.326   1.212  11.268 -2.6525 -0.0996  1.0666
  102OSM   H14C10248   5.353   1.093  11.145 -1.7018 -1.3182  0.7414
  102OSM    C1310249   5.150   1.195  10.973 -0.7057 -0.4656 -0.0613
  102OSM   H13A10250   5.144   1.258  10.885 -2.3681 -0.2911  0.1487
  102OSM   H13B10251   5.053   1.179  11.017  0.0986 -2.4575  1.1152
  102OSM   H13C10252   5.190   1.100  10.941  1.3198  0.5949 -0.8636
  102OSM    C1210253   5.387   1.284  10.978 -0.3463 -0.1473  0.0499
  102OSM   H12A10254   5.410   1.191  10.928 -4.4655 -0.1231 -2.3737
  102OSM   H12B10255   5.473   1.310  11.038 -0.5057 -2.2975  1.2932
  102OSM    C1110256   5.381   1.376  10.851 -0.0253 -0.3121  0.1208
  102OSM   H11A10257   5.478   1.394  10.800 -0.6450  0.6188 -0.7648
  102OSM   H11B10258   5.363   1.475  10.897  1.0963 -0.4251  0.8602
  102OSM      P10259   5.174   1.422  10.674 -0.1136 -0.0608 -0.2070
  102OSM    O1310260   5.124   1.352  10.551 -0.1698  0.2449  0.3732
  102OSM    O1410261   5.072   1.456  10.782 -0.0792  0.6236 -0.2662
  102OSM    O1110262   5.257   1.555  10.644  0.1433  0.8088 -0.1481
  102OSM    O1210263   5.297   1.333  10.741  0.1130 -0.6573 -0.2133
  102OSM    C1S10264   5.379   1.555  10.560 -0.1065 -0.8407 -0.1608
  102OSM    H1S10265   5.446   1.471  10.587 -0.3842 -0.4908  1.7933
  102OSM    H1T10266   5.433   1.645  10.596 -1.5339 -0.5903  1.4856
  102OSM     NF10267   5.488   1.573  10.346  0.2635  0.1617  0.1548
  102OSM    HNF10268   5.516   1.668  10.350  1.4600 -0.1551 -0.3221
  102OSM    C2S10269   5.356   1.549  10.408 -0.5011  0.5443 -0.7140
  102OSM    H2S10270   5.324   1.447  10.380 -1.9161 -0.1349  2.8092
  102OSM    C3S10271   5.248   1.649  10.365  0.6652  0.0475  0.4160
  102OSM    H3S10272   5.291   1.749  10.390  1.6520 -0.5645  1.2210
  102OSM     O310273   5.121   1.630  10.416 -0.0556 -0.4045 -0.4636
  102OSM    HO310274   5.139   1.567  10.487  2.3586  0.5345 -0.1305
  102OSM    C4S10275   5.234   1.637  10.215 -0.1888 -0.1293  0.0568
  102OSM    H4S10276   5.206   1.537  10.178  2.5549 -0.4528 -1.4316
  102OSM    C5S10277   5.267   1.735  10.126 -0.5456 -0.9000 -0.4003
  102OSM    H5S10278   5.303   1.834  10.158 -2.7053 -0.7216  1.7659
  102OSM    C6S10279   5.267   1.726   9.976  0.7867 -0.1534 -0.0203
  102OSM    H6S10280   5.208   1.635   9.953  0.3279  0.2366 -0.4091
  102OSM    H6T10281   5.371   1.720   9.936  0.6548  2.8133 -1.0846
  102OSM    C7S10282   5.202   1.842   9.900  0.2954  0.0233 -0.1051
  102OSM    H7S10283   5.217   1.826   9.791  1.6519  1.4950 -0.1668
  102OSM    H7T10284   5.254   1.934   9.931 -2.3448  1.4430  0.3887
  102OSM    C8S10285   5.052   1.853   9.935 -0.0390 -0.2564 -1.1265
  102OSM    H8S10286   5.043   1.838  10.045 -0.5577  0.4388 -1.0726
  102OSM    H8T10287   4.993   1.765   9.900  0.5468 -1.1718  0.1094
  102OSM    C9S10288   4.982   1.985   9.893 -0.3749  0.4186  0.0301
  102OSM    H9S10289   5.042   2.065   9.942 -1.5607  1.4251 -0.1282
  102OSM    H9T10290   4.881   1.986   9.938 -0.1214  0.5370  0.6061
  102OSM   C10S10291   4.981   2.020   9.747 -0.3564  0.1871  0.0192
  102OSM   H10S10292   4.879   2.056   9.722 -0.8518 -0.4096  1.1201
  102OSM   H10T10293   4.986   1.925   9.689  2.1874  0.9266 -1.1154
  102OSM   C11S10294   5.098   2.109   9.693  0.4388  0.6587  0.5408
  102OSM   H11S10295   5.188   2.044   9.697 -0.3945 -0.6460 -0.9771
  102OSM   H11T10296   5.124   2.184   9.771  4.1202 -0.4168  0.5282
  102OSM   C12S10297   5.074   2.163   9.551  0.4271  0.3885 -0.5315
  102OSM   H12S10298   5.149   2.242   9.531 -0.0226  0.7185 -0.9467
  102OSM   H12T10299   4.973   2.210   9.549  0.3375  0.8735  3.9491
  102OSM   C13S10300   5.098   2.056   9.433 -0.2750 -0.4970 -0.6473
  102OSM   H13S10301   5.007   1.992   9.437 -1.2731  0.8649  2.7557
  102OSM   H13T10302   5.185   1.993   9.460  0.3467  0.4377 -0.3849
  102OSM   C14S10303   5.113   2.119   9.291 -0.6112  0.1445 -0.0389
  102OSM   H14S10304   5.151   2.041   9.222  0.8177 -1.0415  1.9707
  102OSM   H14T10305   5.190   2.198   9.302  0.5665 -1.1108  1.0104
  102OSM   C15S10306   4.988   2.200   9.246  0.3352 -0.0411  0.1284
  102OSM   H15S10307   4.979   2.265   9.336 -0.2669 -0.4754  0.3844
  102OSM   H15T10308   4.899   2.134   9.245  1.4091 -1.5333 -0.9619
  102OSM   C16S10309   5.019   2.277   9.119 -0.4003 -0.1319  0.3395
  102OSM   H16S10310   5.126   2.306   9.116  0.2563 -2.3897 -2.8346
  102OSM   H16T10311   4.954   2.368   9.117 -1.8953 -1.1105  1.6168
  102OSM   C17S10312   4.982   2.199   8.983 -0.1216 -0.0214  0.2473
  102OSM   H17S10313   4.882   2.155   9.000 -1.6994  2.3771 -1.9893
  102OSM   H17T10314   5.053   2.117   8.959  0.0242  0.6651 -1.8635
  102OSM   C18S10315   4.972   2.282   8.856 -0.0563  0.2679 -0.1451
  102OSM   H18S10316   4.926   2.231   8.769  1.5904 -0.6447 -0.5329
  102OSM   H18T10317   5.074   2.297   8.814 -0.3747 -2.7010 -2.2987
  102OSM   H18U10318   4.931   2.383   8.878 -3.4953 -0.9068 -0.5989
  102OSM    C1F10319   5.585   1.471  10.336  0.4033 -0.3609  0.2069
  102OSM     OF10320   5.554   1.352  10.357 -0.1705  0.1589  0.0753
  102OSM    C2F10321   5.724   1.510  10.305  0.5056 -0.4959  0.1674
  102OSM    H2F10322   5.789   1.506  10.395  1.5652  2.0271 -0.4099
  102OSM    H2G10323   5.720   1.613  10.264  2.8654 -1.1194 -1.8740
  102OSM    C3F10324   5.780   1.418  10.199 -0.1345 -0.4844  0.6816
  102OSM    H3F10325   5.711   1.405  10.113 -2.1181  1.2419  1.8994
  102OSM    H3G10326   5.806   1.321  10.246  2.6825 -0.5386 -0.7924
  102OSM    C4F10327   5.918   1.479  10.138 -0.0689  0.3864 -0.5495
  102OSM    H4F10328   5.972   1.517  10.228 -0.5134  0.0169 -0.1198
  102OSM    H4G10329   5.899   1.558  10.063  2.0342  2.2309  0.7192
  102OSM    C5F10330   6.002   1.377  10.068 -0.2281 -0.3974  0.2821
  102OSM    H5F10331   6.032   1.289  10.129 -3.4995 -1.0778  1.0652
  102OSM    H5G10332   6.097   1.418  10.028  0.7527 -2.0982  0.7664
  102OSM    C6F10333   5.936   1.322   9.938  0.3348  0.1530  0.0878
  102OSM    H6F10334   5.845   1.269   9.975  1.5818 -0.4838  2.5120
  102OSM    H6G10335   6.000   1.240   9.899 -1.7305 -1.5686  0.0697
  102OSM    C7F10336   5.921   1.423   9.818 -0.2051  0.0345 -0.3178
  102OSM    H7F10337   5.998   1.503   9.825  1.3028 -1.3739 -0.1777
  102OSM    H7G10338   5.825   1.476   9.836  0.0151  0.7740 -1.2178
  102OSM    C8F10339   5.924   1.359   9.674 -0.1176  0.7212  0.0236
  102OSM    H8F10340   5.864   1.265   9.677  0.2318  0.4974  0.1598
  102OSM    H8G10341   6.032   1.340   9.652  0.3386  1.0877  1.7737
  102OSM    C9F10342   5.857   1.450   9.576 -0.9889  0.0510 -0.2565
  102OSM    H9F10343   5.787   1.522   9.621 -0.8043  0.5200 -0.7031
  102OSM   C10F10344   5.885   1.466   9.449 -0.3390  0.2344  0.8064
  102OSM   H10F10345   5.831   1.547   9.398 -0.3128  1.6156  2.8597
  102OSM   C11F10346   5.973   1.388   9.364 -0.1157 -1.0694  0.5692
  102OSM   H11F10347   6.005   1.295   9.415 -1.3876 -1.3860  0.8339
  102OSM   H11G10348   6.060   1.451   9.335 -1.2559 -0.1675 -1.0912
  102OSM   C12F10349   5.908   1.336   9.237 -0.2649  0.2297  0.5728
  102OSM   H12F10350   5.806   1.299   9.259 -0.1032 -0.1875  0.6154
  102OSM   H12G10351   5.964   1.255   9.187 -2.6082 -0.4844 -1.0653
  102OSM   C13F10352   5.900   1.445   9.136  0.3950 -0.0541  0.7321
  102OSM   H13F10353   6.003   1.481   9.115  0.0024  0.0687 -1.2028
  102OSM   H13G10354   5.853   1.533   9.185  2.2691  1.0745  0.6241
  102OSM   C14F10355   5.829   1.416   9.003  0.0938  0.0077  0.1609
  102OSM   H14F10356   5.729   1.371   9.019  0.6258 -1.9029 -1.4501
  102OSM   H14G10357   5.893   1.346   8.946 -0.0733  0.0574 -0.0906
  102OSM   C15F10358   5.814   1.541   8.917 -0.7432 -0.3296 -0.2653
  102OSM   H15F10359   5.915   1.587   8.910 -0.6693 -0.4500  0.0054
  102OSM   H15G10360   5.768   1.619   8.982  2.0758 -0.0041  1.5312
  102OSM   C16F10361   5.749   1.517   8.779 -0.1264 -0.6809  0.2524
  102OSM   H16F10362   5.642   1.486   8.786  0.5154 -2.5939  2.9497
  102OSM   H16G10363   5.799   1.437   8.721 -1.7438 -2.1177  0.7634
  102OSM   C17F10364   5.756   1.634   8.683 -0.3622  0.3687  0.3193
  102OSM   H17F10365   5.689   1.715   8.720  0.6048  1.0639  0.6146
  102OSM   H17G10366   5.725   1.616   8.578 -1.2953  1.8663  0.2975
  102OSM   C18F10367   5.892   1.704   8.661  0.3126  0.0260 -0.7004
  102OSM   H18F10368   5.940   1.739   8.755 -0.3064  2.0208 -1.0836
  102OSM   H18G10369   5.881   1.787   8.588 -1.1352  0.5759  0.1064
  102OSM   H18H10370   5.958   1.629   8.613 -0.1215 -0.7277 -0.1460
  103OSM      N10371   4.759   5.755  11.180 -0.2277  1.0964 -0.4713
  103OSM    C1510372   4.695   5.625  11.207 -0.3793  0.0979 -0.1824
  103OSM   H15A10373   4.629   5.635  11.292  0.8860 -0.5062  0.8973
  103OSM   H15B10374   4.772   5.557  11.242  2.4345  2.2237 -1.8320
  103OSM   H15C10375   4.649   5.581  11.120  0.6429 -0.2020 -0.5898
  103OSM    C1410376   4.816   5.812  11.311  0.7175  0.4592 -0.1163
  103OSM   H14A10377   4.868   5.905  11.290 -0.6058  0.9260 -1.4439
  103OSM   H14B10378   4.885   5.743  11.359  0.2646 -0.2681 -0.4914
  103OSM   H14C10379   4.740   5.829  11.385 -2.0890 -0.2328 -2.6604
  103OSM    C1310380   4.884   5.737  11.096  0.1412  0.5886 -0.4663
  103OSM   H13A10381   4.957   5.682  11.154  1.3952  1.1877 -1.4093
  103OSM   H13B10382   4.915   5.840  11.095  0.3119  0.5650  0.6780
  103OSM   H13C10383   4.863   5.706  10.995 -2.0275  1.6228 -0.3704
  103OSM    C1210384   4.669   5.860  11.117 -0.3614  0.0278 -0.8536
  103OSM   H12A10385   4.723   5.941  11.072  0.9310 -1.4255 -2.0279
  103OSM   H12B10386   4.597   5.895  11.189 -1.1805 -1.7289 -0.7591
  103OSM    C1110387   4.565   5.808  11.018 -0.5070 -0.1505 -0.1745
  103OSM   H11A10388   4.497   5.894  10.999  2.4167  1.9109 -2.2030
  103OSM   H11B10389   4.512   5.717  11.054  2.4119 -2.3350 -1.0571
  103OSM      P10390   4.615   5.631  10.830 -0.3427 -0.4855  0.2363
  103OSM    O1310391   4.726   5.600  10.733  0.0905 -0.1738 -0.2818
  103OSM    O1410392   4.589   5.541  10.943  0.2365  0.3090  0.4489
  103OSM    O1110393   4.476   5.648  10.756 -0.5485  0.1539 -0.3362
  103OSM    O1210394   4.627   5.772  10.893  0.2376 -0.0272 -0.3226
  103OSM    C1S10395   4.437   5.779  10.706  0.8799  0.2005  0.0666
  103OSM    H1S10396   4.511   5.861  10.702 -0.4914  1.4423 -0.7829
  103OSM    H1T10397   4.350   5.810  10.769  0.2703  0.0330 -0.6824
  103OSM     NF10398   4.373   5.896  10.502  0.0418  0.1086  0.0919
  103OSM    HNF10399   4.289   5.942  10.531 -0.8605 -1.9793  1.0026
  103OSM    C2S10400   4.382   5.764  10.563 -0.1829 -0.6151 -0.1227
  103OSM    H2S10401   4.459   5.712  10.502  1.0851  1.4283 -0.3794
  103OSM    C3S10402   4.250   5.681  10.577  0.0877 -0.4113 -0.6115
  103OSM    H3S10403   4.180   5.734  10.645 -0.7797 -0.2556 -1.6001
  103OSM     O310404   4.266   5.550  10.631 -0.1026 -0.0064  0.1142
  103OSM    HO310405   4.348   5.558  10.681 -0.1130  1.0236 -0.0165
  103OSM    C4S10406   4.183   5.674  10.436 -0.8426  0.2227 -0.2462
  103OSM    H4S10407   4.244   5.619  10.363 -0.1665  0.7378 -0.0742
  103OSM    C5S10408   4.061   5.725  10.402 -0.5801 -0.2253  0.2068
  103OSM    H5S10409   3.994   5.772  10.476 -0.3747  2.4900 -1.2187
  103OSM    C6S10410   4.008   5.711  10.264  0.5480 -0.9125  0.5491
  103OSM    H6S10411   3.898   5.700  10.273  0.2714  1.8665  1.3956
  103OSM    H6T10412   4.047   5.627  10.203  2.2202  1.7413 -2.3692
  103OSM    C7S10413   4.026   5.828  10.155 -0.0767 -0.5562 -0.2037
  103OSM    H7S10414   3.971   5.915  10.197 -0.2569 -1.5794  1.7806
  103OSM    H7T10415   3.988   5.805  10.053  2.2038 -3.5847 -0.5193
  103OSM    C8S10416   4.179   5.861  10.152 -0.0045 -0.3462 -0.8499
  103OSM    H8S10417   4.237   5.768  10.131 -0.2180 -0.1162 -2.6261
  103OSM    H8T10418   4.205   5.896  10.254  0.3958 -1.4776 -0.5504
  103OSM    C9S10419   4.227   5.972  10.060 -0.2360  0.1253  0.6167
  103OSM    H9S10420   4.335   5.981  10.084  0.0532 -0.1449 -0.5364
  103OSM    H9T10421   4.177   6.068  10.085  0.7488  1.6702 -2.7474
  103OSM   C10S10422   4.209   5.948   9.904  0.5385 -0.0209  0.0273
  103OSM   H10S10423   4.101   5.947   9.878 -0.2243 -0.5995  2.8679
  103OSM   H10T10424   4.255   5.847   9.893  1.3798  0.3714 -0.1307
  103OSM   C11S10425   4.286   6.040   9.813  0.2752 -0.4844 -0.3452
  103OSM   H11S10426   4.394   6.020   9.829  0.7923  2.8795  1.4957
  103OSM   H11T10427   4.262   6.144   9.846 -1.5492 -0.7160 -0.8106
  103OSM   C12S10428   4.262   6.016   9.662 -0.2626 -0.7581 -0.9857
  103OSM   H12S10429   4.161   6.059   9.646  0.5646  1.4406 -0.6397
  103OSM   H12T10430   4.266   5.909   9.631 -2.3501 -0.9396 -0.7239
  103OSM   C13S10431   4.371   6.094   9.589 -0.0935 -0.2350  0.2528
  103OSM   H13S10432   4.471   6.050   9.610  0.1030  0.0006 -0.1591
  103OSM   H13T10433   4.374   6.193   9.639  1.4415 -1.1805  2.1352
  103OSM   C14S10434   4.347   6.093   9.438  0.0946  0.1674 -0.5517
  103OSM   H14S10435   4.249   6.143   9.420  0.0648  0.6105  0.7165
  103OSM   H14T10436   4.337   5.984   9.420 -2.0962 -0.2534  2.3656
  103OSM   C15S10437   4.469   6.152   9.364 -0.1600  0.1639  0.1426
  103OSM   H15S10438   4.545   6.072   9.371 -2.2612 -2.3719 -3.0183
  103OSM   H15T10439   4.507   6.242   9.417 -1.5329  0.5111  0.5764
  103OSM   C16S10440   4.429   6.186   9.217 -0.2098  0.4059  0.0307
  103OSM   H16S10441   4.336   6.246   9.228  0.5604  1.4005  1.3664
  103OSM   H16T10442   4.416   6.096   9.152 -1.5943  1.2047 -0.8458
  103OSM   C17S10443   4.534   6.269   9.137  0.3750 -1.3310 -0.0628
  103OSM   H17S10444   4.543   6.371   9.180 -0.4272 -0.9134 -0.8457
  103OSM   H17T10445   4.503   6.290   9.033  2.8865 -1.1176 -0.8272
  103OSM   C18S10446   4.671   6.205   9.131  0.1086 -0.0718  0.6435
  103OSM   H18S10447   4.662   6.115   9.066 -3.0781  1.5531 -1.4406
  103OSM   H18T10448   4.711   6.183   9.232 -0.9133  1.7863  1.4871
  103OSM   H18U10449   4.745   6.261   9.071  0.1869  1.1032  1.8010
  103OSM    C1F10450   4.480   5.972  10.454 -0.6736  0.0979 -0.9313
  103OSM     OF10451   4.591   5.926  10.464 -0.3407  0.8539  0.0752
  103OSM    C2F10452   4.453   6.105  10.403 -0.0800 -0.6594  0.0899
  103OSM    H2F10453   4.451   6.170  10.493 -3.2383 -0.5567  0.0600
  103OSM    H2G10454   4.357   6.103  10.347 -0.1213 -2.5688  0.1436
  103OSM    C3F10455   4.565   6.153  10.316 -0.0248 -0.3309 -0.1573
  103OSM    H3F10456   4.578   6.082  10.232  2.3886  1.2991 -1.2501
  103OSM    H3G10457   4.662   6.154  10.371  0.2141  0.9654 -0.5671
  103OSM    C4F10458   4.555   6.303  10.271  0.2725  0.5910 -0.0865
  103OSM    H4F10459   4.649   6.358  10.291  1.6952 -1.1731 -1.5678
  103OSM    H4G10460   4.480   6.351  10.338 -0.0391  2.4313 -1.6686
  103OSM    C5F10461   4.519   6.333  10.119  1.0023 -0.0889 -0.1067
  103OSM    H5F10462   4.466   6.430  10.115 -0.9250 -1.1241 -1.5323
  103OSM    H5G10463   4.446   6.262  10.074  1.2514  0.4952 -1.4624
  103OSM    C6F10464   4.645   6.330  10.030  0.3295 -0.0091 -0.0040
  103OSM    H6F10465   4.688   6.228  10.040 -1.9086 -0.9807  0.2754
  103OSM    H6G10466   4.720   6.403  10.067  0.6237 -0.6238  0.6363
  103OSM    C7F10467   4.608   6.364   9.886  0.3004  0.0085  0.5011
  103OSM    H7F10468   4.574   6.469   9.896  1.9735  0.7828 -1.1808
  103OSM    H7G10469   4.530   6.294   9.850  0.3806  0.9219 -1.5930
  103OSM    C8F10470   4.729   6.367   9.795 -0.6466 -0.4660 -0.0518
  103OSM    H8F10471   4.700   6.365   9.687 -1.0808 -0.6856  0.0651
  103OSM    H8G10472   4.792   6.276   9.805  1.7724  1.2006  0.6556
  103OSM    C9F10473   4.824   6.479   9.815  0.7231  0.4109  0.3841
  103OSM    H9F10474   4.912   6.465   9.879  0.8976  0.6472  0.1942
  103OSM   C10F10475   4.810   6.595   9.749  0.1811  0.7383 -0.3836
  103OSM   H10F10476   4.880   6.677   9.771 -0.4521  1.1338  0.2197
  103OSM   C11F10477   4.700   6.635   9.651 -0.1864 -0.7695 -0.4258
  103OSM   H11F10478   4.685   6.741   9.678  1.8312 -0.8495  1.2816
  103OSM   H11G10479   4.602   6.593   9.684 -1.3657  1.9104 -0.3321
  103OSM   C12F10480   4.721   6.614   9.498  0.5539 -0.8204 -0.0682
  103OSM   H12F10481   4.654   6.684   9.443  0.7518 -0.6828 -0.1323
  103OSM   H12G10482   4.675   6.516   9.473 -1.0514 -0.7088  2.1090
  103OSM   C13F10483   4.869   6.636   9.453  0.0274  0.3030 -0.2652
  103OSM   H13F10484   4.939   6.566   9.503  1.2741  0.7337 -1.3456
  103OSM   H13G10485   4.911   6.735   9.481 -2.3965  0.6932  2.4247
  103OSM   C14F10486   4.889   6.615   9.301 -0.2029  0.3551  0.4082
  103OSM   H14F10487   4.812   6.664   9.238  1.4778  0.1790 -1.8768
  103OSM   H14G10488   4.867   6.506   9.295  3.2384 -0.3860 -0.5483
  103OSM   C15F10489   5.032   6.653   9.256  0.4332  0.3955  0.8626
  103OSM   H15F10490   5.090   6.568   9.298  1.4722  0.0815 -1.0718
  103OSM   H15G10491   5.068   6.750   9.295 -0.7180  1.5432 -0.7841
  103OSM   C16F10492   5.044   6.656   9.098 -0.3077 -0.0183  0.5462
  103OSM   H16F10493   4.980   6.739   9.060  2.5887  1.8967 -0.5224
  103OSM   H16G10494   5.003   6.561   9.058  0.9047 -0.9629  1.4556
  103OSM   C17F10495   5.185   6.674   9.051  0.2259 -0.3135  0.1924
  103OSM   H17F10496   5.245   6.581   9.061  0.4503 -0.6338 -2.9918
  103OSM   H17G10497   5.224   6.759   9.111 -0.2050  0.0786 -0.0705
  103OSM   C18F10498   5.208   6.709   8.902  0.1135  0.0813  0.1526
  103OSM   H18F10499   5.170   6.811   8.881 -1.1106 -0.1523  1.0985
  103OSM   H18G10500   5.161   6.634   8.835  1.1245 -0.3341 -0.1123
  103OSM   H18H10501   5.316   6.702   8.878 -0.1164  0.2300 -0.9882
  104OSM      N10502   0.844   4.978  10.975  0.2977 -0.7703  0.0488
  104OSM    C1510503   0.969   4.926  11.028  0.3058 -0.1834  0.8576
  104OSM   H15A10504   0.961   4.818  11.034 -0.1911 -0.1193  1.4616
  104OSM   H15B10505   0.990   4.961  11.128  0.8789 -1.9548  1.4055
  104OSM   H15C10506   1.045   4.958  10.958 -0.8943  0.4873 -0.1755
  104OSM    C1410507   0.725   4.918  11.045  0.5790 -0.0496 -0.1837
  104OSM   H14A10508   0.733   4.958  11.145  1.7721  0.9951 -0.6679
  104OSM   H14B10509   0.720   4.811  11.031  1.2354 -0.2894  1.1677
  104OSM   H14C10510   0.640   4.961  10.994 -0.4001  1.0121  2.2084
  104OSM    C1310511   0.835   5.127  10.995 -0.4865 -0.5391 -0.1846
  104OSM   H13A10512   0.731   5.156  10.988 -0.7160 -1.4825 -0.8467
  104OSM   H13B10513   0.905   5.174  10.927  1.1482 -1.6947  0.6366
  104OSM   H13C10514   0.861   5.149  11.097 -0.3496 -3.9596  0.6125
  104OSM    C1210515   0.842   4.938  10.828  0.2337  0.5294  0.3971
  104OSM   H12A10516   0.924   4.994  10.786 -1.1651  2.4768  0.1244
  104OSM   H12B10517   0.746   4.968  10.788  0.3197  1.4419  0.8373
  104OSM    C1110518   0.856   4.784  10.782 -0.3978  0.4952  0.3530
  104OSM   H11A10519   0.955   4.747  10.815 -0.4013 -1.6334 -1.7117
  104OSM   H11B10520   0.873   4.784  10.672  1.3417 -1.1195  0.5627
  104OSM      P10521   0.611   4.692  10.760 -0.0422  0.3921 -0.1799
  104OSM    O1310522   0.557   4.553  10.783 -0.4683 -0.0233 -0.3906
  104OSM    O1410523   0.529   4.810  10.794 -0.3448  0.4139 -0.1870
  104OSM    O1110524   0.639   4.710  10.604 -0.0871  0.1263  0.0583
  104OSM    O1210525   0.755   4.689  10.819 -0.2623  0.5142 -0.6392
  104OSM    C1S10526   0.556   4.634  10.512  0.5553  0.1107 -0.4161
  104OSM    H1S10527   0.488   4.714  10.474  2.2529  1.9547  0.2550
  104OSM    H1T10528   0.487   4.559  10.556  1.9117  0.5204  2.5864
  104OSM     NF10529   0.556   4.546  10.277 -0.0284 -0.1869 -0.1502
  104OSM    HNF10530   0.519   4.454  10.274  1.6925 -0.9854  1.0121
  104OSM    C2S10531   0.641   4.573  10.391 -0.1067 -0.1510 -0.6481
  104OSM    H2S10532   0.715   4.650  10.361 -1.3372  0.8500 -1.1896
  104OSM    C3S10533   0.736   4.449  10.440  0.3512  0.1460  0.7474
  104OSM    H3S10534   0.664   4.369  10.467  0.9940 -0.5475  0.4315
  104OSM     O310535   0.826   4.472  10.552  0.1043  0.2426  0.1975
  104OSM    HO310536   0.783   4.536  10.609 -0.7554  1.0566 -1.3038
  104OSM    C4S10537   0.816   4.396  10.322  0.5730  0.2743 -0.2433
  104OSM    H4S10538   0.885   4.463  10.267  1.7791 -1.0122 -0.3486
  104OSM    C5S10539   0.825   4.265  10.285 -0.1588  0.1090  0.0930
  104OSM    H5S10540   0.785   4.187  10.351  0.5628 -1.3149 -1.0740
  104OSM    C6S10541   0.898   4.206  10.163  0.4738 -0.3029  0.8636
  104OSM    H6S10542   0.838   4.130  10.108  2.1038  0.1549 -1.7177
  104OSM    H6T10543   0.989   4.155  10.201  1.2071  0.0796 -0.3384
  104OSM    C7S10544   0.931   4.308  10.051  0.4358 -0.1463  0.6756
  104OSM    H7S10545   0.997   4.251   9.982  1.1738  2.5543 -0.9666
  104OSM    H7T10546   0.982   4.393  10.100  0.2044 -1.0519  2.6023
  104OSM    C8S10547   0.797   4.347   9.976 -0.5723  0.4805  0.5078
  104OSM    H8S10548   0.721   4.397  10.040  0.3246  0.8801  1.2940
  104OSM    H8T10549   0.744   4.254   9.947 -0.9105  0.6159  0.6826
  104OSM    C9S10550   0.814   4.424   9.842 -0.4844 -0.0855 -0.1563
  104OSM    H9S10551   0.877   4.359   9.777 -0.0470 -1.7194  1.8018
  104OSM    H9T10552   0.871   4.519   9.850 -0.7695  0.0853 -0.1625
  104OSM   C10S10553   0.685   4.460   9.770 -0.4057  0.1432 -0.5611
  104OSM   H10S10554   0.597   4.494   9.828 -0.4922 -0.9699 -0.0125
  104OSM   H10T10555   0.655   4.361   9.729 -0.2277 -0.1249 -0.0576
  104OSM   C11S10556   0.701   4.554   9.646 -0.8470 -0.4754  0.3251
  104OSM   H11S10557   0.731   4.658   9.669 -2.0077  0.6077 -2.5450
  104OSM   H11T10558   0.600   4.564   9.601 -1.9040  1.8628  2.9380
  104OSM   C12S10559   0.790   4.496   9.535 -0.0993  0.1137 -0.1988
  104OSM   H12S10560   0.749   4.403   9.492  0.4184 -0.1604 -0.1021
  104OSM   H12T10561   0.890   4.484   9.582 -0.4088  0.9035  0.7076
  104OSM   C13S10562   0.813   4.592   9.418  0.5867  0.6018 -0.1172
  104OSM   H13S10563   0.905   4.563   9.363  0.1603 -0.8440 -0.1078
  104OSM   H13T10564   0.819   4.694   9.463  4.1818  0.2812  0.4311
  104OSM   C14S10565   0.712   4.590   9.299  0.1712 -0.6880 -0.6969
  104OSM   H14S10566   0.607   4.606   9.332  0.0885  0.7071 -1.5680
  104OSM   H14T10567   0.705   4.489   9.254  0.0188 -1.4311  0.9025
  104OSM   C15S10568   0.747   4.704   9.204  0.0714 -0.3948  0.2091
  104OSM   H15S10569   0.852   4.700   9.169  0.5917  2.1532  1.2693
  104OSM   H15T10570   0.739   4.800   9.261  0.8658 -0.2245  0.0417
  104OSM   C16S10571   0.652   4.726   9.082  0.1800  0.9524  0.1552
  104OSM   H16S10572   0.694   4.803   9.013  1.7300 -1.5878 -1.9295
  104OSM   H16T10573   0.553   4.751   9.126  0.1840  0.3876  0.4890
  104OSM   C17S10574   0.620   4.606   8.997 -0.2795  0.7508 -0.3911
  104OSM   H17S10575   0.579   4.528   9.064 -1.0092  0.5601 -1.0551
  104OSM   H17T10576   0.713   4.562   8.953 -0.5838 -0.0888 -0.2007
  104OSM   C18S10577   0.529   4.640   8.881 -0.1920  0.6889 -0.3577
  104OSM   H18S10578   0.479   4.548   8.844 -1.6823  1.2700  0.1103
  104OSM   H18T10579   0.585   4.692   8.800 -1.0705  1.0971 -0.7245
  104OSM   H18U10580   0.446   4.707   8.912  0.4459  0.7838  1.1966
  104OSM    C1F10581   0.488   4.646  10.221  0.2963 -0.1851  0.2911
  104OSM     OF10582   0.511   4.764  10.249 -0.1441 -1.0544  0.8885
  104OSM    C2F10583   0.386   4.600  10.121  0.0532  0.2517  0.1855
  104OSM    H2F10584   0.355   4.497  10.150 -4.1042  0.5347 -2.3455
  104OSM    H2G10585   0.427   4.581  10.019  0.9944 -1.9510  0.9273
  104OSM    C3F10586   0.269   4.706  10.100 -0.5872 -0.4883  0.3485
  104OSM    H3F10587   0.298   4.812  10.108 -0.3061 -0.1358 -3.3905
  104OSM    H3G10588   0.192   4.698  10.180 -2.6551  2.1614 -1.2100
  104OSM    C4F10589   0.196   4.708   9.961 -0.7618 -0.4902 -0.1757
  104OSM    H4F10590   0.117   4.786   9.959 -1.6980 -1.4227 -0.2378
  104OSM    H4G10591   0.143   4.612   9.944 -1.2900 -0.6684  2.0784
  104OSM    C5F10592   0.277   4.743   9.838  0.4027  0.0770  0.0093
  104OSM    H5F10593   0.344   4.657   9.814 -0.2074 -0.1555 -0.9167
  104OSM    H5G10594   0.338   4.831   9.865  1.4256  0.1663 -2.3885
  104OSM    C6F10595   0.188   4.773   9.718  0.1911 -0.7791  0.0485
  104OSM    H6F10596   0.237   4.840   9.644  0.0678 -0.8767 -0.1231
  104OSM    H6G10597   0.108   4.835   9.763 -1.3310 -0.9374 -2.2927
  104OSM    C7F10598   0.144   4.641   9.652 -0.7506 -0.5355 -1.1019
  104OSM    H7F10599   0.064   4.667   9.579 -2.4921  1.2632  1.3185
  104OSM    H7G10600   0.104   4.581   9.736 -3.0690  0.2587 -1.5561
  104OSM    C8F10601   0.249   4.562   9.583  0.2122  0.1528  0.0540
  104OSM    H8F10602   0.204   4.463   9.560 -1.3502  0.9943 -0.6882
  104OSM    H8G10603   0.337   4.547   9.650  2.3604  1.7456 -2.2265
  104OSM    C9F10604   0.299   4.642   9.461  0.1685 -0.4405 -0.4732
  104OSM    H9F10605   0.390   4.700   9.480 -0.5401  1.1058 -1.5575
  104OSM   C10F10606   0.251   4.647   9.334 -0.3545  0.1091  0.9609
  104OSM   H10F10607   0.305   4.700   9.254 -0.4576 -1.2841 -0.0768
  104OSM   C11F10608   0.131   4.571   9.279  0.7443  0.0904  0.2062
  104OSM   H11F10609   0.044   4.640   9.272  0.1858 -0.6547 -0.3246
  104OSM   H11G10610   0.103   4.494   9.354 -0.6307 -1.4902 -1.8237
  104OSM   C12F10611   0.159   4.508   9.138 -0.0007  0.0022  0.1722
  104OSM   H12F10612   0.082   4.428   9.132  0.0376 -0.0240  0.0384
  104OSM   H12G10613   0.261   4.466   9.132  0.1711  0.5628 -1.0500
  104OSM   C13F10614   0.131   4.611   9.025  0.3877  0.6145  0.3263
  104OSM   H13F10615   0.185   4.705   9.050 -2.4026  1.9283  1.8826
  104OSM   H13G10616   0.026   4.643   9.039 -0.3109 -1.1419 -0.6522
  104OSM   C14F10617   0.146   4.558   8.885 -0.3124  0.3228  0.0223
  104OSM   H14F10618   0.117   4.454   8.860 -1.4907  0.7925 -0.6830
  104OSM   H14G10619   0.255   4.556   8.863  0.0417  0.5321  1.6397
  104OSM   C15F10620   0.083   4.649   8.770  0.1399 -0.3388  0.3348
  104OSM   H15F10621   0.145   4.740   8.757  1.1428 -1.1444 -0.7181
  104OSM   H15G10622  -0.020   4.685   8.791 -0.2769 -0.1528 -1.8399
  104OSM   C16F10623   0.052   4.573   8.629  0.5643  0.0965  0.1733
  104OSM   H16F10624  -0.025   4.627   8.570 -0.3730  0.6074  1.7931
  104OSM   H16G10625   0.009   4.475   8.655  0.9194  0.1443  0.9777
  104OSM   C17F10626   0.172   4.561   8.532 -0.2046  0.1917 -0.0989
  104OSM   H17F10627   0.261   4.538   8.593 -1.3485 -2.2761  0.8016
  104OSM   H17G10628   0.196   4.660   8.488  1.3014 -0.0487  0.1546
  104OSM   C18F10629   0.147   4.463   8.415 -0.3923  0.4303 -0.4875
  104OSM   H18F10630   0.234   4.445   8.349  0.5590 -1.6057  1.2005
  104OSM   H18G10631   0.066   4.493   8.345  0.1856 -1.7563 -2.2275
  104OSM   H18H10632   0.122   4.365   8.461  0.3846 -0.1059 -1.1855
  105OSM      N10633   2.945   0.055  10.825 -0.0009 -0.3499 -0.5093
  105OSM    C1510634   3.074  -0.009  10.784 -0.1312 -0.0834 -0.0522
  105OSM   H15A10635   3.094  -0.080  10.863 -0.3085  1.2762  1.2637
  105OSM   H15B10636   3.163   0.047  10.758 -0.7781 -0.9387 -5.0977
  105OSM   H15C10637   3.058  -0.081  10.705  2.4331 -0.7813 -0.0069
  105OSM    C1410638   2.969   0.144  10.938 -0.6880  0.0621 -0.3585
  105OSM   H14A10639   2.881   0.194  10.976 -1.4505 -1.8475  0.5026
  105OSM   H14B10640   3.042   0.218  10.910  1.6220 -2.7330 -2.3356
  105OSM   H14C10641   3.017   0.091  11.019  1.9591 -1.6694 -2.8656
  105OSM    C1310642   2.902   0.146  10.719 -0.4616  0.6258  0.9818
  105OSM   H13A10643   2.879   0.090  10.629  0.7077  1.1364  0.3345
  105OSM   H13B10644   2.983   0.217  10.709 -0.0537 -0.0144 -0.5866
  105OSM   H13C10645   2.811   0.202  10.738 -0.8025  0.6679 -0.6205
  105OSM    C1210646   2.841  -0.052  10.852  0.3238  0.9734 -0.3594
  105OSM   H12A10647   2.877  -0.119  10.928 -0.1368 -1.2126 -1.9668
  105OSM   H12B10648   2.843  -0.129  10.776 -0.8652 -0.7141  1.2672
  105OSM    C1110649   2.704  -0.013  10.905 -0.0791 -0.0017 -0.3486
  105OSM   H11A10650   2.646   0.053  10.837 -0.9571 -0.6600 -0.2505
  105OSM   H11B10651   2.729   0.032  11.003  2.5333  1.1054 -1.4220
  105OSM      P10652   2.471  -0.143  10.890  0.4214  0.1027 -0.0707
  105OSM    O1310653   2.434  -0.284  10.914  0.2544  0.4465 -0.2175
  105OSM    O1410654   2.401  -0.034  10.963  0.4115  0.9003  0.5664
  105OSM    O1110655   2.449  -0.125  10.739 -0.1878 -0.5632  0.5449
  105OSM    O1210656   2.629  -0.129  10.919 -0.5602 -0.6234  0.4427
  105OSM    C1S10657   2.546  -0.181  10.647  0.3278  0.4720 -0.2288
  105OSM    H1S10658   2.534  -0.290  10.626  2.7317  0.1031  0.0300
  105OSM    H1T10659   2.648  -0.165  10.688 -0.1068 -0.1247  1.1311
  105OSM     NF10660   2.654  -0.194  10.423 -0.2484 -0.0923  0.5446
  105OSM    HNF10661   2.751  -0.175  10.427 -0.6286  3.0670 -1.6991
  105OSM    C2S10662   2.568  -0.118  10.511  0.3638  0.1977  0.7919
  105OSM    H2S10663   2.463  -0.115  10.473 -0.0254  0.4487  1.8561
  105OSM    C3S10664   2.617   0.025  10.527  0.2257 -0.3003 -0.0242
  105OSM    H3S10665   2.717   0.016  10.574  0.5509 -1.3816 -0.8748
  105OSM     O310666   2.534   0.115  10.605 -0.7423 -0.2414 -0.3606
  105OSM    HO310667   2.453   0.067  10.624 -1.1636  0.8453  0.7359
  105OSM    C4S10668   2.627   0.088  10.387 -0.3442 -0.0968 -0.8807
  105OSM    H4S10669   2.730   0.093  10.349 -0.0237  1.4188  0.0962
  105OSM    C5S10670   2.527   0.148  10.316 -0.1998  0.3274  0.5372
  105OSM    H5S10671   2.428   0.148  10.365 -0.7436  0.5837 -0.5196
  105OSM    C6S10672   2.547   0.218  10.179  0.1430  0.4177 -0.2939
  105OSM    H6S10673   2.652   0.253  10.178  1.5522 -3.4087 -0.9957
  105OSM    H6T10674   2.497   0.317  10.169  2.0067  1.4160 -0.1692
  105OSM    C7S10675   2.542   0.113  10.062  0.8929 -0.3407  1.2649
  105OSM    H7S10676   2.440   0.071  10.051  1.1738 -0.6627 -0.2543
  105OSM    H7T10677   2.616   0.032  10.075 -1.2537 -2.6664 -0.1834
  105OSM    C8S10678   2.573   0.200   9.935  0.3329  0.0948  0.0978
  105OSM    H8S10679   2.609   0.126   9.860  0.0228 -0.0950  0.1312
  105OSM    H8T10680   2.660   0.261   9.966 -0.1881  0.5463  0.7130
  105OSM    C9S10681   2.456   0.278   9.889 -0.1355 -0.7853  0.2587
  105OSM    H9S10682   2.432   0.351   9.969 -0.1421 -0.5513  0.0445
  105OSM    H9T10683   2.369   0.212   9.870 -0.9938  0.7496 -1.3589
  105OSM   C10S10684   2.486   0.346   9.755 -0.9514  0.2872 -0.3306
  105OSM   H10S10685   2.583   0.397   9.768 -0.2756 -0.7729 -1.0366
  105OSM   H10T10686   2.411   0.428   9.745 -0.1733  0.7696 -2.8226
  105OSM   C11S10687   2.471   0.263   9.633  0.5847  0.5911 -0.2962
  105OSM   H11S10688   2.382   0.198   9.645 -0.2573  1.8435  0.5064
  105OSM   H11T10689   2.559   0.196   9.624  1.3781  1.5726  0.0491
  105OSM   C12S10690   2.466   0.342   9.490 -0.1695 -0.5384 -0.4907
  105OSM   H12S10691   2.568   0.383   9.486  0.0765 -1.1903 -1.3948
  105OSM   H12T10692   2.391   0.424   9.495 -0.4386 -0.8544  1.4431
  105OSM   C13S10693   2.434   0.240   9.376 -0.4276 -0.1900  0.3110
  105OSM   H13S10694   2.490   0.147   9.397  1.7798  1.3432  1.6696
  105OSM   H13T10695   2.473   0.296   9.288 -1.4846  3.3570  1.8963
  105OSM   C14S10696   2.289   0.222   9.342  0.3391 -0.1024  0.1045
  105OSM   H14S10697   2.242   0.318   9.309 -1.4917 -0.8602  0.3662
  105OSM   H14T10698   2.214   0.184   9.415 -2.3863  2.2414 -1.2348
  105OSM   C15S10699   2.270   0.130   9.220 -0.3455 -0.0468  0.1824
  105OSM   H15S10700   2.342   0.152   9.138 -3.4446  0.4312 -2.6324
  105OSM   H15T10701   2.165   0.155   9.194 -0.0618  1.0238  0.0089
  105OSM   C16S10702   2.269  -0.022   9.247 -1.1597  0.5321 -0.6058
  105OSM   H16S10703   2.192  -0.045   9.324 -0.3319  1.1317  0.4273
  105OSM   H16T10704   2.371  -0.044   9.285 -0.8134 -0.2462 -1.9365
  105OSM   C17S10705   2.240  -0.104   9.121  0.1759  0.0322  0.1943
  105OSM   H17S10706   2.236  -0.212   9.148  4.4862 -0.0277  1.2018
  105OSM   H17T10707   2.326  -0.101   9.052 -0.3019  1.5750 -0.3701
  105OSM   C18S10708   2.125  -0.052   9.039 -0.1819  0.3783 -0.4098
  105OSM   H18S10709   2.037  -0.036   9.103 -0.4667 -0.0409 -0.6880
  105OSM   H18T10710   2.090  -0.106   8.948  0.9150  0.8863 -1.1594
  105OSM   H18U10711   2.153   0.047   8.997  1.4117 -0.1133 -0.5841
  105OSM    C1F10712   2.607  -0.305  10.359 -0.6525 -0.3158  0.2535
  105OSM     OF10713   2.494  -0.346  10.388  0.2965  0.2133  0.2563
  105OSM    C2F10714   2.699  -0.377  10.257  0.3134 -0.9226  0.8497
  105OSM    H2F10715   2.798  -0.397  10.303  2.0912  1.0516 -1.8042
  105OSM    H2G10716   2.712  -0.303  10.174 -1.9029 -1.1149  0.2613
  105OSM    C3F10717   2.636  -0.503  10.206 -0.3865  0.5592 -0.2925
  105OSM    H3F10718   2.536  -0.480  10.163  0.6565  2.5730 -1.8588
  105OSM    H3G10719   2.622  -0.565  10.297  2.3617  0.4449  0.1429
  105OSM    C4F10720   2.726  -0.566  10.099 -0.4142  0.1340  0.1586
  105OSM    H4F10721   2.733  -0.674  10.124 -2.4027  0.3948  2.2003
  105OSM    H4G10722   2.829  -0.523  10.107 -0.1467 -0.6547  1.2638
  105OSM    C5F10723   2.692  -0.541   9.949  0.6996  0.0845  0.3562
  105OSM    H5F10724   2.676  -0.434   9.928 -2.2662 -0.9130 -3.6137
  105OSM    H5G10725   2.593  -0.588   9.930 -0.3837  3.1768 -2.5363
  105OSM    C6F10726   2.796  -0.586   9.845 -0.2515  0.1364  0.1631
  105OSM    H6F10727   2.823  -0.690   9.872  0.6022  0.3636  0.2188
  105OSM    H6G10728   2.886  -0.522   9.853  0.7349 -0.9287 -1.6524
  105OSM    C7F10729   2.743  -0.575   9.704  0.1403  0.0987 -0.0771
  105OSM    H7F10730   2.676  -0.490   9.679  0.5622  0.5819  0.4009
  105OSM    H7G10731   2.693  -0.670   9.676  1.5588 -0.9185  0.7240
  105OSM    C8F10732   2.855  -0.576   9.600 -0.2613 -0.0793 -0.1272
  105OSM    H8F10733   2.926  -0.660   9.619  0.6794  0.4349 -1.2137
  105OSM    H8G10734   2.923  -0.492   9.627  1.4175 -1.5209  0.3599
  105OSM    C9F10735   2.814  -0.566   9.455 -0.6694 -0.1526 -0.2074
  105OSM    H9F10736   2.708  -0.544   9.435 -0.5049  0.8303 -0.0146
  105OSM   C10F10737   2.894  -0.587   9.348 -0.1134  0.1644  0.2931
  105OSM   H10F10738   2.847  -0.593   9.249  0.1539  1.2155  0.0913
  105OSM   C11F10739   3.037  -0.623   9.363  0.0291 -0.3460  0.1437
  105OSM   H11F10740   3.058  -0.679   9.456 -2.2409  0.7252  1.3704
  105OSM   H11G10741   3.096  -0.530   9.378 -0.7613  0.3389 -0.8163
  105OSM   C12F10742   3.099  -0.705   9.249  0.3091  0.3247 -0.2739
  105OSM   H12F10743   3.208  -0.686   9.251  0.6925 -1.6460 -0.0935
  105OSM   H12G10744   3.065  -0.677   9.147 -0.3790 -2.1809 -0.8068
  105OSM   C13F10745   3.069  -0.850   9.264  0.0359 -0.0505  0.2533
  105OSM   H13F10746   2.958  -0.859   9.257  0.1249 -0.0075 -1.7152
  105OSM   H13G10747   3.098  -0.873   9.368  1.0639  2.0716  0.4716
  105OSM   C14F10748   3.135  -0.951   9.165  0.6547 -0.0543  0.5209
  105OSM   H14F10749   3.245  -0.940   9.176  0.6621 -0.0998  0.4932
  105OSM   H14G10750   3.113  -0.934   9.057  0.9231 -2.7508 -0.0209
  105OSM   C15F10751   3.106  -1.102   9.203  0.2137 -0.2020  0.3871
  105OSM   H15F10752   2.995  -1.109   9.205  0.1156 -0.3610 -2.2284
  105OSM   H15G10753   3.142  -1.142   9.300  0.8256 -1.6787 -0.4168
  105OSM   C16F10754   3.166  -1.196   9.094  0.0352  0.2185 -0.0304
  105OSM   H16F10755   3.273  -1.202   9.122  0.0370  2.1500  0.5386
  105OSM   H16G10756   3.168  -1.154   8.992  0.3626 -2.4325 -1.2072
  105OSM   C17F10757   3.098  -1.336   9.076  0.0393 -0.1885  0.3911
  105OSM   H17F10758   3.140  -1.387   8.987 -0.9113  0.0741 -0.2213
  105OSM   H17G10759   2.994  -1.321   9.042  0.0344 -1.0618  0.0007
  105OSM   C18F10760   3.085  -1.416   9.214 -0.8154  0.2875 -0.3955
  105OSM   H18F10761   2.985  -1.400   9.261 -0.8667  2.6211 -1.2065
  105OSM   H18G10762   3.166  -1.385   9.283 -0.0713 -1.4877 -0.4161
  105OSM   H18H10763   3.086  -1.521   9.178 -0.7247  0.5064 -1.0401
  106OSM      N10764   1.028   0.417  10.923 -0.1245 -0.3860  0.0603
  106OSM    C1510765   1.126   0.471  11.026 -0.4351 -0.0518  0.4340
  106OSM   H15A10766   1.223   0.491  10.984 -1.2551  1.7366 -0.7299
  106OSM   H15B10767   1.149   0.396  11.100  1.3866 -0.7991 -0.8422
  106OSM   H15C10768   1.100   0.564  11.075  1.9272  0.5896  0.5847
  106OSM    C1410769   1.093   0.305  10.862 -0.0545 -0.3033  0.2775
  106OSM   H14A10770   1.016   0.254  10.805  0.0251  0.9072 -0.9695
  106OSM   H14B10771   1.120   0.228  10.933 -0.5366  1.7563  2.8127
  106OSM   H14C10772   1.180   0.344  10.811 -0.3291  0.4524  0.3773
  106OSM    C1310773   0.909   0.378  11.006  0.9293  0.2192  0.3039
  106OSM   H13A10774   0.825   0.342  10.947  0.3593 -0.3643  1.4363
  106OSM   H13B10775   0.875   0.461  11.067 -1.1791  0.1054 -0.6286
  106OSM   H13C10776   0.935   0.297  11.074  0.0252  1.9061  2.8121
  106OSM    C1210777   0.998   0.534  10.829 -0.3972  0.0214 -0.2937
  106OSM   H12A10778   1.089   0.586  10.804  0.2760 -1.2100 -0.4766
  106OSM   H12B10779   0.943   0.604  10.889 -1.4400  0.4065 -1.6365
  106OSM    C1110780   0.921   0.512  10.690 -1.2679  0.5810  0.0574
  106OSM   H11A10781   0.974   0.431  10.636 -0.4526  0.0610  1.5713
  106OSM   H11B10782   0.925   0.605  10.630 -0.3196  1.3999  1.3333
  106OSM      P10783   0.674   0.576  10.738 -0.0209 -0.2204 -0.1727
  106OSM    O1310784   0.553   0.498  10.768  0.1869 -0.1065  0.2769
  106OSM    O1410785   0.717   0.681  10.830 -0.0440 -0.1131 -0.1230
  106OSM    O1110786   0.663   0.647  10.587  0.0288  0.3313 -0.0606
  106OSM    O1210787   0.789   0.472  10.709 -0.1939  0.0652 -0.1344
  106OSM    C1S10788   0.609   0.572  10.480  0.2504  0.2021 -0.8129
  106OSM    H1S10789   0.511   0.528  10.509  0.9274 -0.0290  1.2580
  106OSM    H1T10790   0.668   0.484  10.448 -1.0756 -0.8936 -0.3713
  106OSM     NF10791   0.520   0.589  10.260 -0.0638  0.0377  0.6029
  106OSM    HNF10792   0.566   0.548  10.181 -1.9340 -0.6725 -0.1930
  106OSM    C2S10793   0.592   0.666  10.360 -0.1865  0.2327  0.3379
  106OSM    H2S10794   0.531   0.752  10.395  0.9675  0.4993  1.7825
  106OSM    C3S10795   0.735   0.711  10.322 -0.1484  0.2536 -0.7101
  106OSM    H3S10796   0.799   0.623  10.298 -0.6891 -0.5816  0.7359
  106OSM     O310797   0.803   0.780  10.427 -0.7429 -0.0220 -0.6547
  106OSM    HO310798   0.760   0.741  10.503  1.5653 -2.1497 -0.3235
  106OSM    C4S10799   0.737   0.792  10.194  0.6169 -0.2162 -0.8377
  106OSM    H4S10800   0.696   0.893  10.209  2.7732  0.8263 -1.5296
  106OSM    C5S10801   0.806   0.761  10.086 -0.4405  0.1956  0.3507
  106OSM    H5S10802   0.857   0.664  10.074  0.0876  0.3321  1.4176
  106OSM    C6S10803   0.820   0.842   9.961  0.2934  0.6976 -0.0378
  106OSM    H6S10804   0.748   0.805   9.885  0.2849  2.5717 -0.9938
  106OSM    H6T10805   0.926   0.829   9.927  1.0483  0.6111  2.1858
  106OSM    C7S10806   0.794   0.988   9.977  0.2824 -0.0437 -0.6560
  106OSM    H7S10807   0.846   1.026  10.068 -0.1936 -0.2645 -0.2849
  106OSM    H7T10808   0.687   1.017   9.988  0.0603 -0.9154 -0.4287
  106OSM    C8S10809   0.833   1.076   9.853  0.2894 -0.9918  0.7657
  106OSM    H8S10810   0.787   1.024   9.766  1.0681 -0.6259  0.1212
  106OSM    H8T10811   0.943   1.071   9.833  0.1353 -0.6622 -0.2163
  106OSM    C9S10812   0.788   1.224   9.872  0.5884  0.5206 -0.1063
  106OSM    H9S10813   0.847   1.274   9.951 -0.0657 -0.2640  0.9035
  106OSM    H9T10814   0.682   1.231   9.903  0.0380  1.1560 -1.9681
  106OSM   C10S10815   0.790   1.313   9.743 -0.4944  0.0557  0.1245
  106OSM   H10S10816   0.768   1.417   9.775 -0.1939  0.1673 -0.0258
  106OSM   H10T10817   0.710   1.278   9.674 -0.9860  0.7776  0.3196
  106OSM   C11S10818   0.922   1.309   9.669  0.2346 -0.0066  0.8303
  106OSM   H11S10819   0.947   1.206   9.635  1.9828  0.4593  0.5929
  106OSM   H11T10820   0.997   1.338   9.746  1.2711 -0.1989 -0.0718
  106OSM   C12S10821   0.914   1.410   9.549  0.5326  0.3844 -0.2821
  106OSM   H12S10822   1.019   1.418   9.513  1.6151 -3.3407  1.5787
  106OSM   H12T10823   0.864   1.504   9.579  2.6197  1.4169  0.1953
  106OSM   C13S10824   0.841   1.335   9.436 -0.4769  0.0447 -0.1409
  106OSM   H13S10825   0.733   1.322   9.461 -0.6200  1.4785  0.0348
  106OSM   H13T10826   0.903   1.245   9.417  0.1481  0.5076 -0.3138
  106OSM   C14S10827   0.864   1.424   9.319  0.2103  0.5957  0.4298
  106OSM   H14S10828   0.967   1.457   9.296 -0.7259  1.7399 -2.6148
  106OSM   H14T10829   0.800   1.514   9.329  0.0734  0.3870  1.6499
  106OSM   C15S10830   0.815   1.358   9.187 -0.1040  0.2737 -0.4373
  106OSM   H15S10831   0.719   1.304   9.193 -1.0861  1.4834 -3.2696
  106OSM   H15T10832   0.885   1.279   9.152  1.2658  2.3798 -2.9171
  106OSM   C16S10833   0.822   1.452   9.070  0.2755 -0.5696  0.5328
  106OSM   H16S10834   0.928   1.485   9.064 -0.1466  0.9378  0.8249
  106OSM   H16T10835   0.761   1.544   9.084  0.4274 -0.9072  4.4942
  106OSM   C17S10836   0.773   1.393   8.938 -0.3262  0.6115 -0.0573
  106OSM   H17S10837   0.669   1.358   8.954  0.2631 -1.0424  0.3627
  106OSM   H17T10838   0.843   1.308   8.923 -0.9119 -0.1934  1.5585
  106OSM   C18S10839   0.779   1.484   8.821  0.0391 -0.2196  0.2456
  106OSM   H18S10840   0.698   1.560   8.829  0.5477  0.2555  0.9601
  106OSM   H18T10841   0.745   1.437   8.726 -2.1423  0.8246  0.4498
  106OSM   H18U10842   0.881   1.523   8.803  0.0218  0.2774  1.1914
  106OSM    C1F10843   0.389   0.561  10.285  0.1462  0.2482  0.4346
  106OSM     OF10844   0.333   0.576  10.395 -0.2071 -0.3358 -0.3537
  106OSM    C2F10845   0.305   0.506  10.166  0.0359  0.5638  0.2428
  106OSM    H2F10846   0.202   0.509  10.208  0.0189  4.6236  0.3454
  106OSM    H2G10847   0.328   0.399  10.151  1.8450  0.9470  0.0088
  106OSM    C3F10848   0.309   0.586  10.037 -0.5187  0.1582 -0.0856
  106OSM    H3F10849   0.415   0.592  10.003 -0.3196  0.0935  0.5164
  106OSM    H3G10850   0.280   0.692  10.056  0.7915  0.5308 -0.0409
  106OSM    C4F10851   0.226   0.517   9.917 -0.2411 -0.2273  0.3877
  106OSM    H4F10852   0.119   0.547   9.913  0.1722  1.2367 -1.7658
  106OSM    H4G10853   0.222   0.407   9.929 -1.2794 -0.3018 -0.4392
  106OSM    C5F10854   0.289   0.548   9.773 -0.5692  0.1174  0.2536
  106OSM    H5F10855   0.400   0.539   9.772 -0.6594 -1.9688  1.6541
  106OSM    H5G10856   0.248   0.650   9.755 -1.1172  0.2714  2.1954
  106OSM    C6F10857   0.227   0.458   9.668 -0.0860  0.1506  1.3502
  106OSM    H6F10858   0.127   0.426   9.705  0.1713 -1.8167  0.4720
  106OSM    H6G10859   0.297   0.375   9.643 -0.1994  0.3755  0.2169
  106OSM    C7F10860   0.200   0.536   9.535  0.3992  0.4416  0.1037
  106OSM    H7F10861   0.163   0.634   9.573 -1.7936 -0.5196  0.5558
  106OSM    H7G10862   0.129   0.479   9.472 -1.6644 -1.7124  3.9817
  106OSM    C8F10863   0.326   0.569   9.451  0.5415  0.0259 -0.2687
  106OSM    H8F10864   0.401   0.596   9.528  1.0368 -0.9748 -0.3767
  106OSM    H8G10865   0.310   0.661   9.392 -1.8691 -0.9792 -1.3453
  106OSM    C9F10866   0.373   0.454   9.376 -0.1770  0.2293 -1.0305
  106OSM    H9F10867   0.361   0.363   9.437 -2.1692  1.1664  0.0709
  106OSM   C10F10868   0.412   0.438   9.250  0.2523  0.3027  0.1573
  106OSM   H10F10869   0.446   0.338   9.218  1.1705 -0.0390  2.0659
  106OSM   C11F10870   0.421   0.549   9.150 -0.3700 -0.0226 -0.1003
  106OSM   H11F10871   0.364   0.634   9.193 -0.8438 -1.2952  1.9628
  106OSM   H11G10872   0.365   0.518   9.059  1.4181  1.1383 -1.6551
  106OSM   C12F10873   0.553   0.584   9.081  0.1709  0.2102  0.0163
  106OSM   H12F10874   0.537   0.649   8.993  0.5604  0.8597  0.4154
  106OSM   H12G10875   0.584   0.487   9.037 -1.7932 -0.4217 -0.0570
  106OSM   C13F10876   0.652   0.652   9.173 -0.0036  0.3367  0.3329
  106OSM   H13F10877   0.739   0.674   9.107 -1.1053  0.1750 -1.2430
  106OSM   H13G10878   0.677   0.579   9.253 -0.3537  0.8981  0.9563
  106OSM   C14F10879   0.613   0.781   9.241  0.3477 -0.3343 -0.0852
  106OSM   H14F10880   0.514   0.774   9.289  0.1849  1.2836 -0.1260
  106OSM   H14G10881   0.616   0.855   9.158 -0.2936  0.3097  0.4604
  106OSM   C15F10882   0.708   0.824   9.351 -0.1721 -0.3525 -0.5633
  106OSM   H15F10883   0.731   0.732   9.408  0.5325 -0.2450 -0.6667
  106OSM   H15G10884   0.666   0.899   9.421 -0.8232 -2.7142  1.7208
  106OSM   C16F10885   0.838   0.888   9.294  0.1168  0.3082  0.0847
  106OSM   H16F10886   0.827   0.994   9.263 -0.4642  0.3084  0.2840
  106OSM   H16G10887   0.849   0.853   9.189 -4.4598  1.0455 -0.8690
  106OSM   C17F10888   0.970   0.868   9.368  0.1264  0.5731 -0.0419
  106OSM   H17F10889   0.961   0.919   9.466  0.5181  0.5766 -0.0095
  106OSM   H17G10890   1.044   0.929   9.312  2.9725 -0.6690  2.1673
  106OSM   C18F10891   1.026   0.726   9.369  0.1247 -0.5596 -0.0608
  106OSM   H18F10892   1.091   0.713   9.458 -0.7013  2.5822  1.1467
  106OSM   H18G10893   1.080   0.702   9.274 -0.3670 -1.6998 -0.0602
  106OSM   H18H10894   0.942   0.658   9.395 -1.4852  1.2358 -0.3321
  107OSM      N10895   5.384   5.150  11.258 -0.9028 -0.2803  0.0175
  107OSM    C1510896   5.303   5.145  11.137 -0.1555  0.2393  0.0087
  107OSM   H15A10897   5.231   5.065  11.136 -0.5440  0.5569  1.1485
  107OSM   H15B10898   5.368   5.123  11.053  1.2342 -3.6491  1.8847
  107OSM   H15C10899   5.240   5.231  11.125  1.5455  1.9731  2.5775
  107OSM    C1410900   5.476   5.257  11.233 -0.2010  0.0193  0.1939
  107OSM   H14A10901   5.425   5.349  11.212  0.0240  0.3231  0.9204
  107OSM   H14B10902   5.537   5.236  11.146 -1.6394  1.6497 -1.2729
  107OSM   H14C10903   5.538   5.269  11.321  1.1491  0.9055 -0.8554
  107OSM    C1310904   5.312   5.181  11.386 -0.0844  0.3007  0.2423
  107OSM   H13A10905   5.377   5.216  11.465  1.3120 -0.2327 -0.6186
  107OSM   H13B10906   5.255   5.096  11.420  0.3216 -0.6135 -1.2678
  107OSM   H13C10907   5.249   5.268  11.373  3.1610  2.5572 -1.9699
  107OSM    C1210908   5.467   5.019  11.265 -0.1140  0.3392 -0.7145
  107OSM   H12A10909   5.400   4.934  11.261  1.3410 -0.8302 -0.9693
  107OSM   H12B10910   5.514   5.012  11.362  0.1286  0.7242 -0.8034
  107OSM    C1110911   5.564   4.984  11.150 -1.0343 -0.0605 -1.0488
  107OSM   H11A10912   5.613   4.886  11.165 -0.1971  0.4421 -0.3425
  107OSM   H11B10913   5.652   5.052  11.158  1.4595 -3.0677 -0.9918
  107OSM      P10914   5.460   4.877  10.935  0.2875 -0.0026  0.4316
  107OSM    O1310915   5.575   4.827  10.859 -0.2477 -0.0183  0.6586
  107OSM    O1410916   5.398   4.779  11.031  0.2903 -0.0526  0.1013
  107OSM    O1110917   5.347   4.934  10.839 -0.2009  0.3381  0.1737
  107OSM    O1210918   5.499   4.999  11.017 -0.5162 -0.0001 -0.2678
  107OSM    C1S10919   5.389   5.026  10.747 -0.3863 -0.0598 -0.4289
  107OSM    H1S10920   5.476   5.004  10.682 -0.0366  0.7338 -0.2448
  107OSM    H1T10921   5.412   5.119  10.804  0.8488 -1.6714  1.8649
  107OSM     NF10922   5.332   5.092  10.514  0.0848  0.4288 -0.3580
  107OSM    HNF10923   5.332   5.191  10.504 -2.4299  0.8414  2.3711
  107OSM    C2S10924   5.284   5.052  10.639  1.0906 -0.1280 -0.7288
  107OSM    H2S10925   5.224   4.959  10.625 -1.8147  1.5127  0.0070
  107OSM    C3S10926   5.176   5.149  10.695 -0.5529  0.4038 -0.5329
  107OSM    H3S10927   5.230   5.241  10.727  1.1743 -0.9585  0.6820
  107OSM     O310928   5.116   5.091  10.812  0.0333  0.1665 -0.0175
  107OSM    HO310929   5.164   5.008  10.822 -0.6035 -0.3132 -0.8184
  107OSM    C4S10930   5.070   5.176  10.590 -0.1094 -0.0812  0.5619
  107OSM    H4S10931   5.030   5.079  10.558 -0.7038 -0.8090  3.2168
  107OSM    C5S10932   5.032   5.297  10.538 -0.7595 -0.1581 -0.2166
  107OSM    H5S10933   5.092   5.386  10.560  1.0113 -0.6591 -2.6507
  107OSM    C6S10934   4.921   5.302  10.433 -0.4014  0.0664 -0.7297
  107OSM    H6S10935   4.940   5.394  10.374  0.1020  0.8323  0.5694
  107OSM    H6T10936   4.823   5.308  10.485 -1.8394 -3.3117 -2.7279
  107OSM    C7S10937   4.919   5.185  10.333 -0.9328 -0.1730  0.0151
  107OSM    H7S10938   4.886   5.100  10.396  0.5987 -0.8486 -0.0572
  107OSM    H7T10939   5.017   5.155  10.290 -0.6509 -1.3238  1.4070
  107OSM    C8S10940   4.824   5.204  10.209 -0.4123 -0.1809  0.1924
  107OSM    H8S10941   4.717   5.214  10.237 -0.4524 -2.3513  1.0012
  107OSM    H8T10942   4.830   5.113  10.146  0.1196  0.5904 -0.9095
  107OSM    C9S10943   4.874   5.324  10.132  0.2891 -0.2080  0.6617
  107OSM    H9S10944   4.983   5.325  10.109  0.0649  0.4178 -0.4048
  107OSM    H9T10945   4.854   5.415  10.192  1.8946  2.2419 -2.2074
  107OSM   C10S10946   4.788   5.347  10.007 -0.1464 -0.0849  0.6740
  107OSM   H10S10947   4.793   5.457   9.999 -1.5444 -0.0403  0.0984
  107OSM   H10T10948   4.682   5.314  10.007 -0.1203 -0.1858 -0.4194
  107OSM   C11S10949   4.863   5.294   9.883  0.2125  0.2870 -0.3988
  107OSM   H11S10950   4.865   5.183   9.869  0.7528  0.0203  1.4977
  107OSM   H11T10951   4.966   5.335   9.880 -0.1659  1.2926  0.2769
  107OSM   C12S10952   4.791   5.350   9.761  0.6686 -0.1360 -0.5017
  107OSM   H12S10953   4.761   5.457   9.767 -0.5150 -0.5050  0.7247
  107OSM   H12T10954   4.690   5.307   9.746  0.2075  0.5911  0.4001
  107OSM   C13S10955   4.863   5.331   9.633 -0.1991  0.3212 -0.1818
  107OSM   H13S10956   4.907   5.229   9.624 -2.7093 -0.7471 -1.5683
  107OSM   H13T10957   4.946   5.405   9.634 -1.1837  1.4407  0.3788
  107OSM   C14S10958   4.769   5.362   9.513 -0.0826 -0.2038 -0.0840
  107OSM   H14S10959   4.696   5.445   9.524 -1.0182 -0.8339 -1.2333
  107OSM   H14T10960   4.701   5.275   9.510  1.4978 -1.4653 -1.7030
  107OSM   C15S10961   4.842   5.380   9.379  0.8437  0.0982 -1.3388
  107OSM   H15S10962   4.913   5.465   9.390 -0.3619  1.2010 -1.8723
  107OSM   H15T10963   4.764   5.402   9.304  0.0747  0.6387 -0.4064
  107OSM   C16S10964   4.920   5.251   9.346  0.3631 -0.4419 -0.1666
  107OSM   H16S10965   4.858   5.159   9.348  2.3602 -1.8471  0.5642
  107OSM   H16T10966   4.998   5.237   9.425  1.0557 -1.0638 -0.9408
  107OSM   C17S10967   4.993   5.264   9.211  0.0074  0.5322  0.2551
  107OSM   H17S10968   4.999   5.160   9.170  2.3125  0.8700 -0.4117
  107OSM   H17T10969   5.096   5.296   9.235 -0.4631  0.9206  1.8450
  107OSM   C18S10970   4.925   5.353   9.106 -0.7237  0.1121  0.4090
  107OSM   H18S10971   4.979   5.348   9.009 -1.3667 -0.4108  0.0750
  107OSM   H18T10972   4.922   5.463   9.121 -0.8363  0.4517 -1.7724
  107OSM   H18U10973   4.820   5.321   9.092 -1.9671  3.8653  0.0859
  107OSM    C1F10974   5.407   5.008  10.437  0.0849 -0.6095  0.6372
  107OSM     OF10975   5.407   4.886  10.459 -0.5763 -0.0994  0.0515
  107OSM    C2F10976   5.473   5.063  10.316  0.0808  0.0494 -0.4995
  107OSM    H2F10977   5.508   5.164  10.347 -0.3365 -0.5466  2.0920
  107OSM    H2G10978   5.398   5.067  10.234 -1.2329 -1.5351  0.5750
  107OSM    C3F10979   5.598   4.986  10.259 -0.0645 -0.3362  0.1257
  107OSM    H3F10980   5.565   4.880  10.252  2.5242 -1.2625  0.6944
  107OSM    H3G10981   5.679   4.989  10.335 -1.2349  0.0950  1.3960
  107OSM    C4F10982   5.650   5.032  10.124  0.0958 -0.9098  0.0338
  107OSM    H4F10983   5.752   4.990  10.119  0.0143 -1.0614 -0.3458
  107OSM    H4G10984   5.654   5.143  10.132  0.3999 -0.8616 -0.6843
  107OSM    C5F10985   5.570   4.979  10.012 -0.0359  0.2493 -0.8271
  107OSM    H5F10986   5.467   5.014  10.034 -0.8715 -2.2451 -0.5323
  107OSM    H5G10987   5.561   4.869  10.019 -3.5252  0.4799  0.2968
  107OSM    C6F10988   5.630   5.018   9.871 -0.1582  0.2088  0.1033
  107OSM    H6F10989   5.728   4.966   9.875 -1.0682 -1.5164  1.4969
  107OSM    H6G10990   5.656   5.126   9.874  2.0264 -0.2473 -0.2722
  107OSM    C7F10991   5.554   4.985   9.742  0.4956  0.0591  0.4228
  107OSM    H7F10992   5.465   5.051   9.744  0.9741  0.7375  2.5250
  107OSM    H7G10993   5.523   4.879   9.744 -0.2857  0.2729 -0.1646
  107OSM    C8F10994   5.624   5.005   9.609 -0.5800 -0.3532  0.2212
  107OSM    H8F10995   5.679   5.101   9.607 -1.6122  0.2337 -1.0437
  107OSM    H8G10996   5.548   5.017   9.529  0.0615  2.1542 -0.0992
  107OSM    C9F10997   5.721   4.892   9.592  0.0052 -0.4175 -0.0450
  107OSM    H9F10998   5.788   4.879   9.678  0.8709  1.1319 -0.4481
  107OSM   C10F10999   5.731   4.818   9.480 -0.2871  0.2767  0.3570
  107OSM   H10F11000   5.809   4.741   9.472 -0.0870  0.6205 -1.2416
  107OSM   C11F11001   5.631   4.818   9.367 -0.6543  0.2499  0.3000
  107OSM   H11F11002   5.639   4.912   9.308 -0.5825  0.4023  0.5535
  107OSM   H11G11003   5.523   4.811   9.393 -1.1890  0.7197 -1.5952
  107OSM   C12F11004   5.642   4.708   9.259 -0.1858  0.1521  0.4024
  107OSM   H12F11005   5.581   4.619   9.282 -3.6197  1.9180 -1.1329
  107OSM   H12G11006   5.749   4.682   9.245  0.0416  0.5101  1.3577
  107OSM   C13F11007   5.594   4.761   9.125  0.6784  0.2473  0.1322
  107OSM   H13F11008   5.658   4.843   9.087  2.6509 -0.9184  0.7490
  107OSM   H13G11009   5.490   4.788   9.151 -0.5014 -0.4768 -3.4127
  107OSM   C14F11010   5.576   4.651   9.018 -0.0608  0.7016  0.1262
  107OSM   H14F11011   5.503   4.576   9.056 -0.1072  1.0770  0.7938
  107OSM   H14G11012   5.668   4.594   8.995 -0.2122  0.8560 -0.8927
  107OSM   C15F11013   5.502   4.692   8.887  0.1203  1.0570  0.2401
  107OSM   H15F11014   5.568   4.765   8.835  0.8207 -0.5806 -1.2611
  107OSM   H15G11015   5.405   4.738   8.917 -1.4093 -0.0841 -2.5048
  107OSM   C16F11016   5.472   4.565   8.796  0.2944 -0.0060 -0.0421
  107OSM   H16F11017   5.429   4.484   8.859  0.8853  0.2842  0.7505
  107OSM   H16G11018   5.569   4.518   8.769 -0.1465  0.0190 -1.7916
  107OSM   C17F11019   5.383   4.586   8.683 -0.1399  0.1904  0.7702
  107OSM   H17F11020   5.445   4.646   8.611 -0.2762 -1.5673 -0.8827
  107OSM   H17G11021   5.299   4.657   8.702 -0.9098 -0.1289 -1.1758
  107OSM   C18F11022   5.335   4.461   8.614 -0.1735 -0.2336 -0.9945
  107OSM   H18F11023   5.271   4.491   8.528 -0.0141  1.7953 -0.4569
  107OSM   H18G11024   5.292   4.403   8.699  0.6024  3.0052  1.8551
  107OSM   H18H11025   5.419   4.395   8.583 -0.0411 -1.0235  0.8814
  108OSM      N11026   6.366   6.587  10.653  0.0737 -0.5125 -0.4091
  108OSM    C1511027   6.329   6.707  10.568  0.3257  0.1605  0.1399
  108OSM   H15A11028   6.395   6.728  10.484  1.5322 -0.3311  0.9391
  108OSM   H15B11029   6.314   6.792  10.633 -1.7365 -0.3046  0.3237
  108OSM   H15C11030   6.239   6.682  10.514  1.0203 -0.5244 -0.7374
  108OSM    C1411031   6.249   6.551  10.746 -0.2493  0.2395  0.2115
  108OSM   H14A11032   6.160   6.517  10.694 -1.6845  1.2204  1.9237
  108OSM   H14B11033   6.208   6.639  10.792 -2.3203 -0.2755 -0.5317
  108OSM   H14C11034   6.279   6.476  10.817  1.0856  1.5495  1.0737
  108OSM    C1311035   6.387   6.466  10.566 -0.5286 -0.4718  0.7126
  108OSM   H13A11036   6.464   6.470  10.491 -2.4043  0.0721 -1.2840
  108OSM   H13B11037   6.294   6.441  10.517  0.0815 -1.4647  0.0369
  108OSM   H13C11038   6.405   6.381  10.631 -0.8440 -0.4183  0.8736
  108OSM    C1211039   6.496   6.617  10.729 -0.4274 -0.0986  0.6190
  108OSM   H12A11040   6.489   6.716  10.771  1.3135  0.3557 -0.0471
  108OSM   H12B11041   6.576   6.625  10.657 -1.4486  1.9885 -0.3487
  108OSM    C1111042   6.551   6.519  10.832  0.1940  0.2848  0.1581
  108OSM   H11A11043   6.461   6.470  10.875 -1.1233  2.5210  0.0698
  108OSM   H11B11044   6.599   6.574  10.916  0.3100 -0.1071  0.3543
  108OSM      P11045   6.785   6.444  10.747  0.1895  0.0858  0.3208
  108OSM    O1311046   6.794   6.545  10.640 -0.1786  0.0007 -0.8911
  108OSM    O1411047   6.856   6.473  10.871  0.0948 -0.5994 -0.1689
  108OSM    O1111048   6.812   6.304  10.697  0.3405  0.5152  0.6395
  108OSM    O1211049   6.635   6.420  10.780  0.8391  0.1388 -0.2464
  108OSM    C1S11050   6.747   6.259  10.578  0.1203 -0.3593  0.2869
  108OSM    H1S11051   6.669   6.321  10.530 -1.5183 -1.3273  1.5680
  108OSM    H1T11052   6.692   6.166  10.606  0.8529 -0.8505  0.1333
  108OSM     NF11053   6.790   6.160  10.357 -0.0314  0.0064 -0.5792
  108OSM    HNF11054   6.807   6.068  10.321  4.1983  0.3666  0.0006
  108OSM    C2S11055   6.857   6.220  10.479  0.6000  0.8518  0.0409
  108OSM    H2S11056   6.915   6.308  10.444 -0.9396  1.1682 -1.8852
  108OSM    C3S11057   6.963   6.118  10.545  0.1041  0.3235  0.8678
  108OSM    H3S11058   6.901   6.047  10.604  0.5824 -0.5856  0.3014
  108OSM     O311059   7.045   6.187  10.639  0.3564  0.7961  0.3106
  108OSM    HO311060   6.990   6.265  10.657 -0.2719  0.2027  1.0335
  108OSM    C4S11061   7.055   6.045  10.448  0.4214  0.0068  0.0523
  108OSM    H4S11062   7.065   5.937  10.469  0.5611  0.1762  0.9005
  108OSM    C5S11063   7.126   6.101  10.347 -0.0211 -0.0997  0.5287
  108OSM    H5S11064   7.117   6.206  10.316  0.4319 -0.4877 -1.0374
  108OSM    C6S11065   7.222   6.022  10.260  0.5448 -0.5477 -0.2800
  108OSM    H6S11066   7.197   6.022  10.152 -1.3409 -2.9465  0.0598
  108OSM    H6T11067   7.235   5.915  10.288 -0.2865 -0.1537  1.8417
  108OSM    C7S11068   7.370   6.073  10.276  0.1616  0.6035  0.3750
  108OSM    H7S11069   7.397   6.062  10.384  0.2511 -1.8109  0.1484
  108OSM    H7T11070   7.379   6.176  10.236 -2.6446  0.3835 -1.0446
  108OSM    C8S11071   7.469   5.993  10.189 -0.6102  0.3417  0.3695
  108OSM    H8S11072   7.414   5.935  10.112  0.6307 -2.6105  1.5746
  108OSM    H8T11073   7.521   5.924  10.259  3.8692  1.4423 -1.5440
  108OSM    C9S11074   7.575   6.074  10.120  0.8389  0.0898  0.2619
  108OSM    H9S11075   7.660   6.006  10.096  0.9902  0.4746 -0.2914
  108OSM    H9T11076   7.624   6.153  10.181  0.2818  0.4771  0.2162
  108OSM   C10S11077   7.528   6.150   9.993 -0.4244 -0.3721 -0.1291
  108OSM   H10S11078   7.439   6.216   9.998 -0.5579 -0.4991 -0.7368
  108OSM   H10T11079   7.501   6.064   9.929  1.3990 -1.3108  0.3138
  108OSM   C11S11080   7.645   6.230   9.941 -0.0840 -0.8463 -0.1079
  108OSM   H11S11081   7.726   6.161   9.909 -1.6056 -2.2785 -1.0268
  108OSM   H11T11082   7.685   6.298  10.020  1.9549 -2.1965  0.1088
  108OSM   C12S11083   7.604   6.314   9.816  0.0710  0.2601 -0.4434
  108OSM   H12S11084   7.684   6.388   9.798  0.3977 -0.1158 -0.5530
  108OSM   H12T11085   7.519   6.378   9.850  0.4962  0.6981 -0.1914
  108OSM   C13S11086   7.569   6.236   9.693 -0.5438  0.2785 -0.3310
  108OSM   H13S11087   7.473   6.183   9.712  0.2580 -0.8176  0.7341
  108OSM   H13T11088   7.649   6.164   9.668 -0.4120 -0.3332  1.7320
  108OSM   C14S11089   7.563   6.324   9.564  0.2970 -0.3707 -0.9178
  108OSM   H14S11090   7.666   6.363   9.554  0.9436 -2.2982 -2.3426
  108OSM   H14T11091   7.490   6.406   9.582  0.1037 -0.7279  0.0070
  108OSM   C15S11092   7.540   6.251   9.429  0.1706  0.3608 -0.5035
  108OSM   H15S11093   7.490   6.313   9.351  1.4972 -1.6600 -3.1305
  108OSM   H15T11094   7.477   6.162   9.450  0.7937 -0.0600 -0.4079
  108OSM   C16S11095   7.673   6.202   9.379 -0.2864 -0.0194 -0.6910
  108OSM   H16S11096   7.713   6.122   9.446  1.6113  3.9120  3.3900
  108OSM   H16T11097   7.744   6.287   9.385 -0.4859  0.1480 -0.7021
  108OSM   C17S11098   7.679   6.146   9.239 -0.7256  0.7230  0.1966
  108OSM   H17S11099   7.649   6.221   9.163  0.2494  0.3343 -0.6028
  108OSM   H17T11100   7.617   6.055   9.227  0.4915 -0.3458  1.5736
  108OSM   C18S11101   7.825   6.106   9.207  0.1232 -0.1865 -0.1515
  108OSM   H18S11102   7.889   6.197   9.212 -2.1580  1.4731  0.0631
  108OSM   H18T11103   7.833   6.071   9.102  0.5392 -0.4786 -0.0291
  108OSM   H18U11104   7.859   6.027   9.277 -0.3225 -1.0190 -0.8533
  108OSM    C1F11105   6.720   6.241  10.285  0.2299 -0.5140 -0.5564
  108OSM     OF11106   6.748   6.362  10.277  0.3994 -0.0663 -0.0780
  108OSM    C2F11107   6.631   6.182  10.191 -0.4699  0.6250 -1.0069
  108OSM    H2F11108   6.598   6.088  10.240  1.8665 -0.3190 -1.0882
  108OSM    H2G11109   6.688   6.162  10.098  0.4293  0.7576 -0.4962
  108OSM    C3F11110   6.523   6.282  10.151  0.1059  0.0761  0.1315
  108OSM    H3F11111   6.570   6.373  10.108  1.4880 -0.8299 -0.3428
  108OSM    H3G11112   6.460   6.302  10.240  0.7246 -0.4199  0.6959
  108OSM    C4F11113   6.432   6.223  10.040  0.7761  0.0796  0.1790
  108OSM    H4F11114   6.370   6.146  10.091  2.3375 -0.7560  0.9062
  108OSM    H4G11115   6.497   6.172   9.965 -0.5330 -1.7239  0.1989
  108OSM    C5F11116   6.351   6.331   9.970 -0.0737  0.9599 -0.4206
  108OSM    H5F11117   6.420   6.412   9.938 -0.3995  1.1689 -0.6092
  108OSM    H5G11118   6.274   6.362  10.043 -0.7896  0.2394 -0.8454
  108OSM    C6F11119   6.282   6.270   9.853  0.6299 -0.4808 -1.1362
  108OSM    H6F11120   6.198   6.338   9.826 -2.8638 -3.5668  0.9723
  108OSM    H6G11121   6.223   6.177   9.870  1.7083 -1.2568 -1.5329
  108OSM    C7F11122   6.370   6.252   9.730  0.4994  0.6558  0.3383
  108OSM    H7F11123   6.336   6.164   9.672  4.0793  0.1484 -1.2523
  108OSM    H7G11124   6.475   6.230   9.758  1.6046  1.2576 -2.8867
  108OSM    C8F11125   6.368   6.369   9.629  0.4152  0.2085  0.0571
  108OSM    H8F11126   6.450   6.358   9.555 -0.4422  1.2037 -1.1015
  108OSM    H8G11127   6.396   6.467   9.675  0.7898  0.6350 -1.0544
  108OSM    C9F11128   6.237   6.397   9.562 -0.1747  0.1065  0.2069
  108OSM    H9F11129   6.153   6.434   9.622 -1.3390 -1.7148 -0.2116
  108OSM   C10F11130   6.202   6.382   9.430  0.3251  0.0256  0.1504
  108OSM   H10F11131   6.100   6.411   9.403  1.1555  2.1182 -0.9736
  108OSM   C11F11132   6.286   6.320   9.321 -0.4708 -0.0302  0.0974
  108OSM   H11F11133   6.224   6.305   9.230  0.0120 -1.3577 -0.0380
  108OSM   H11G11134   6.311   6.218   9.357  0.4716  1.2750  3.5533
  108OSM   C12F11135   6.405   6.409   9.272 -0.0403 -0.2242 -0.3842
  108OSM   H12F11136   6.465   6.440   9.359 -2.5032 -0.4975  1.5303
  108OSM   H12G11137   6.369   6.506   9.229  0.0706  0.6781  1.4747
  108OSM   C13F11138   6.493   6.330   9.181  0.3741 -0.3166  0.3828
  108OSM   H13F11139   6.520   6.235   9.230 -1.0277 -1.5690 -1.1402
  108OSM   H13G11140   6.587   6.381   9.151  0.2591 -0.2719  0.0921
  108OSM   C14F11141   6.435   6.289   9.047  0.4474  0.1722  0.3088
  108OSM   H14F11142   6.397   6.381   8.998  0.8674  0.7238  0.9960
  108OSM   H14G11143   6.348   6.223   9.069 -1.1029  1.6470 -1.0785
  108OSM   C15F11144   6.534   6.213   8.966  0.4458 -0.6259 -0.5942
  108OSM   H15F11145   6.526   6.104   8.990 -2.1774 -1.2617 -3.6145
  108OSM   H15G11146   6.636   6.246   8.992 -1.0133  0.3188  5.3660
  108OSM   C16F11147   6.508   6.227   8.816  0.2485  0.1316  0.6550
  108OSM   H16F11148   6.400   6.221   8.793 -0.1476  1.6982  1.8839
  108OSM   H16G11149   6.550   6.143   8.758  1.9843  1.0957  0.4432
  108OSM   C17F11150   6.562   6.365   8.770 -0.1710  0.0599 -0.0244
  108OSM   H17F11151   6.671   6.353   8.760 -0.2396 -0.4597 -0.1266
  108OSM   H17G11152   6.536   6.447   8.841  1.6611  1.3201 -0.7406
  108OSM   C18F11153   6.506   6.403   8.627  0.3026  0.3590 -0.1950
  108OSM   H18F11154   6.572   6.483   8.589  1.6202  0.0430  1.3124
  108OSM   H18G11155   6.401   6.435   8.645  0.1240 -0.1387 -0.3229
  108OSM   H18H11156   6.490   6.315   8.561 -1.7073 -0.5188  1.3500
  109OSM      N11157   0.925   3.905  10.993  0.1330  0.1436 -0.3505
  109OSM    C1511158   0.811   3.811  11.012 -0.1063  1.1221  1.0005
  109OSM   H15A11159   0.787   3.804  11.117  0.7208  0.6034  1.1563
  109OSM   H15B11160   0.851   3.717  10.977  2.2031  2.4922 -0.2898
  109OSM   H15C11161   0.721   3.838  10.958 -0.5143  1.1030  1.6595
  109OSM    C1411162   0.939   3.934  10.845  0.2784  0.3223  0.6476
  109OSM   H14A11163   0.946   3.843  10.787 -0.3136  0.2575  0.6693
  109OSM   H14B11164   1.023   3.998  10.821 -0.4261  0.9709 -0.1808
  109OSM   H14C11165   0.841   3.963  10.812 -1.5683 -0.6388  4.6993
  109OSM    C1311166   0.876   4.032  11.058 -0.1365  0.6638  0.2421
  109OSM   H13A11167   0.835   4.011  11.155  1.2799  1.3908  1.0261
  109OSM   H13B11168   0.800   4.072  10.992 -0.5558 -0.8884 -0.2763
  109OSM   H13C11169   0.953   4.108  11.063  0.5915 -0.0838  0.5959
  109OSM    C1211170   1.052   3.862  11.053 -0.1780  0.6846 -0.8732
  109OSM   H12A11171   1.062   3.894  11.156  0.8106  2.5709 -1.5060
  109OSM   H12B11172   1.139   3.911  11.010  1.2097 -0.7604  0.1750
  109OSM    C1111173   1.084   3.711  11.045 -0.0713  0.5276 -0.4485
  109OSM   H11A11174   1.013   3.658  11.113 -2.3504  2.7830 -0.9326
  109OSM   H11B11175   1.188   3.698  11.085 -0.4259 -2.9936 -0.3157
  109OSM      P11176   1.196   3.670  10.826  0.3248 -0.2531 -0.1159
  109OSM    O1311177   1.291   3.559  10.845  0.0665 -0.1891  0.1261
  109OSM    O1411178   1.124   3.686  10.704  0.2873 -0.1929  0.9223
  109OSM    O1111179   1.265   3.803  10.859 -0.1034 -0.0179 -0.6152
  109OSM    O1211180   1.076   3.649  10.925 -0.2619 -1.3117 -0.0378
  109OSM    C1S11181   1.386   3.839  10.791  0.9564  0.2389  1.1183
  109OSM    H1S11182   1.433   3.755  10.735  2.3049  2.1359 -0.7828
  109OSM    H1T11183   1.467   3.874  10.858  0.9788 -1.7436  2.1876
  109OSM     NF11184   1.476   3.955  10.592  0.3317 -0.1557  0.6102
  109OSM    HNF11185   1.524   4.041  10.577 -1.5106  0.7156 -0.6749
  109OSM    C2S11186   1.363   3.946  10.684 -0.0525  0.3753  0.2951
  109OSM    H2S11187   1.278   3.907  10.624  1.6653 -1.6175 -0.9954
  109OSM    C3S11188   1.327   4.084  10.749 -0.0740 -0.1542 -0.2927
  109OSM    H3S11189   1.419   4.118  10.800  0.5501 -2.4564  0.2097
  109OSM     O311190   1.219   4.081  10.842  0.3174 -0.0396  0.9134
  109OSM    HO311191   1.208   3.987  10.855  0.6116 -0.4126 -1.1292
  109OSM    C4S11192   1.294   4.189  10.644  0.1983 -0.6080 -0.0545
  109OSM    H4S11193   1.196   4.171  10.596 -0.9697  0.2704  1.8864
  109OSM    C5S11194   1.370   4.294  10.618  0.1458 -0.3121  0.0679
  109OSM    H5S11195   1.473   4.296  10.658  0.1563  0.7800  0.0086
  109OSM    C6S11196   1.325   4.402  10.525 -0.2181 -0.6286  0.0987
  109OSM    H6S11197   1.354   4.501  10.565 -1.8415 -0.4250  0.8652
  109OSM    H6T11198   1.214   4.406  10.513 -0.0320  2.7281 -1.7491
  109OSM    C7S11199   1.392   4.400  10.384 -0.4016 -0.4445  0.3634
  109OSM    H7S11200   1.500   4.385  10.405  0.0985  0.0804 -1.5942
  109OSM    H7T11201   1.387   4.500  10.335  0.7053 -0.3344  0.4432
  109OSM    C8S11202   1.336   4.294  10.281 -0.3391 -0.0690 -0.5028
  109OSM    H8S11203   1.229   4.268  10.288 -1.0032  2.2510 -1.2122
  109OSM    H8T11204   1.397   4.203  10.303  1.6455  1.5532  1.2016
  109OSM    C9S11205   1.343   4.339  10.133  0.4136  0.4193 -0.0623
  109OSM    H9S11206   1.437   4.391  10.107 -0.5252  1.6357 -1.1494
  109OSM    H9T11207   1.265   4.417  10.120 -1.6291 -1.4913  0.0710
  109OSM   C10S11208   1.319   4.226  10.029 -0.0109 -0.1667 -0.4267
  109OSM   H10S11209   1.232   4.164  10.058 -0.7012  0.4474 -1.1278
  109OSM   H10T11210   1.406   4.156  10.030 -0.1733 -0.3700  1.5858
  109OSM   C11S11211   1.283   4.293   9.892 -0.6216 -0.5044 -0.0649
  109OSM   H11S11212   1.383   4.328   9.856 -0.8618  1.1746  0.7938
  109OSM   H11T11213   1.215   4.381   9.896  0.2152  0.1564  0.0094
  109OSM   C12S11214   1.229   4.193   9.783 -0.5446  0.1274 -0.2171
  109OSM   H12S11215   1.119   4.185   9.800 -0.6036  0.5487 -0.3913
  109OSM   H12T11216   1.271   4.090   9.791 -1.1984 -0.1174  0.1387
  109OSM   C13S11217   1.246   4.252   9.644 -0.1213  0.2379  0.1513
  109OSM   H13S11218   1.177   4.338   9.625  1.6913  1.6341 -0.3716
  109OSM   H13T11219   1.196   4.178   9.578  2.3327  0.0476 -1.6143
  109OSM   C14S11220   1.386   4.276   9.591 -0.7874 -0.1811  0.3202
  109OSM   H14S11221   1.454   4.198   9.630  0.6869  0.7469 -0.3231
  109OSM   H14T11222   1.427   4.369   9.635 -1.7923 -0.8544  2.8512
  109OSM   C15S11223   1.393   4.294   9.437  0.4135  0.2637  0.1102
  109OSM   H15S11224   1.496   4.316   9.402  0.1825 -1.4651 -1.8569
  109OSM   H15T11225   1.332   4.385   9.415  1.7319  1.0396 -0.5079
  109OSM   C16S11226   1.346   4.178   9.349 -0.0501  0.2671  0.4834
  109OSM   H16S11227   1.237   4.164   9.365 -0.6384  1.5187 -2.0432
  109OSM   H16T11228   1.392   4.079   9.373  3.9067  1.5516 -0.9565
  109OSM   C17S11229   1.365   4.209   9.200  0.2106 -0.2578 -0.7042
  109OSM   H17S11230   1.473   4.227   9.186  0.4636 -1.5068 -0.4620
  109OSM   H17T11231   1.320   4.307   9.173 -3.0538 -1.6315 -0.7108
  109OSM   C18S11232   1.308   4.101   9.117 -0.0682  0.3882  0.1509
  109OSM   H18S11233   1.331   4.006   9.170  1.1509 -0.1793 -1.3104
  109OSM   H18T11234   1.349   4.108   9.014  0.4283 -1.7614  0.1663
  109OSM   H18U11235   1.197   4.096   9.115 -0.0271 -0.5230 -0.2995
  109OSM    C1F11236   1.517   3.865  10.505 -0.4254 -0.8847 -0.2883
  109OSM     OF11237   1.475   3.753  10.512  0.2509 -0.1158  0.0032
  109OSM    C2F11238   1.611   3.892  10.393  0.4274  0.5173  0.0449
  109OSM    H2F11239   1.681   3.806  10.393  1.2916  1.1931 -0.4846
  109OSM    H2G11240   1.660   3.992  10.399 -2.8868  2.2572  0.4447
  109OSM    C3F11241   1.525   3.881  10.269  0.6235 -0.2712  0.2922
  109OSM    H3F11242   1.459   3.969  10.255  0.7357 -0.1941  0.2468
  109OSM    H3G11243   1.459   3.792  10.266  1.2497 -0.7291 -1.0335
  109OSM    C4F11244   1.617   3.868  10.148 -0.1706 -0.6934  0.2796
  109OSM    H4F11245   1.682   3.779  10.161 -1.0664 -1.4930 -0.5584
  109OSM    H4G11246   1.677   3.959  10.126 -0.3296 -0.7875 -0.5987
  109OSM    C5F11247   1.544   3.868  10.013 -0.5151  0.3210 -0.1365
  109OSM    H5F11248   1.512   3.971   9.984  5.4418  3.4914  2.6187
  109OSM    H5G11249   1.453   3.806  10.026 -0.4342  0.0286 -0.8863
  109OSM    C6F11250   1.635   3.827   9.892  0.1778  0.6570 -0.2271
  109OSM    H6F11251   1.660   3.719   9.906  2.4244  0.9145 -1.7815
  109OSM    H6G11252   1.729   3.884   9.882  0.4060  0.0681 -1.5813
  109OSM    C7F11253   1.551   3.851   9.775  0.0432 -0.0177  0.9604
  109OSM    H7F11254   1.535   3.960   9.759 -2.3441 -0.6490 -1.5572
  109OSM    H7G11255   1.447   3.816   9.788 -0.2750  0.8861  0.9251
  109OSM    C8F11256   1.613   3.787   9.644 -0.3514  0.9696 -0.1121
  109OSM    H8F11257   1.633   3.681   9.667  1.3433  1.6750  1.9374
  109OSM    H8G11258   1.715   3.831   9.637  0.0777  1.0697  4.2823
  109OSM    C9F11259   1.534   3.791   9.513  0.7013 -1.1890 -0.4635
  109OSM    H9F11260   1.437   3.741   9.515  1.1244 -1.9836  0.6216
  109OSM   C10F11261   1.572   3.860   9.399 -0.5016  0.3903 -0.3669
  109OSM   H10F11262   1.506   3.862   9.312  0.6399  0.0471 -1.2609
  109OSM   C11F11263   1.698   3.950   9.383 -0.1359  0.1438 -0.5033
  109OSM   H11F11264   1.786   3.918   9.444 -0.8251 -0.0817  0.3928
  109OSM   H11G11265   1.667   4.047   9.428  0.9869 -0.6477  2.1362
  109OSM   C12F11266   1.756   3.975   9.237  0.8498 -0.1714 -0.0826
  109OSM   H12F11267   1.839   4.047   9.248  1.5575 -1.0112  0.2464
  109OSM   H12G11268   1.679   4.021   9.172  0.5927 -0.3547  0.0883
  109OSM   C13F11269   1.814   3.847   9.175 -0.3314  1.3668 -0.2971
  109OSM   H13F11270   1.743   3.762   9.169  2.3943 -1.2034  0.7423
  109OSM   H13G11271   1.900   3.812   9.237 -0.6983  0.1240 -0.4629
  109OSM   C14F11272   1.849   3.852   9.027 -0.4078  1.4039  0.5843
  109OSM   H14F11273   1.925   3.934   9.028 -0.8659  1.8270  0.9366
  109OSM   H14G11274   1.765   3.873   8.958 -1.4535  2.2521  2.0666
  109OSM   C15F11275   1.920   3.730   8.971 -0.1448  1.2525 -0.2917
  109OSM   H15F11276   1.845   3.650   8.948  1.2629 -0.0077 -0.6846
  109OSM   H15G11277   1.995   3.704   9.048 -2.0719  0.2565  1.3543
  109OSM   C16F11278   1.993   3.734   8.834 -0.0970  0.0534  0.1321
  109OSM   H16F11279   1.923   3.764   8.753  0.3349 -1.5444 -0.8728
  109OSM   H16G11280   2.039   3.638   8.804  1.9101  0.5628  1.3861
  109OSM   C17F11281   2.106   3.839   8.840  0.3949 -0.9645  0.0876
  109OSM   H17F11282   2.168   3.833   8.932  2.1287  1.1626 -0.8393
  109OSM   H17G11283   2.059   3.939   8.837  0.2733 -0.9600  1.5961
  109OSM   C18F11284   2.209   3.830   8.726 -0.3543 -0.8085  0.6582
  109OSM   H18F11285   2.262   3.927   8.715 -2.9927  0.5401 -1.6134
  109OSM   H18G11286   2.146   3.815   8.635 -0.6722 -1.2686  0.9508
  109OSM   H18H11287   2.270   3.740   8.748  2.5602  0.4367 -1.7017
  110OSM      N11288   1.097   2.524  10.985 -0.1381 -0.1472 -0.2864
  110OSM    C1511289   1.031   2.594  11.102  0.4562 -0.6334 -0.5857
  110OSM   H15A11290   1.062   2.539  11.189  1.1233 -0.2538 -0.5753
  110OSM   H15B11291   0.924   2.593  11.087  0.1649  3.8200 -0.1797
  110OSM   H15C11292   1.066   2.696  11.107 -0.5343 -0.3628  1.5544
  110OSM    C1411293   1.051   2.389  10.987  0.3652  0.3899  0.1103
  110OSM   H14A11294   0.944   2.372  10.988  0.3688  0.3922  1.1242
  110OSM   H14B11295   1.096   2.328  11.064  2.3179  0.4292 -0.9225
  110OSM   H14C11296   1.090   2.343  10.897 -1.5912  0.5262 -0.8707
  110OSM    C1311297   1.047   2.587  10.860  0.0220 -0.0930 -0.3556
  110OSM   H13A11298   1.079   2.533  10.772  1.1713  2.2616 -1.4474
  110OSM   H13B11299   1.073   2.691  10.852  1.3194 -0.4808 -1.6748
  110OSM   H13C11300   0.940   2.571  10.865  0.3508 -2.8444  4.2430
  110OSM    C1211301   1.244   2.541  11.008  0.0236  0.0165 -1.1078
  110OSM   H12A11302   1.272   2.494  11.101 -2.1949  0.0505 -0.3627
  110OSM   H12B11303   1.269   2.645  11.020 -1.2562  0.3901 -1.5437
  110OSM    C1111304   1.338   2.481  10.910 -0.4954 -0.3805 -0.0437
  110OSM   H11A11305   1.441   2.521  10.922 -1.3694  1.6760  1.1319
  110OSM   H11B11306   1.310   2.513  10.808 -0.8360 -1.4423 -0.3010
  110OSM      P11307   1.381   2.254  11.033  0.2007  0.2058  0.2052
  110OSM    O1311308   1.408   2.344  11.146  0.4017 -0.5015 -0.0240
  110OSM    O1411309   1.292   2.142  11.057 -0.1617  0.1368 -0.5136
  110OSM    O1111310   1.520   2.211  10.965  0.0677 -1.0141  0.6022
  110OSM    O1211311   1.327   2.334  10.911  0.2224  0.0084 -0.2614
  110OSM    C1S11312   1.533   2.112  10.866  0.5806  0.2902  0.8924
  110OSM    H1S11313   1.438   2.061  10.839  1.2993 -0.6604  0.0815
  110OSM    H1T11314   1.615   2.042  10.891  0.5747 -0.9625 -2.1729
  110OSM     NF11315   1.589   2.101  10.612 -0.0827 -0.5967  0.2973
  110OSM    HNF11316   1.669   2.042  10.600  0.9055  0.4887  1.2294
  110OSM    C2S11317   1.596   2.178  10.736  0.7696 -0.3775 -0.0400
  110OSM    H2S11318   1.543   2.273  10.717  0.8078 -0.6028 -1.4291
  110OSM    C3S11319   1.745   2.207  10.776 -0.1654 -0.3818 -0.4101
  110OSM    H3S11320   1.796   2.110  10.796  1.0222  0.9413  3.9200
  110OSM     O311321   1.762   2.270  10.904  0.2034  0.4074  0.0181
  110OSM    HO311322   1.674   2.266  10.942  0.3996  0.8296  0.5101
  110OSM    C4S11323   1.822   2.278  10.672  1.0484 -0.2432  0.5002
  110OSM    H4S11324   1.837   2.216  10.582 -0.3360  0.1706 -0.0319
  110OSM    C5S11325   1.877   2.400  10.670 -0.0960 -0.3579  0.3126
  110OSM    H5S11326   1.863   2.458  10.763  0.2027 -2.7916  1.9820
  110OSM    C6S11327   1.948   2.462  10.551  0.5876  0.1696 -1.0055
  110OSM    H6S11328   1.881   2.535  10.502  0.0344  0.8071  0.6207
  110OSM    H6T11329   1.974   2.374  10.488 -0.0293 -0.7821  0.0304
  110OSM    C7S11330   2.080   2.550  10.589  0.1400 -0.0803  0.7963
  110OSM    H7S11331   2.152   2.472  10.621 -2.0138 -2.2250  0.7066
  110OSM    H7T11332   2.053   2.614  10.675  0.0850  1.3592 -0.2609
  110OSM    C8S11333   2.130   2.622  10.468 -0.8612  0.0094  0.2586
  110OSM    H8S11334   2.205   2.700  10.495 -0.4910 -0.2116 -0.1183
  110OSM    H8T11335   2.043   2.685  10.438 -2.1014 -1.2538  1.1051
  110OSM    C9S11336   2.181   2.520  10.368 -0.1841  0.1532 -0.1071
  110OSM    H9S11337   2.107   2.445  10.336 -1.4484  1.9201 -1.5278
  110OSM    H9T11338   2.271   2.473  10.413 -0.9767 -0.1949  1.1450
  110OSM   C10S11339   2.228   2.596  10.238 -0.1310  0.7987 -1.0924
  110OSM   H10S11340   2.315   2.664  10.248  0.7351 -0.0909 -2.1841
  110OSM   H10T11341   2.139   2.659  10.217 -0.6104  0.4168 -0.2712
  110OSM   C11S11342   2.264   2.504  10.120  0.0913  0.1821 -0.1810
  110OSM   H11S11343   2.187   2.427  10.096 -0.0484  0.6623 -1.3184
  110OSM   H11T11344   2.348   2.440  10.154 -0.4562  0.3958  1.6961
  110OSM   C12S11345   2.293   2.575   9.989  0.7027  0.3436 -0.1266
  110OSM   H12S11346   2.375   2.648  10.006 -0.8565  1.9010  1.0859
  110OSM   H12T11347   2.202   2.636   9.967  0.5450  0.7463  1.5734
  110OSM   C13S11348   2.316   2.485   9.867 -0.3050  0.3275 -0.0049
  110OSM   H13S11349   2.227   2.428   9.834  1.0861 -1.3555 -1.0538
  110OSM   H13T11350   2.385   2.404   9.900 -0.6287  0.5406  1.2349
  110OSM   C14S11351   2.382   2.551   9.743  0.7050  0.1013  0.2394
  110OSM   H14S11352   2.491   2.563   9.761  0.6120  1.1694  0.1640
  110OSM   H14T11353   2.337   2.653   9.744 -1.0663 -0.6149 -1.2568
  110OSM   C15S11354   2.358   2.489   9.602  0.1122 -0.0891  0.3385
  110OSM   H15S11355   2.248   2.471   9.598  0.2459 -1.2449  1.1871
  110OSM   H15T11356   2.394   2.384   9.601 -3.3078 -1.4464 -2.4727
  110OSM   C16S11357   2.421   2.564   9.493  0.3754 -0.9020 -0.1155
  110OSM   H16S11358   2.528   2.591   9.506 -0.0517  2.1947 -1.9074
  110OSM   H16T11359   2.358   2.655   9.479  1.3564 -0.4190 -1.5641
  110OSM   C17S11360   2.412   2.476   9.369  0.1883 -0.0888  0.3519
  110OSM   H17S11361   2.307   2.457   9.338  0.3932 -0.5501 -0.0636
  110OSM   H17T11362   2.463   2.381   9.393  1.9689  0.6632 -0.2882
  110OSM   C18S11363   2.505   2.540   9.260 -0.1051 -0.7699 -0.0263
  110OSM   H18S11364   2.445   2.561   9.169 -0.0781  3.2628  0.7049
  110OSM   H18T11365   2.584   2.464   9.241 -0.9914 -1.3246 -1.7251
  110OSM   H18U11366   2.552   2.633   9.297 -1.5210 -0.5435  1.2791
  110OSM    C1F11367   1.473   2.078  10.553 -0.8822 -1.4299 -0.0814
  110OSM     OF11368   1.377   2.142  10.589 -0.0588 -0.5722  0.4616
  110OSM    C2F11369   1.464   1.961  10.459 -0.2092 -0.6735 -1.0477
  110OSM    H2F11370   1.450   1.869  10.520 -2.1766 -1.0828 -2.0438
  110OSM    H2G11371   1.561   1.956  10.405  1.1161 -0.3541  1.1867
  110OSM    C3F11372   1.338   1.954  10.375  1.0705  0.0718 -0.0229
  110OSM    H3F11373   1.331   2.036  10.301 -0.8080 -0.1682 -0.1737
  110OSM    H3G11374   1.239   1.950  10.425  0.1817 -3.1535 -1.7207
  110OSM    C4F11375   1.332   1.825  10.285 -0.3846 -0.7999 -0.2606
  110OSM    H4F11376   1.231   1.824  10.240  0.3248  1.2623 -2.0639
  110OSM    H4G11377   1.327   1.737  10.353  0.4339  0.3800  1.3887
  110OSM    C5F11378   1.439   1.813  10.174  0.2998 -0.0111 -0.6540
  110OSM    H5F11379   1.412   1.726  10.110  0.5521 -0.8344  0.3218
  110OSM    H5G11380   1.538   1.797  10.221 -1.1727 -3.1424  1.8067
  110OSM    C6F11381   1.456   1.924  10.072 -0.3862  0.5372 -0.2149
  110OSM    H6F11382   1.497   2.009  10.130  2.1119 -0.1941 -0.8002
  110OSM    H6G11383   1.355   1.952  10.035 -0.2918 -1.9115 -2.6533
  110OSM    C7F11384   1.547   1.886   9.959 -0.0455 -0.4298 -0.2314
  110OSM    H7F11385   1.501   1.811   9.891  0.5341 -1.9348  0.9983
  110OSM    H7G11386   1.640   1.834   9.991 -1.0559 -1.0356  1.8924
  110OSM    C8F11387   1.590   2.014   9.868  0.1401  0.3167  0.2076
  110OSM    H8F11388   1.687   2.002   9.814  0.2420  1.2108  0.1771
  110OSM    H8G11389   1.601   2.091   9.947  1.9271 -0.1054  0.4165
  110OSM    C9F11390   1.484   2.051   9.766 -0.5176  0.1787 -0.6623
  110OSM    H9F11391   1.404   2.114   9.806 -0.9147 -0.2208 -0.8153
  110OSM   C10F11392   1.470   2.005   9.642 -0.7976  0.6569  0.8891
  110OSM   H10F11393   1.395   2.044   9.572 -1.3238  1.2060  1.7494
  110OSM   C11F11394   1.567   1.913   9.570  0.1217  0.0253  0.0607
  110OSM   H11F11395   1.563   1.812   9.617  2.1393 -1.3110 -2.3595
  110OSM   H11G11396   1.674   1.941   9.587  0.0639  0.5378 -0.3844
  110OSM   C12F11397   1.539   1.903   9.418  0.1670  0.4240 -0.7589
  110OSM   H12F11398   1.436   1.868   9.395 -0.3832  0.7526  1.0077
  110OSM   H12G11399   1.605   1.829   9.369  1.4163  0.8383  0.2464
  110OSM   C13F11400   1.563   2.032   9.347 -0.5388 -0.0201 -0.0082
  110OSM   H13F11401   1.636   2.093   9.406  0.1687  2.3429 -3.0819
  110OSM   H13G11402   1.470   2.092   9.341 -0.3607  0.3172  0.5003
  110OSM   C14F11403   1.622   2.013   9.204 -0.0490 -0.6471 -0.1815
  110OSM   H14F11404   1.708   1.944   9.217  1.1530  0.9894  1.1254
  110OSM   H14G11405   1.672   2.107   9.172 -1.5270 -0.0302 -0.7713
  110OSM   C15F11406   1.506   1.965   9.112 -0.2798 -0.0311  0.0206
  110OSM   H15F11407   1.425   2.038   9.097 -0.6250 -0.3872  0.1367
  110OSM   H15G11408   1.455   1.878   9.159 -3.4241  0.7526 -1.6910
  110OSM   C16F11409   1.562   1.944   8.975 -0.4198 -0.0575 -0.1938
  110OSM   H16F11410   1.512   1.862   8.918  0.2854 -1.7342  1.5209
  110OSM   H16G11411   1.666   1.907   8.984  0.3186  1.9511 -0.0358
  110OSM   C17F11412   1.568   2.066   8.882  0.1352  0.3837 -0.2091
  110OSM   H17F11413   1.629   2.144   8.932  2.4801 -0.8685 -0.9619
  110OSM   H17G11414   1.465   2.104   8.862 -1.2291 -3.1259 -0.6396
  110OSM   C18F11415   1.630   2.028   8.742 -0.1287 -0.6610 -0.5373
  110OSM   H18F11416   1.557   1.961   8.692 -0.2383 -0.6755 -0.3545
  110OSM   H18G11417   1.731   1.985   8.756 -0.8077 -1.6670  1.5142
  110OSM   H18H11418   1.652   2.122   8.685  0.2950  0.5061  1.4522
  111OSM      N11419   1.821   0.096  10.710 -0.4158  0.3730 -0.4208
  111OSM    C1511420   1.851   0.169  10.841  0.9747 -0.1429 -0.1458
  111OSM   H15A11421   1.955   0.181  10.866  0.9563  0.5619 -0.3864
  111OSM   H15B11422   1.810   0.119  10.928 -0.1109 -0.1047 -0.6152
  111OSM   H15C11423   1.820   0.272  10.842 -1.8845 -0.9169  0.8796
  111OSM    C1411424   1.894   0.167  10.601  0.1084  0.4236 -0.0087
  111OSM   H14A11425   1.909   0.101  10.517 -2.4562  0.8301 -0.8398
  111OSM   H14B11426   1.991   0.189  10.643  0.5067 -0.6014 -0.3543
  111OSM   H14C11427   1.849   0.258  10.564 -0.4623 -0.0193 -0.4022
  111OSM    C1311428   1.878  -0.043  10.730  0.7090 -0.4300 -0.0956
  111OSM   H13A11429   1.821  -0.083  10.813 -0.5599  2.3062  0.4462
  111OSM   H13B11430   1.980  -0.032  10.764  0.7979 -0.2830 -0.4105
  111OSM   H13C11431   1.876  -0.114  10.649  0.5368 -3.2485  2.1985
  111OSM    C1211432   1.676   0.097  10.680 -0.7079  0.2915 -0.7011
  111OSM   H12A11433   1.629   0.070  10.774  3.5690  0.2602  1.6995
  111OSM   H12B11434   1.652   0.027  10.602 -1.0935  0.0882 -0.4051
  111OSM    C1111435   1.602   0.223  10.635  0.1513  0.4322 -0.1184
  111OSM   H11A11436   1.500   0.185  10.610 -0.3772 -0.7437  3.2153
  111OSM   H11B11437   1.661   0.260  10.549 -1.0589 -0.4476 -1.3632
  111OSM      P11438   1.483   0.336  10.825 -0.1501 -0.1969 -0.2374
  111OSM    O1311439   1.431   0.199  10.839 -0.5495  0.0687  0.0393
  111OSM    O1411440   1.507   0.403  10.955  0.3287  0.0077  0.3611
  111OSM    O1111441   1.385   0.408  10.725  0.0819 -0.0242 -0.6488
  111OSM    O1211442   1.614   0.326  10.733  0.1254  0.4223 -0.2845
  111OSM    C1S11443   1.413   0.537  10.664 -0.0826 -0.4807 -0.6211
  111OSM    H1S11444   1.521   0.553  10.683  0.3371 -0.6213 -2.6388
  111OSM    H1T11445   1.347   0.622  10.691 -0.7962  0.1791 -3.9128
  111OSM     NF11446   1.465   0.641  10.435 -0.2017 -0.4889  0.1343
  111OSM    HNF11447   1.403   0.704  10.390 -0.6808 -1.1679 -0.1792
  111OSM    C2S11448   1.407   0.527  10.512 -0.3340 -0.4143 -0.3731
  111OSM    H2S11449   1.469   0.441  10.478 -0.7427 -0.8156 -0.1212
  111OSM    C3S11450   1.257   0.497  10.485 -0.5116 -0.4518 -0.2052
  111OSM    H3S11451   1.190   0.573  10.531  1.1599  0.7767  0.3124
  111OSM     O311452   1.208   0.370  10.520  0.4993  0.1925 -0.0435
  111OSM    HO311453   1.257   0.350  10.600 -0.4014 -0.2081  0.4142
  111OSM    C4S11454   1.233   0.514  10.332 -0.4120 -0.0970  0.0399
  111OSM    H4S11455   1.288   0.445  10.266 -0.1809  1.2209 -1.1805
  111OSM    C5S11456   1.155   0.611  10.280  0.4519  0.7741 -0.7550
  111OSM    H5S11457   1.101   0.670  10.356 -1.7614 -0.2393 -1.4608
  111OSM    C6S11458   1.138   0.636  10.133 -0.0115  0.2090  0.4816
  111OSM    H6S11459   1.102   0.740  10.122  0.8456  0.5151  0.5193
  111OSM    H6T11460   1.058   0.564  10.106 -0.4964  0.9414 -0.0609
  111OSM    C7S11461   1.258   0.611  10.041 -0.7810 -1.1067  0.4581
  111OSM    H7S11462   1.284   0.503  10.041 -0.7137 -1.1278  2.1062
  111OSM    H7T11463   1.344   0.668  10.083 -1.7791  0.0002  1.0845
  111OSM    C8S11464   1.221   0.656   9.899 -0.9094 -0.0793 -0.7527
  111OSM    H8S11465   1.192   0.764   9.905 -0.0628  0.0899  1.1574
  111OSM    H8T11466   1.129   0.595   9.887 -0.7438 -0.6476  0.6450
  111OSM    C9S11467   1.331   0.629   9.801 -0.2475  0.5749  0.3163
  111OSM    H9S11468   1.397   0.548   9.837 -4.5512 -3.0422  0.9080
  111OSM    H9T11469   1.397   0.718   9.801  2.0537 -1.0535  1.0726
  111OSM   C10S11470   1.286   0.590   9.665  0.3667 -0.1978  0.2816
  111OSM   H10S11471   1.220   0.668   9.621  1.5211  0.4742 -0.3247
  111OSM   H10T11472   1.225   0.498   9.666 -0.4228  0.3146  0.2799
  111OSM   C11S11473   1.401   0.580   9.559  0.5695 -0.1074 -0.7553
  111OSM   H11S11474   1.460   0.492   9.593  0.4286  0.1165  0.1072
  111OSM   H11T11475   1.462   0.673   9.562  1.3433 -0.6075  1.4741
  111OSM   C12S11476   1.347   0.571   9.417 -0.2274  1.0947  0.1519
  111OSM   H12S11477   1.309   0.668   9.378 -0.5197  0.2711 -1.7131
  111OSM   H12T11478   1.261   0.501   9.421  1.0112 -0.4938  0.2411
  111OSM   C13S11479   1.451   0.527   9.313  0.1690 -0.1418 -0.4879
  111OSM   H13S11480   1.518   0.447   9.348  2.2438  1.3732 -0.7844
  111OSM   H13T11481   1.511   0.610   9.270 -0.2963  0.4161 -0.0739
  111OSM   C14S11482   1.385   0.468   9.186 -0.3820 -0.9588  0.0776
  111OSM   H14S11483   1.313   0.541   9.143  0.7966  0.6639  0.7599
  111OSM   H14T11484   1.337   0.371   9.210 -1.5827 -0.4436 -0.1444
  111OSM   C15S11485   1.480   0.441   9.066  0.3059  0.0467 -0.1514
  111OSM   H15S11486   1.555   0.370   9.108 -1.6207 -1.0556  1.6617
  111OSM   H15T11487   1.526   0.541   9.051  1.6540 -0.4907  0.2115
  111OSM   C16S11488   1.399   0.392   8.949 -0.3005  0.1886  0.3278
  111OSM   H16S11489   1.342   0.477   8.906  0.1178  1.2386  1.7719
  111OSM   H16T11490   1.335   0.317   9.001  0.8210  0.4801  2.2305
  111OSM   C17S11491   1.494   0.348   8.834 -0.0637  0.5461  0.1449
  111OSM   H17S11492   1.569   0.276   8.874  1.0853  1.8377  0.3762
  111OSM   H17T11493   1.546   0.440   8.803 -2.3933  2.9913  2.8841
  111OSM   C18S11494   1.431   0.282   8.706 -0.0481 -0.9327  0.6148
  111OSM   H18S11495   1.501   0.278   8.620  0.2191  4.5040  0.2448
  111OSM   H18T11496   1.347   0.337   8.659 -1.4797 -2.3572  1.3695
  111OSM   H18U11497   1.387   0.184   8.735  0.5921 -1.3496  0.1943
  111OSM    C1F11498   1.596   0.662  10.415 -0.1066 -0.0630 -0.1668
  111OSM     OF11499   1.683   0.592  10.460  0.1210  0.1798 -0.5124
  111OSM    C2F11500   1.616   0.772  10.319  0.0722 -0.0082 -0.2207
  111OSM    H2F11501   1.644   0.861  10.380  0.8889 -1.5340  1.7503
  111OSM    H2G11502   1.527   0.792  10.256  0.1855 -0.0440 -0.3926
  111OSM    C3F11503   1.744   0.762  10.236  0.2640 -1.5602 -0.3203
  111OSM    H3F11504   1.736   0.672  10.173  0.4529 -0.8478 -1.3839
  111OSM    H3G11505   1.835   0.752  10.299  1.1232  0.2060 -1.2092
  111OSM    C4F11506   1.762   0.891  10.149  0.0452 -0.0674  0.1966
  111OSM    H4F11507   1.775   0.984  10.209  1.4588 -1.9971  3.1474
  111OSM    H4G11508   1.659   0.907  10.113 -0.5182 -1.4801  1.1064
  111OSM    C5F11509   1.850   0.895  10.030 -0.5019 -0.2417  0.3986
  111OSM    H5F11510   1.872   0.799   9.978  0.3779 -0.0417  0.3776
  111OSM    H5G11511   1.953   0.914  10.067 -1.5795  0.9495  3.0358
  111OSM    C6F11512   1.818   1.001   9.930  0.3426 -0.6984 -0.4809
  111OSM    H6F11513   1.915   1.033   9.885 -0.3486 -0.4124 -1.8296
  111OSM    H6G11514   1.783   1.086   9.992 -0.2583 -1.0314 -0.3652
  111OSM    C7F11515   1.719   0.972   9.826  0.2363  0.0507  0.5677
  111OSM    H7F11516   1.673   1.063   9.782 -1.7343 -0.1667  2.0223
  111OSM    H7G11517   1.643   0.900   9.863  0.2888 -0.6850 -0.6950
  111OSM    C8F11518   1.788   0.893   9.710  0.6372 -0.1011 -0.2466
  111OSM    H8F11519   1.850   0.809   9.746  1.4189 -0.4972 -2.3464
  111OSM    H8G11520   1.858   0.958   9.653  2.6378 -1.3362  0.7058
  111OSM    C9F11521   1.688   0.852   9.608  0.2641 -0.2788 -0.2079
  111OSM    H9F11522   1.641   0.759   9.643  0.0709 -0.4433 -0.8700
  111OSM   C10F11523   1.659   0.914   9.490  0.0366  0.1893 -0.3269
  111OSM   H10F11524   1.581   0.872   9.426 -0.2952 -1.3015  1.0045
  111OSM   C11F11525   1.720   1.041   9.433  0.7574  0.5687 -0.1078
  111OSM   H11F11526   1.765   1.102   9.514  1.1028 -0.0351  0.1562
  111OSM   H11G11527   1.641   1.095   9.377 -0.2395 -1.6150 -0.9154
  111OSM   C12F11528   1.840   1.018   9.343  0.5349  0.2844  0.2022
  111OSM   H12F11529   1.931   0.983   9.396  0.0433 -0.4988  0.5498
  111OSM   H12G11530   1.871   1.120   9.311 -2.1243  1.8967  2.3427
  111OSM   C13F11531   1.814   0.931   9.216  0.1021 -0.2740 -0.1635
  111OSM   H13F11532   1.754   0.841   9.243  0.1920 -1.0282 -2.2989
  111OSM   H13G11533   1.905   0.887   9.170 -1.6279 -1.0737 -3.0750
  111OSM   C14F11534   1.741   1.014   9.112 -0.8029 -1.0926 -0.3794
  111OSM   H14F11535   1.816   1.089   9.078 -0.1017 -1.1434  0.9976
  111OSM   H14G11536   1.649   1.065   9.146  0.3417 -0.2888  1.6664
  111OSM   C15F11537   1.710   0.935   8.986  0.2747  0.1911 -0.4603
  111OSM   H15F11538   1.788   0.861   8.957  0.5217  0.7779 -1.3155
  111OSM   H15G11539   1.700   1.002   8.897  0.2512  1.1748  0.2661
  111OSM   C16F11540   1.576   0.856   8.997 -1.1200 -0.4445 -0.1284
  111OSM   H16F11541   1.505   0.927   9.043  1.6674  2.3120  0.2663
  111OSM   H16G11542   1.587   0.778   9.075 -2.9366 -0.4581  0.1418
  111OSM   C17F11543   1.528   0.789   8.868  0.4595  0.1419  0.0211
  111OSM   H17F11544   1.492   0.869   8.800 -1.0401 -1.5847 -1.3080
  111OSM   H17G11545   1.444   0.718   8.883 -0.2141  1.1141  1.1145
  111OSM   C18F11546   1.631   0.701   8.787  0.3704 -0.2632  0.0064
  111OSM   H18F11547   1.695   0.769   8.726 -0.9059  0.1189 -0.9544
  111OSM   H18G11548   1.572   0.639   8.716 -1.0307 -0.8419  1.6117
  111OSM   H18H11549   1.686   0.624   8.846 -1.4170 -2.2753 -0.8219
  112OSM      N11550   6.787   6.116  11.192  0.4057 -0.0918  0.2166
  112OSM    C1511551   6.905   6.177  11.266  0.7675  0.1537 -0.0702
  112OSM   H15A11552   6.878   6.173  11.370 -2.3978  0.3321 -0.7979
  112OSM   H15B11553   6.908   6.285  11.259  0.2424  0.1857  0.1610
  112OSM   H15C11554   6.998   6.127  11.243 -0.0213 -0.9775 -0.9024
  112OSM    C1411555   6.765   5.977  11.230 -0.0648 -0.2993 -0.7638
  112OSM   H14A11556   6.849   5.919  11.196  1.3583  0.2700  1.5511
  112OSM   H14B11557   6.674   5.938  11.185  0.2050 -1.3146 -0.4643
  112OSM   H14C11558   6.767   5.947  11.334  0.4643 -1.6922 -1.1454
  112OSM    C1311559   6.666   6.210  11.210 -0.3730  0.1897  0.1131
  112OSM   H13A11560   6.633   6.225  11.312 -1.8466 -1.1749 -0.1297
  112OSM   H13B11561   6.582   6.173  11.153  0.5773 -0.1187 -1.1327
  112OSM   H13C11562   6.692   6.308  11.172  2.0020 -0.2124  0.5312
  112OSM    C1211563   6.813   6.124  11.039 -0.3800 -0.1281 -0.4017
  112OSM   H12A11564   6.896   6.058  11.021 -1.4771 -1.8391  0.5076
  112OSM   H12B11565   6.850   6.221  11.010  0.7068 -0.5344 -0.4181
  112OSM    C1111566   6.705   6.079  10.939 -0.5254 -0.2836  0.9665
  112OSM   H11A11567   6.755   6.076  10.840 -0.7393 -0.3470  0.8618
  112OSM   H11B11568   6.628   6.158  10.925 -0.3922  0.1577  2.4876
  112OSM      P11569   6.716   5.831  10.915  0.2625  0.7750  0.1792
  112OSM    O1311570   6.859   5.830  10.926 -0.0359 -0.1508 -0.2134
  112OSM    O1411571   6.640   5.712  10.957 -0.0827  0.1794 -0.2188
  112OSM    O1111572   6.684   5.850  10.762 -0.2232  0.3016 -0.2511
  112OSM    O1211573   6.637   5.959  10.977 -0.0303  0.0323  0.4405
  112OSM    C1S11574   6.561   5.899  10.715 -0.0183 -0.4448 -1.2385
  112OSM    H1S11575   6.561   6.010  10.718  0.3976 -0.4589 -0.0648
  112OSM    H1T11576   6.479   5.859  10.778 -0.3088  0.6430 -0.9112
  112OSM     NF11577   6.384   5.897  10.536 -0.2339 -0.0610  0.5711
  112OSM    HNF11578   6.326   5.817  10.550 -1.6571  1.0886  1.6609
  112OSM    C2S11579   6.525   5.872  10.561 -0.2958 -0.1034  0.0277
  112OSM    H2S11580   6.586   5.951  10.513 -1.0344  0.2320 -0.3647
  112OSM    C3S11581   6.570   5.726  10.532  0.6332 -0.3301 -0.2330
  112OSM    H3S11582   6.510   5.660  10.599 -1.2950  0.6727 -0.8698
  112OSM     O311583   6.705   5.686  10.550  0.2205  0.1436 -1.1570
  112OSM    HO311584   6.736   5.760  10.602  0.6721  0.8534 -2.3889
  112OSM    C4S11585   6.537   5.673  10.397 -0.4837 -0.0321  0.2278
  112OSM    H4S11586   6.562   5.740  10.313 -2.8775  1.0147  0.2751
  112OSM    C5S11587   6.473   5.561  10.368 -0.2335  0.0981  0.0870
  112OSM    H5S11588   6.428   5.508  10.453  0.0427  0.4166  0.4394
  112OSM    C6S11589   6.441   5.516  10.229  1.2779  0.0791 -0.4055
  112OSM    H6S11590   6.416   5.407  10.230  1.0578  0.1335  0.6544
  112OSM    H6T11591   6.528   5.522  10.160  0.6114  1.5385 -1.1547
  112OSM    C7S11592   6.329   5.602  10.151 -0.3928  0.3658 -0.1262
  112OSM    H7S11593   6.386   5.697  10.146 -2.6635  1.8498  0.4106
  112OSM    H7T11594   6.244   5.622  10.220  1.6698  1.6242  2.2184
  112OSM    C8S11595   6.278   5.538  10.032  0.6313 -0.0346 -0.4772
  112OSM    H8S11596   6.184   5.592  10.005  2.3632  2.7405 -1.4331
  112OSM    H8T11597   6.252   5.431  10.047 -3.8377  0.9458  0.2194
  112OSM    C9S11598   6.357   5.562   9.907  0.2118 -0.3266 -0.1506
  112OSM    H9S11599   6.447   5.498   9.907 -0.3653 -1.2831  2.6846
  112OSM    H9T11600   6.390   5.668   9.902  0.1832 -0.2079  1.5773
  112OSM   C10S11601   6.276   5.517   9.778 -0.0422  0.4691  0.0978
  112OSM   H10S11602   6.185   5.581   9.768 -0.3523  0.0117 -0.0304
  112OSM   H10T11603   6.241   5.414   9.800 -0.5878  0.8311  0.9587
  112OSM   C11S11604   6.359   5.502   9.648 -0.5309  0.1601  0.2856
  112OSM   H11S11605   6.432   5.421   9.668 -1.0729 -0.3614  0.1751
  112OSM   H11T11606   6.417   5.597   9.642 -2.7320  1.5691  0.0038
  112OSM   C12S11607   6.270   5.497   9.523  0.1223 -0.1011 -0.7225
  112OSM   H12S11608   6.245   5.603   9.499  1.7940  0.3376 -0.6558
  112OSM   H12T11609   6.185   5.429   9.545  0.2024 -0.0749 -0.3306
  112OSM   C13S11610   6.338   5.447   9.386 -0.3867 -0.0338  0.1122
  112OSM   H13S11611   6.388   5.351   9.413  0.0951  0.4632  0.9998
  112OSM   H13T11612   6.406   5.525   9.346 -1.4794  1.0524  0.3320
  112OSM   C14S11613   6.232   5.417   9.273 -0.5729 -0.6085 -0.8045
  112OSM   H14S11614   6.191   5.509   9.227  1.0477  0.5440 -0.0560
  112OSM   H14T11615   6.147   5.359   9.315 -0.0399  0.2034  1.5984
  112OSM   C15S11616   6.287   5.354   9.147 -0.3315 -0.1657 -0.2050
  112OSM   H15S11617   6.328   5.256   9.180  0.9451  1.5808  4.0230
  112OSM   H15T11618   6.375   5.404   9.102 -1.1634  0.6803 -0.9194
  112OSM   C16S11619   6.190   5.353   9.026  0.7532  0.0282  0.3881
  112OSM   H16S11620   6.174   5.459   8.996  0.3492  0.2316  1.3115
  112OSM   H16T11621   6.095   5.312   9.068  0.3000  2.4506  1.9370
  112OSM   C17S11622   6.237   5.279   8.900 -0.0013 -0.5067  0.7408
  112OSM   H17S11623   6.261   5.174   8.926 -1.4113 -1.0406 -0.0207
  112OSM   H17T11624   6.337   5.321   8.874  0.2869 -1.0295  0.9933
  112OSM   C18S11625   6.142   5.300   8.779 -0.0290  0.0495  0.5933
  112OSM   H18S11626   6.179   5.245   8.690 -0.4857 -0.4249  0.6916
  112OSM   H18T11627   6.135   5.402   8.736  0.1642  0.6276  1.8779
  112OSM   H18U11628   6.040   5.260   8.797 -0.0297  0.0329  0.5503
  112OSM    C1F11629   6.343   6.025  10.524 -0.7140  0.8391 -0.5963
  112OSM     OF11630   6.433   6.114  10.519  0.0710 -0.4287 -0.3303
  112OSM    C2F11631   6.193   6.049  10.530  0.2625  0.1626  0.1268
  112OSM    H2F11632   6.186   6.104  10.626  1.4934 -0.8197  0.8145
  112OSM    H2G11633   6.136   5.954  10.541 -2.0818  0.8412 -4.1427
  112OSM    C3F11634   6.141   6.137  10.410  0.7952  0.1505 -0.9659
  112OSM    H3F11635   6.190   6.235  10.426 -1.0902  1.1622 -1.1435
  112OSM    H3G11636   6.033   6.160  10.422  0.5237 -0.0770 -2.7129
  112OSM    C4F11637   6.162   6.072  10.280 -0.1407  0.0502  0.0618
  112OSM    H4F11638   6.271   6.064  10.264  0.0945 -1.1647  2.0045
  112OSM    H4G11639   6.128   6.145  10.203 -0.6815 -0.3761 -0.1164
  112OSM    C5F11640   6.097   5.934  10.275 -0.4164 -0.3723  0.3808
  112OSM    H5F11641   5.998   5.960  10.318 -1.0059  0.0175 -1.1504
  112OSM    H5G11642   6.139   5.859  10.345 -1.4717 -0.3417  1.0675
  112OSM    C6F11643   6.075   5.879  10.128 -0.0187  0.2953  0.2496
  112OSM    H6F11644   6.029   5.778  10.140  1.2869 -0.5101 -1.1688
  112OSM    H6G11645   6.178   5.877  10.086  0.4435  0.6397  1.3437
  112OSM    C7F11646   5.977   5.955  10.038  1.1530 -0.2133  0.8332
  112OSM    H7F11647   6.003   6.060  10.013  0.4757  0.0704  1.2820
  112OSM    H7G11648   5.875   5.961  10.082  1.0902  1.7617  0.4864
  112OSM    C8F11649   5.950   5.886   9.904 -0.0622  0.0738 -0.0547
  112OSM    H8F11650   5.891   5.961   9.848 -1.3595  0.9812  2.3546
  112OSM    H8G11651   5.885   5.797   9.907  0.5186 -0.3416  0.6222
  112OSM    C9F11652   6.079   5.847   9.835 -0.3535  0.1963 -0.0758
  112OSM    H9F11653   6.128   5.764   9.887 -1.4711 -0.1525  0.4514
  112OSM   C10F11654   6.120   5.888   9.715  0.1777  0.4277  0.3009
  112OSM   H10F11655   6.214   5.851   9.670 -0.9519 -0.6722 -1.2553
  112OSM   C11F11656   6.062   6.008   9.636  0.3965  0.2207  0.1391
  112OSM   H11F11657   6.097   6.107   9.671 -0.4911  1.2433 -1.7640
  112OSM   H11G11658   5.951   6.009   9.638  0.3300 -0.8613 -1.3880
  112OSM   C12F11659   6.099   6.010   9.486  0.2653 -0.1827  0.1556
  112OSM   H12F11660   6.203   5.972   9.474 -0.7229 -2.4676 -2.0996
  112OSM   H12G11661   6.104   6.114   9.446 -1.7195  0.0449  0.4363
  112OSM   C13F11662   6.011   5.925   9.402 -0.3051  0.2740  0.5568
  112OSM   H13F11663   5.915   5.975   9.376 -0.3714  0.5908  1.3973
  112OSM   H13G11664   5.976   5.839   9.465 -0.7027  0.8005  1.0691
  112OSM   C14F11665   6.082   5.868   9.278  0.3446 -0.1779  0.3088
  112OSM   H14F11666   6.024   5.782   9.236  0.4577  0.0523 -0.3256
  112OSM   H14G11667   6.175   5.814   9.304 -0.3092 -1.4947  0.0491
  112OSM   C15F11668   6.103   5.954   9.155 -0.2508  0.1647 -0.4420
  112OSM   H15F11669   6.189   6.016   9.187  1.1028 -0.7419 -2.1229
  112OSM   H15G11670   6.013   6.018   9.148 -0.9999 -0.6180  1.5432
  112OSM   C16F11671   6.156   5.887   9.025  0.6991 -0.2973 -0.3567
  112OSM   H16F11672   6.187   5.968   8.956 -0.9167  0.5725 -0.0976
  112OSM   H16G11673   6.083   5.822   8.972 -1.4733  2.2659 -0.6796
  112OSM   C17F11674   6.278   5.793   9.049 -0.8154  0.0111  0.0264
  112OSM   H17F11675   6.244   5.693   9.082 -0.0432  0.3801  2.1086
  112OSM   H17G11676   6.341   5.832   9.132  0.1512  0.1148 -0.7432
  112OSM   C18F11677   6.378   5.779   8.932 -0.4228 -0.2831 -0.2485
  112OSM   H18F11678   6.337   5.722   8.845  2.0239 -2.2515 -0.2320
  112OSM   H18G11679   6.480   5.739   8.948 -0.6614 -0.9650 -0.3643
  112OSM   H18H11680   6.396   5.879   8.888 -0.8707 -1.0882 -2.3710
  113OSM      N11681   1.988   4.943  11.197 -0.2451  0.0308  0.5398
  113OSM    C1511682   1.862   5.021  11.166 -0.1267  0.1740 -0.8267
  113OSM   H15A11683   1.847   5.045  11.061 -1.9294 -0.3488 -0.7169
  113OSM   H15B11684   1.865   5.111  11.225  1.7237 -0.3916  0.0134
  113OSM   H15C11685   1.772   4.971  11.200  0.4208  0.5305  1.2553
  113OSM    C1411686   2.104   5.039  11.204  0.4582  0.2500 -0.5171
  113OSM   H14A11687   2.109   5.095  11.111 -1.2638  0.6327 -0.4157
  113OSM   H14B11688   2.201   4.993  11.216  0.4786  0.9211  2.6794
  113OSM   H14C11689   2.091   5.110  11.284 -2.6841 -0.1409 -0.5510
  113OSM    C1311690   1.970   4.890  11.336 -0.0152  0.5817  0.7570
  113OSM   H13A11691   1.980   4.976  11.400  1.2650 -0.4712  2.0568
  113OSM   H13B11692   2.042   4.815  11.366 -1.1061 -1.5612 -1.6248
  113OSM   H13C11693   1.876   4.839  11.349  0.9448 -1.5228 -0.0076
  113OSM    C1211694   2.008   4.836  11.091  0.3019 -0.7025 -0.4034
  113OSM   H12A11695   1.945   4.749  11.105  0.0810 -0.7358 -1.5686
  113OSM   H12B11696   2.108   4.796  11.098 -0.0291 -1.4093  0.6657
  113OSM    C1111697   1.994   4.883  10.943  0.0654  0.3638 -0.0048
  113OSM   H11A11698   1.890   4.920  10.931  0.1513  0.6558  0.1438
  113OSM   H11B11699   2.005   4.786  10.889 -0.7481 -0.1189  0.6733
  113OSM      P11700   2.211   4.920  10.816  0.5744  0.1680  0.2321
  113OSM    O1311701   2.287   5.038  10.765 -0.2061  0.3521 -0.2351
  113OSM    O1411702   2.292   4.824  10.904  0.2972  0.0759  0.2915
  113OSM    O1111703   2.134   4.849  10.691 -0.0172 -0.0162 -0.2298
  113OSM    O1211704   2.096   4.980  10.906  0.4365 -0.1283 -0.7611
  113OSM    C1S11705   2.018   4.900  10.631  0.4595  0.2051  0.4423
  113OSM    H1S11706   1.985   4.996  10.677 -0.6938  0.1466 -0.2267
  113OSM    H1T11707   1.936   4.828  10.647 -0.9518  1.8052  0.7323
  113OSM     NF11708   1.920   4.988  10.419 -0.2780  0.2914 -0.4119
  113OSM    HNF11709   1.847   4.927  10.390  1.1144 -1.4149 -0.4865
  113OSM    C2S11710   2.040   4.919  10.478  0.5226 -0.3193 -0.0827
  113OSM    H2S11711   2.126   4.985  10.454  1.2819 -0.0285  3.0758
  113OSM    C3S11712   2.079   4.790  10.407 -0.0555  0.9193  0.3124
  113OSM    H3S11713   1.994   4.720  10.422  0.4486 -0.3388 -2.1075
  113OSM     O311714   2.185   4.721  10.468 -0.4826  0.4309 -0.5053
  113OSM    HO311715   2.209   4.776  10.542  2.0364 -0.1471 -0.8072
  113OSM    C4S11716   2.105   4.813  10.258  0.0479  0.2823  0.0506
  113OSM    H4S11717   2.162   4.906  10.250 -0.5680  0.4625 -4.5742
  113OSM    C5S11718   2.066   4.748  10.151 -0.0366 -0.2801 -0.2219
  113OSM    H5S11719   1.996   4.664  10.158 -1.7347  1.0777  0.0101
  113OSM    C6S11720   2.123   4.784  10.013  0.2402  0.0168  0.0717
  113OSM    H6S11721   2.215   4.847  10.009 -0.3743  0.8581 -1.3682
  113OSM    H6T11722   2.043   4.834   9.955 -0.8689 -0.3649  1.2379
  113OSM    C7S11723   2.174   4.654   9.945 -0.2038 -0.6482  0.1556
  113OSM    H7S11724   2.101   4.573   9.968  0.3513 -0.9773  0.7892
  113OSM    H7T11725   2.270   4.624   9.990 -0.0001  1.4419  1.2373
  113OSM    C8S11726   2.184   4.660   9.797 -0.3530  0.0937 -0.2864
  113OSM    H8S11727   2.255   4.742   9.774  1.8261 -1.6133  0.0248
  113OSM    H8T11728   2.092   4.690   9.742 -1.0066 -1.0625  0.1289
  113OSM    C9S11729   2.249   4.537   9.729 -0.5845  0.1488  0.2324
  113OSM    H9S11730   2.178   4.455   9.753  1.9750 -1.9048  1.1770
  113OSM    H9T11731   2.349   4.533   9.777 -1.1381 -1.5393  1.3241
  113OSM   C10S11732   2.263   4.557   9.580 -0.0245  0.0085  0.0984
  113OSM   H10S11733   2.303   4.660   9.574  0.6165 -0.2834 -0.8218
  113OSM   H10T11734   2.166   4.548   9.527 -0.7544 -2.2969  1.6571
  113OSM   C11S11735   2.368   4.455   9.525 -0.7484  0.3640 -0.3878
  113OSM   H11S11736   2.354   4.349   9.553 -1.0177  0.3873 -0.4353
  113OSM   H11T11737   2.467   4.483   9.568  0.0820  1.0207 -2.5937
  113OSM   C12S11738   2.384   4.466   9.379  0.6576  0.2227  0.2285
  113OSM   H12S11739   2.411   4.572   9.358  1.5595 -0.1282 -0.4669
  113OSM   H12T11740   2.290   4.451   9.321  1.7995  0.8046 -1.8513
  113OSM   C13S11741   2.493   4.376   9.334 -0.0700 -0.2059  0.1659
  113OSM   H13S11742   2.478   4.274   9.376  1.5658  0.0708  1.5726
  113OSM   H13T11743   2.584   4.421   9.379 -0.6417  0.6615  0.4946
  113OSM   C14S11744   2.508   4.360   9.184  0.1804 -0.4231  0.6880
  113OSM   H14S11745   2.407   4.375   9.142 -1.0987 -1.1355  3.3151
  113OSM   H14T11746   2.547   4.261   9.150  1.3902  0.5241 -0.8111
  113OSM   C15S11747   2.594   4.477   9.121  0.7620 -0.2845 -0.3122
  113OSM   H15S11748   2.560   4.577   9.157 -1.3267 -1.0614 -0.0178
  113OSM   H15T11749   2.590   4.476   9.010  3.1509  2.6440 -0.5611
  113OSM   C16S11750   2.743   4.480   9.159  0.8955  0.2190  0.0318
  113OSM   H16S11751   2.802   4.400   9.111 -0.2632  0.8021 -2.5641
  113OSM   H16T11752   2.752   4.474   9.270  0.2380 -0.0808  0.0778
  113OSM   C17S11753   2.811   4.610   9.117 -0.2293  0.0220  0.2554
  113OSM   H17S11754   2.762   4.675   9.193 -0.0496 -3.6071  3.8051
  113OSM   H17T11755   2.774   4.617   9.012 -3.7552 -3.4494  1.0223
  113OSM   C18S11756   2.961   4.601   9.137  0.2354  0.1796 -0.0518
  113OSM   H18S11757   2.989   4.508   9.083 -1.7532 -0.1128 -0.6614
  113OSM   H18T11758   2.986   4.599   9.245 -0.3828  2.6317  0.1833
  113OSM   H18U11759   3.019   4.676   9.080 -1.0008  0.4025 -1.0509
  113OSM    C1F11760   1.891   5.113  10.439  0.2154  0.1741 -0.2290
  113OSM     OF11761   1.955   5.182  10.517 -0.0312 -0.4274 -0.8118
  113OSM    C2F11762   1.749   5.158  10.391  0.2544  0.3868 -0.0259
  113OSM    H2F11763   1.687   5.149  10.483  0.9172 -0.6754  0.3353
  113OSM    H2G11764   1.718   5.083  10.316  0.1302  1.7315 -1.3552
  113OSM    C3F11765   1.752   5.296  10.325  0.0762 -0.6640 -0.1494
  113OSM    H3F11766   1.767   5.373  10.404 -0.1030  1.0245 -1.7018
  113OSM    H3G11767   1.659   5.312  10.266  1.3951 -1.1553 -2.4883
  113OSM    C4F11768   1.862   5.313  10.222 -0.0612  0.1028  0.3549
  113OSM    H4F11769   1.962   5.311  10.271 -0.4357 -2.9704  1.2362
  113OSM    H4G11770   1.843   5.415  10.184 -0.5601  0.4285  1.4233
  113OSM    C5F11771   1.858   5.204  10.114 -0.1768 -0.3203 -0.6153
  113OSM    H5F11772   1.752   5.186  10.087 -0.1830 -1.4544  0.1147
  113OSM    H5G11773   1.891   5.107  10.158  2.3854  1.5291  1.9305
  113OSM    C6F11774   1.939   5.236   9.986 -0.0014 -0.6989 -0.1224
  113OSM    H6F11775   2.038   5.268  10.024  1.0214 -2.8709 -0.8062
  113OSM    H6G11776   1.907   5.328   9.932  2.8690 -0.0930 -0.9292
  113OSM    C7F11777   1.967   5.109   9.905 -0.1309  0.0674 -0.0654
  113OSM    H7F11778   2.003   5.033   9.978 -3.0275 -1.0393  0.3790
  113OSM    H7G11779   2.052   5.126   9.836 -0.5120  0.0178 -0.5483
  113OSM    C8F11780   1.840   5.054   9.832  0.1159 -0.7596  0.1953
  113OSM    H8F11781   1.759   5.025   9.902 -0.5882  0.3256 -0.1551
  113OSM    H8G11782   1.870   4.957   9.785 -1.2515 -0.9200 -0.3705
  113OSM    C9F11783   1.772   5.156   9.732 -1.1162  0.0808  0.1242
  113OSM    H9F11784   1.720   5.238   9.784  0.4639  0.7257  0.7491
  113OSM   C10F11785   1.798   5.158   9.599  0.2867 -0.5825 -0.0609
  113OSM   H10F11786   1.758   5.241   9.540  0.5370  1.5831  2.6069
  113OSM   C11F11787   1.894   5.065   9.531 -0.7605  0.0205 -0.1006
  113OSM   H11F11788   1.851   4.965   9.511  0.4320 -0.7003  0.8145
  113OSM   H11G11789   1.983   5.046   9.594  0.6668 -0.7026 -2.2359
  113OSM   C12F11790   1.949   5.121   9.400 -0.4247  0.7990 -0.7882
  113OSM   H12F11791   2.018   5.044   9.360 -1.9022 -2.1876  1.9665
  113OSM   H12G11792   2.004   5.217   9.409  0.7082  0.1495 -0.6319
  113OSM   C13F11793   1.841   5.123   9.299  0.3733  0.5432 -0.0703
  113OSM   H13F11794   1.772   5.201   9.339  2.9118  1.9845  1.7645
  113OSM   H13G11795   1.800   5.021   9.284  1.1280  0.5491 -2.6239
  113OSM   C14F11796   1.888   5.174   9.163  0.1741 -0.6497 -0.1551
  113OSM   H14F11797   1.990   5.135   9.141  0.4118 -1.5029  2.1799
  113OSM   H14G11798   1.901   5.284   9.167 -1.1214 -0.3760 -2.0955
  113OSM   C15F11799   1.791   5.132   9.049  0.1419 -0.7946 -0.1644
  113OSM   H15F11800   1.692   5.170   9.080  0.0035 -0.5764 -0.8508
  113OSM   H15G11801   1.779   5.022   9.037  0.2663 -0.7651 -0.5906
  113OSM   C16F11802   1.805   5.194   8.908 -0.0419 -0.3939 -0.1665
  113OSM   H16F11803   1.887   5.157   8.842 -0.6328  0.8725 -1.6756
  113OSM   H16G11804   1.818   5.303   8.929 -0.7242 -0.4794  0.7471
  113OSM   C17F11805   1.675   5.189   8.822 -0.0675  0.3057  0.4277
  113OSM   H17F11806   1.617   5.098   8.851 -1.7234  1.8144  2.0961
  113OSM   H17G11807   1.686   5.181   8.712 -1.2969  1.9346  0.1514
  113OSM   C18F11808   1.572   5.304   8.844  0.1527  0.3229 -0.4082
  113OSM   H18F11809   1.615   5.406   8.853 -2.8709  1.7512 -0.6555
  113OSM   H18G11810   1.512   5.285   8.935  0.8838 -1.3531 -0.2546
  113OSM   H18H11811   1.493   5.304   8.765 -1.0772  2.6131  0.7112
  114OSM      N11812   2.555   3.156  11.583  0.0767  0.2493 -0.4392
  114OSM    C1511813   2.542   3.006  11.575  0.6873 -0.5800 -0.2126
  114OSM   H15A11814   2.607   2.961  11.502  2.6434  0.4357  0.8229
  114OSM   H15B11815   2.442   2.977  11.546  1.0913 -1.0262 -1.2112
  114OSM   H15C11816   2.561   2.962  11.671 -1.8659  0.8318  1.0479
  114OSM    C1411817   2.507   3.215  11.457  0.0198 -0.1614  0.1244
  114OSM   H14A11818   2.496   3.322  11.471  0.3178 -0.0161 -0.7435
  114OSM   H14B11819   2.404   3.189  11.435 -0.9203  3.1706  0.0456
  114OSM   H14C11820   2.575   3.192  11.377  2.6501  1.5627  1.7045
  114OSM    C1311821   2.469   3.188  11.699  0.2843  0.3144  0.6517
  114OSM   H13A11822   2.455   3.294  11.709  0.7118  0.5571 -0.9948
  114OSM   H13B11823   2.502   3.136  11.788 -0.4658  1.7314  1.7984
  114OSM   H13C11824   2.370   3.154  11.674  0.2459  1.2239 -0.5284
  114OSM    C1211825   2.695   3.209  11.612 -0.3928  0.1416  0.0825
  114OSM   H12A11826   2.721   3.178  11.712 -0.1350 -1.1534 -0.3709
  114OSM   H12B11827   2.681   3.316  11.613  0.5673  0.2788 -0.1909
  114OSM    C1111828   2.800   3.175  11.504 -0.6200 -0.2787 -0.3378
  114OSM   H11A11829   2.788   3.075  11.457  0.4439 -0.8823  0.6188
  114OSM   H11B11830   2.894   3.161  11.560 -0.9979  0.2883  0.4490
  114OSM      P11831   2.903   3.408  11.434  0.2134 -0.2128 -0.2842
  114OSM    O1311832   2.826   3.496  11.523 -0.0455 -0.0563  0.1198
  114OSM    O1411833   3.036   3.361  11.481  0.1531 -0.6092 -0.5753
  114OSM    O1111834   2.928   3.479  11.292  0.0587  0.0856 -0.2468
  114OSM    O1211835   2.812   3.285  11.412  0.0951  0.2533 -0.4305
  114OSM    C1S11836   2.870   3.428  11.176  0.0881  0.0137 -0.5575
  114OSM    H1S11837   2.762   3.453  11.179  0.2902  0.8058  0.6397
  114OSM    H1T11838   2.883   3.321  11.149 -0.0049  0.1951 -1.3647
  114OSM     NF11839   2.850   3.445  10.931 -0.1059  0.0003 -0.0453
  114OSM    HNF11840   2.898   3.377  10.876 -2.0075 -1.0537 -0.5200
  114OSM    C2S11841   2.921   3.500  11.044  0.6101 -0.4618 -0.7329
  114OSM    H2S11842   2.882   3.604  11.048 -1.2061 -1.0119 -2.1158
  114OSM    C3S11843   3.075   3.491  11.030  0.3858  0.4999 -0.4823
  114OSM    H3S11844   3.103   3.383  11.026  0.5231  0.5239 -0.2043
  114OSM     O311845   3.157   3.535  11.139 -0.7406 -0.2515 -0.0134
  114OSM    HO311846   3.097   3.522  11.213 -2.0317  1.0365 -0.7833
  114OSM    C4S11847   3.126   3.564  10.909 -0.5628  0.4685  0.9166
  114OSM    H4S11848   3.110   3.671  10.888  1.1662  0.6163  0.1885
  114OSM    C5S11849   3.199   3.504  10.805  0.3631  0.8243  0.3063
  114OSM    H5S11850   3.216   3.395  10.807 -0.5492  0.6793  0.6364
  114OSM    C6S11851   3.256   3.571  10.683 -0.7225  0.9083 -0.2790
  114OSM    H6S11852   3.271   3.680  10.702 -0.6009  0.8131  0.1814
  114OSM    H6T11853   3.183   3.556  10.601  0.7005 -1.0977 -1.2578
  114OSM    C7S11854   3.390   3.513  10.642  0.0948 -0.3859 -0.2316
  114OSM    H7S11855   3.380   3.412  10.597  0.9211 -0.0962 -1.0833
  114OSM    H7T11856   3.456   3.492  10.729 -1.3676 -1.2835  0.7126
  114OSM    C8S11857   3.471   3.581  10.529 -0.0614 -0.5746  0.5252
  114OSM    H8S11858   3.561   3.517  10.511  0.6758  0.9952 -1.9305
  114OSM    H8T11859   3.509   3.681  10.559 -0.8411 -0.0922 -0.0435
  114OSM    C9S11860   3.389   3.589  10.402 -0.5409  0.3262  0.6253
  114OSM    H9S11861   3.295   3.645  10.426 -1.2091 -1.3116  2.0954
  114OSM    H9T11862   3.338   3.492  10.383 -1.5252  0.8113  0.7164
  114OSM   C10S11863   3.455   3.653  10.281  0.2870  0.3578  0.2275
  114OSM   H10S11864   3.551   3.601  10.259  0.2506  0.5251 -0.3511
  114OSM   H10T11865   3.478   3.759  10.301 -1.9549  0.8856  0.2350
  114OSM   C11S11866   3.366   3.646  10.161 -0.0675 -0.5754  0.5432
  114OSM   H11S11867   3.292   3.729  10.158  0.7625  0.1685 -2.1800
  114OSM   H11T11868   3.316   3.547  10.154 -1.9128  0.0089  3.6029
  114OSM   C12S11869   3.455   3.690  10.035 -0.0213  0.3614 -0.5614
  114OSM   H12S11870   3.518   3.600  10.019  0.4448  0.3647  1.0619
  114OSM   H12T11871   3.512   3.768  10.090 -0.4016 -1.2562  2.3348
  114OSM   C13S11872   3.361   3.710   9.905 -0.6076 -0.3615 -0.0144
  114OSM   H13S11873   3.289   3.794   9.921  0.2492  0.2464  0.7452
  114OSM   H13T11874   3.306   3.614   9.903 -1.2565 -0.0610  1.4518
  114OSM   C14S11875   3.427   3.738   9.768 -0.7471 -0.6172 -0.1718
  114OSM   H14S11876   3.506   3.663   9.746  0.0352  0.3994 -0.9420
  114OSM   H14T11877   3.475   3.837   9.782 -0.7484 -0.4627 -1.2389
  114OSM   C15S11878   3.333   3.744   9.649 -0.0508  0.0417  0.1740
  114OSM   H15S11879   3.235   3.792   9.670 -1.0293 -1.8303  0.1702
  114OSM   H15T11880   3.291   3.644   9.625  0.0674 -0.2438  1.1319
  114OSM   C16S11881   3.409   3.808   9.525 -1.1123 -0.5738  0.9312
  114OSM   H16S11882   3.513   3.776   9.502  0.2989  4.3523 -0.8334
  114OSM   H16T11883   3.441   3.904   9.571  0.5543 -0.5143 -0.2403
  114OSM   C17S11884   3.321   3.827   9.401 -0.2048 -0.7728 -0.5093
  114OSM   H17S11885   3.234   3.892   9.426  1.1914  1.0343 -0.0851
  114OSM   H17T11886   3.301   3.725   9.361  2.4529 -1.5410 -0.0708
  114OSM   C18S11887   3.388   3.911   9.291 -0.1681 -0.5062  0.3292
  114OSM   H18S11888   3.325   3.940   9.204  1.7314 -1.9758 -1.6166
  114OSM   H18T11889   3.473   3.851   9.253  0.4949  1.1390 -0.9118
  114OSM   H18U11890   3.408   4.008   9.342  1.6836 -1.3472  1.3010
  114OSM    C1F11891   2.717   3.455  10.926  0.2487  0.0172  0.4772
  114OSM     OF11892   2.655   3.554  10.955  0.2196 -0.0676  0.7971
  114OSM    C2F11893   2.653   3.339  10.852  0.3699 -0.4913 -0.4184
  114OSM    H2F11894   2.582   3.382  10.778 -0.5715 -3.1727 -1.2114
  114OSM    H2G11895   2.598   3.270  10.919 -0.4147  1.0472  0.5854
  114OSM    C3F11896   2.748   3.246  10.766 -0.1183  0.2766  0.1174
  114OSM    H3F11897   2.705   3.146  10.744 -1.5223  0.8657  0.0966
  114OSM    H3G11898   2.838   3.225  10.829  1.3987 -0.6534 -2.2089
  114OSM    C4F11899   2.798   3.317  10.631  0.6406  0.0979 -0.0326
  114OSM    H4F11900   2.792   3.427  10.639  0.8338  0.2695 -1.8330
  114OSM    H4G11901   2.714   3.290  10.562  0.7591  0.9539 -0.5197
  114OSM    C5F11902   2.939   3.266  10.594  0.4041 -0.4677  0.2524
  114OSM    H5F11903   2.949   3.156  10.606 -2.1585 -0.8922 -0.8406
  114OSM    H5G11904   3.014   3.319  10.656  1.0847  2.3738 -2.7180
  114OSM    C6F11905   2.962   3.312  10.448 -0.5106 -0.9259 -0.3324
  114OSM    H6F11906   2.973   3.422  10.447 -1.2506 -0.7857  1.7291
  114OSM    H6G11907   2.877   3.285  10.381  0.1463 -3.6916 -0.1795
  114OSM    C7F11908   3.084   3.249  10.382 -0.5062  0.3799 -0.0797
  114OSM    H7F11909   3.093   3.141  10.406 -0.7842  0.3458 -0.1312
  114OSM    H7G11910   3.169   3.312  10.416 -0.5360 -0.3341  1.4097
  114OSM    C8F11911   3.083   3.258  10.226 -0.0156 -0.0180  1.3445
  114OSM    H8F11912   3.008   3.192  10.178 -1.7624  2.3443  0.6626
  114OSM    H8G11913   3.190   3.237  10.205  0.2364  3.1208 -1.1432
  114OSM    C9F11914   3.055   3.396  10.170 -0.3047  0.5383 -1.2504
  114OSM    H9F11915   3.126   3.465  10.218  0.0010 -1.4935  1.4778
  114OSM   C10F11916   2.966   3.436  10.081 -0.3073  0.7048  0.1413
  114OSM   H10F11917   2.963   3.539  10.041  2.0679  1.6006  2.0145
  114OSM   C11F11918   2.877   3.341  10.010  1.1322  0.1976  0.0098
  114OSM   H11F11919   2.771   3.355  10.041  0.2603 -2.7393 -1.3253
  114OSM   H11G11920   2.885   3.234  10.035  3.3711  0.2491 -0.2759
  114OSM   C12F11921   2.891   3.348   9.859 -0.6253  0.1917 -0.6582
  114OSM   H12F11922   2.888   3.454   9.825 -0.2269 -0.0023 -1.3170
  114OSM   H12G11923   2.809   3.304   9.798 -2.5014  0.4806  1.5352
  114OSM   C13F11924   3.012   3.270   9.796 -0.8811  0.1632  0.2467
  114OSM   H13F11925   3.025   3.163   9.823  2.0146  0.4171  0.1992
  114OSM   H13G11926   3.111   3.313   9.822  1.2788 -2.5116 -2.7321
  114OSM   C14F11927   2.998   3.278   9.647 -0.9788 -0.1077  0.2854
  114OSM   H14F11928   2.940   3.370   9.621  0.3857  0.9333  0.7922
  114OSM   H14G11929   2.935   3.197   9.605  1.3528 -1.1445 -1.4567
  114OSM   C15F11930   3.143   3.272   9.581  0.6139  0.0439 -0.4622
  114OSM   H15F11931   3.200   3.191   9.631 -0.4119 -0.3882  0.0380
  114OSM   H15G11932   3.196   3.369   9.591  0.0222  0.3279 -0.0087
  114OSM   C16F11933   3.137   3.227   9.438  0.2037  0.9264 -0.9022
  114OSM   H16F11934   3.093   3.313   9.383 -1.5204  0.7861  0.1763
  114OSM   H16G11935   3.066   3.143   9.426  1.2977  0.1990 -2.6730
  114OSM   C17F11936   3.276   3.201   9.376 -0.2797  0.1590 -0.0661
  114OSM   H17F11937   3.265   3.156   9.275  0.1790 -0.4919  0.1642
  114OSM   H17G11938   3.341   3.130   9.432  0.0825 -0.9808 -1.8489
  114OSM   C18F11939   3.376   3.320   9.376  0.1788  0.2121 -0.4760
  114OSM   H18F11940   3.473   3.304   9.324  1.4757  1.5116  1.3885
  114OSM   H18G11941   3.400   3.353   9.480 -2.4704 -1.0993  0.6293
  114OSM   H18H11942   3.328   3.407   9.327 -1.1147 -1.1707 -1.7718
  115OSM      N11943   4.630   6.263   6.483 -0.0839  0.0635 -0.2924
  115OSM    C1511944   4.598   6.368   6.389 -0.2951 -0.4573 -0.0617
  115OSM   H15A11945   4.680   6.371   6.318  1.4328 -3.3918  1.6199
  115OSM   H15B11946   4.587   6.461   6.443 -0.5821  0.5965 -1.8526
  115OSM   H15C11947   4.502   6.366   6.340 -0.6391 -1.0939  0.6250
  115OSM    C1411948   4.750   6.292   6.568  0.1793 -0.2680  0.0105
  115OSM   H14A11949   4.752   6.386   6.621 -1.0429  0.5200 -1.2675
  115OSM   H14B11950   4.844   6.275   6.518  0.5077  0.7616  0.2549
  115OSM   H14C11951   4.744   6.227   6.654  0.6101  3.3847  3.0140
  115OSM    C1311952   4.516   6.242   6.582  0.8611 -0.1091 -0.0034
  115OSM   H13A11953   4.420   6.226   6.537  0.2353 -1.4036  1.6861
  115OSM   H13B11954   4.514   6.322   6.655  1.2891 -0.4330  0.3691
  115OSM   H13C11955   4.535   6.157   6.645 -2.6227 -1.1278 -0.1708
  115OSM    C1211956   4.641   6.130   6.403  0.9233  0.2063 -0.1166
  115OSM   H12A11957   4.542   6.096   6.376  0.8072 -0.3309  0.9609
  115OSM   H12B11958   4.675   6.051   6.468 -0.5156 -0.5672 -0.2803
  115OSM    C1111959   4.743   6.125   6.290 -0.7128  1.0235  0.0535
  115OSM   H11A11960   4.717   6.182   6.199  2.3568 -1.1696 -2.4393
  115OSM   H11B11961   4.737   6.025   6.241 -0.2131  0.8052  0.4226
  115OSM      P11962   5.009   6.080   6.296  0.1147  0.3165  0.0112
  115OSM    O1311963   4.971   5.941   6.260  0.4071 -0.3874 -0.3690
  115OSM    O1411964   5.077   6.160   6.195 -0.3177 -0.4681  0.6516
  115OSM    O1111965   5.086   6.081   6.439 -0.3517  0.4184 -0.2848
  115OSM    O1211966   4.873   6.165   6.337 -0.2785  0.4558  0.4539
  115OSM    C1S11967   5.127   6.210   6.488 -0.3419  0.3124  0.4176
  115OSM    H1S11968   5.049   6.287   6.475 -0.5842  0.1491  0.9226
  115OSM    H1T11969   5.221   6.238   6.434 -0.8635  2.6568  0.6409
  115OSM     NF11970   5.224   6.346   6.674 -0.0914  0.4758 -0.1120
  115OSM    HNF11971   5.308   6.387   6.642 -0.1411  1.4087  0.9092
  115OSM    C2S11972   5.194   6.209   6.632  0.3908  0.3624  0.0476
  115OSM    H2S11973   5.116   6.171   6.702  1.6099 -1.3910  0.5461
  115OSM    C3S11974   5.316   6.108   6.627  1.2874  1.0874 -0.1897
  115OSM    H3S11975   5.392   6.125   6.548  0.2309  1.4187 -1.1683
  115OSM     O311976   5.269   5.974   6.596  0.4522 -0.5878 -0.6152
  115OSM    HO311977   5.189   5.994   6.546  1.5165 -1.8920 -2.9976
  115OSM    C4S11978   5.389   6.111   6.762  0.1405 -0.3682 -0.6964
  115OSM    H4S11979   5.477   6.178   6.763 -0.9584  1.1194  0.2442
  115OSM    C5S11980   5.361   6.034   6.867 -1.0760  0.6379 -0.8440
  115OSM    H5S11981   5.282   5.957   6.864 -3.4652  2.9350 -1.1855
  115OSM    C6S11982   5.424   6.043   7.000  0.2946  0.3209  0.3216
  115OSM    H6S11983   5.356   6.044   7.089  1.3890  1.4291  1.1778
  115OSM    H6T11984   5.495   6.127   7.006 -0.7875  1.1764  2.8981
  115OSM    C7S11985   5.509   5.917   7.033  0.4221  0.3709 -0.3222
  115OSM    H7S11986   5.569   5.887   6.944 -1.3353  0.2071 -1.5163
  115OSM    H7T11987   5.431   5.840   7.052  0.6950  0.1180 -0.2305
  115OSM    C8S11988   5.599   5.930   7.162  0.7849 -0.4724 -0.2327
  115OSM    H8S11989   5.529   5.942   7.247  0.2673  2.2570 -0.9513
  115OSM    H8T11990   5.653   6.027   7.156 -0.8993  0.4661 -0.9004
  115OSM    C9S11991   5.692   5.816   7.183  0.6909  0.4812 -0.0771
  115OSM    H9S11992   5.755   5.790   7.096 -1.7641 -0.3694 -1.6905
  115OSM    H9T11993   5.639   5.721   7.205 -0.7826  0.9894 -1.2857
  115OSM   C10S11994   5.783   5.854   7.297 -0.5731 -0.1142 -0.2499
  115OSM   H10S11995   5.819   5.958   7.283 -0.3258 -0.1025  0.4761
  115OSM   H10T11996   5.878   5.798   7.283 -0.8397 -0.2284 -1.7788
  115OSM   C11S11997   5.731   5.822   7.444  0.5610  0.8368  0.2388
  115OSM   H11S11998   5.681   5.724   7.458  1.0530  0.7944  1.9160
  115OSM   H11T11999   5.651   5.897   7.460 -0.1619 -0.0075  0.6385
  115OSM   C12S12000   5.850   5.825   7.544  0.5447  0.8180 -0.3793
  115OSM   H12S12001   5.892   5.927   7.530 -2.2035  1.9045 -1.2732
  115OSM   H12T12002   5.931   5.752   7.520 -0.1022 -0.0883  0.1126
  115OSM   C13S12003   5.804   5.803   7.694  0.1680  0.0480  0.5465
  115OSM   H13S12004   5.743   5.711   7.701 -1.0132  0.8668  1.2871
  115OSM   H13T12005   5.746   5.890   7.730  0.2313 -0.5769  2.2479
  115OSM   C14S12006   5.927   5.800   7.785  0.1096  0.0312  0.4743
  115OSM   H14S12007   5.987   5.892   7.769 -0.3471  0.3688  0.6506
  115OSM   H14T12008   5.989   5.713   7.754 -1.1816  0.1984 -3.1410
  115OSM   C15S12009   5.880   5.785   7.930  0.4510 -0.3293 -0.1208
  115OSM   H15S12010   5.967   5.751   7.989  0.9948 -0.8582 -1.1924
  115OSM   H15T12011   5.812   5.698   7.941 -0.4311  0.2840 -0.6082
  115OSM   C16S12012   5.822   5.908   7.994  0.7276 -1.3181  0.3225
  115OSM   H16S12013   5.718   5.928   7.959  1.2576 -2.3109 -2.0164
  115OSM   H16T12014   5.886   5.997   7.972  0.7347 -1.6234 -1.0090
  115OSM   C17S12015   5.812   5.890   8.149 -0.2464 -0.2902 -0.5828
  115OSM   H17S12016   5.907   5.846   8.186 -0.7656 -0.2494  0.8384
  115OSM   H17T12017   5.729   5.816   8.157  0.0079 -0.9672 -3.0872
  115OSM   C18S12018   5.784   6.023   8.231  0.5571  0.3466  0.0769
  115OSM   H18S12019   5.863   6.099   8.212 -1.0243  2.3687  1.0783
  115OSM   H18T12020   5.785   6.020   8.342 -0.0536 -1.5333  0.0673
  115OSM   H18U12021   5.680   6.052   8.200  0.2653 -1.6291 -0.9356
  115OSM    C1F12022   5.133   6.442   6.712  0.1623 -0.1847  0.1385
  115OSM     OF12023   5.016   6.415   6.723  0.2466 -0.1339 -0.2664
  115OSM    C2F12024   5.188   6.573   6.735  0.4958  0.2186  0.4969
  115OSM    H2F12025   5.108   6.646   6.711  1.0949  1.2053  1.3984
  115OSM    H2G12026   5.283   6.588   6.678  0.4645 -0.2385  0.3211
  115OSM    C3F12027   5.226   6.580   6.880 -0.5347  0.6647  0.2493
  115OSM    H3F12028   5.270   6.682   6.889 -0.9768  0.8544  0.2835
  115OSM    H3G12029   5.298   6.504   6.916  0.2465  1.0750 -0.4140
  115OSM    C4F12030   5.114   6.573   6.985  0.1536  0.1845 -0.1036
  115OSM    H4F12031   5.055   6.480   6.977  0.0746  0.2993 -0.9495
  115OSM    H4G12032   5.043   6.655   6.957 -0.5546 -0.1390  0.6719
  115OSM    C5F12033   5.173   6.590   7.130  0.1690 -0.2520 -0.1268
  115OSM    H5F12034   5.251   6.667   7.118  1.2238 -1.0881  1.0633
  115OSM    H5G12035   5.222   6.495   7.159 -1.5853 -1.1005  0.2348
  115OSM    C6F12036   5.068   6.627   7.239  0.6842  0.6365 -0.4915
  115OSM    H6F12037   5.016   6.724   7.226  1.5108  1.2714  0.7671
  115OSM    H6G12038   5.123   6.637   7.335 -1.6729  0.5592  0.9495
  115OSM    C7F12039   4.951   6.528   7.237 -0.6759 -0.1049  0.6203
  115OSM    H7F12040   4.997   6.428   7.254 -0.7606  0.0043  1.5303
  115OSM    H7G12041   4.899   6.526   7.139  0.4835  0.8916 -0.0382
  115OSM    C8F12042   4.846   6.545   7.343  0.1745  0.7807 -0.1248
  115OSM    H8F12043   4.793   6.642   7.333  2.1851  1.7687 -1.8997
  115OSM    H8G12044   4.898   6.548   7.442  2.7627  0.9419 -1.3923
  115OSM    C9F12045   4.748   6.426   7.344  0.4829  0.3255 -0.5747
  115OSM    H9F12046   4.689   6.418   7.252 -1.4076 -0.1641  0.6218
  115OSM   C10F12047   4.719   6.338   7.450 -0.2590 -0.4028 -0.5850
  115OSM   H10F12048   4.658   6.247   7.439 -0.4093 -0.3433 -0.2548
  115OSM   C11F12049   4.785   6.339   7.589  0.8620 -0.7927  0.0428
  115OSM   H11F12050   4.712   6.354   7.671 -1.1442 -1.9261 -1.4247
  115OSM   H11G12051   4.863   6.417   7.596  0.5397 -0.4203 -0.3987
  115OSM   C12F12052   4.854   6.206   7.620 -0.1840  0.2563  0.1676
  115OSM   H12F12053   4.934   6.181   7.547 -1.3227 -3.1316 -0.0805
  115OSM   H12G12054   4.779   6.124   7.613 -1.4019  1.4335 -1.2250
  115OSM   C13F12055   4.904   6.192   7.763  0.1638 -1.0916  0.2585
  115OSM   H13F12056   4.951   6.287   7.796 -1.2695 -0.5659  0.8444
  115OSM   H13G12057   4.970   6.104   7.777 -2.5044 -2.7457  3.9131
  115OSM   C14F12058   4.795   6.175   7.871  0.0381  0.3567  0.0519
  115OSM   H14F12059   4.720   6.102   7.832  0.9579 -1.0283  0.7640
  115OSM   H14G12060   4.730   6.263   7.886  1.3457  1.1244  1.3697
  115OSM   C15F12061   4.862   6.122   7.999  0.1370 -0.0950 -0.1526
  115OSM   H15F12062   4.930   6.201   8.036  1.4394 -0.9135 -0.7404
  115OSM   H15G12063   4.945   6.050   7.982  0.2895  0.2337 -0.8146
  115OSM   C16F12064   4.762   6.079   8.105 -0.2263  0.7719 -0.2612
  115OSM   H16F12065   4.686   6.018   8.051  1.5888  0.8854 -3.1650
  115OSM   H16G12066   4.710   6.174   8.127  3.3437  3.4512 -2.4138
  115OSM   C17F12067   4.814   6.019   8.234  0.4466  1.1380  0.2653
  115OSM   H17F12068   4.897   5.947   8.214 -0.3569  0.0850  0.5765
  115OSM   H17G12069   4.743   5.948   8.282  0.6951  0.4599 -0.3516
  115OSM   C18F12070   4.856   6.126   8.335  0.1648 -0.3945 -0.4960
  115OSM   H18F12071   4.923   6.086   8.414 -0.7510  0.4487  0.7418
  115OSM   H18G12072   4.767   6.160   8.392  1.2812 -2.3518  2.6946
  115OSM   H18H12073   4.900   6.212   8.281 -1.5330 -0.9839 -3.0087
  116OSM      N12074   5.048   4.675   6.293 -0.4173 -0.3091  0.1515
  116OSM    C1512075   5.100   4.806   6.237  0.0576 -0.1567 -0.4201
  116OSM   H15A12076   5.027   4.883   6.215 -0.3513 -0.1697  0.8289
  116OSM   H15B12077   5.152   4.798   6.142 -0.2902 -1.3781 -0.5306
  116OSM   H15C12078   5.167   4.854   6.307 -0.2760 -0.2917 -0.0079
  116OSM    C1412079   4.950   4.624   6.192  0.3582  0.0929  0.0434
  116OSM   H14A12080   4.987   4.617   6.091 -1.1881  2.9343 -0.8340
  116OSM   H14B12081   4.871   4.697   6.180  0.9265  0.9722  1.3469
  116OSM   H14C12082   4.906   4.528   6.214 -1.1895  1.2204  2.2180
  116OSM    C1312083   5.152   4.569   6.292 -0.4871 -0.0461 -0.0399
  116OSM   H13A12084   5.208   4.561   6.201 -0.9065 -0.7198 -0.2409
  116OSM   H13B12085   5.105   4.473   6.300  0.2825 -0.5716 -1.5064
  116OSM   H13C12086   5.222   4.583   6.374  0.0704  1.7755 -0.7748
  116OSM    C1212087   4.984   4.694   6.428 -0.3128  0.0643 -0.0175
  116OSM   H12A12088   4.895   4.754   6.416 -1.6813 -2.0765 -1.4109
  116OSM   H12B12089   5.057   4.742   6.490 -0.4428 -2.6004  2.4410
  116OSM    C1112090   4.944   4.572   6.511 -0.1551 -0.1405  0.4478
  116OSM   H11A12091   4.903   4.603   6.610  2.0389 -1.0072  1.6871
  116OSM   H11B12092   5.034   4.512   6.535  1.0405  1.0395 -0.9369
  116OSM      P12093   4.697   4.524   6.444  0.0261 -0.2074  0.2738
  116OSM    O1312094   4.657   4.669   6.427 -0.1672 -0.0241  0.2048
  116OSM    O1412095   4.624   4.418   6.378  0.4550 -0.4101 -0.0473
  116OSM    O1112096   4.677   4.506   6.598  0.2478  0.1623  0.0100
  116OSM    O1212097   4.851   4.490   6.438  0.1647  0.4262 -0.1098
  116OSM    C1S12098   4.695   4.378   6.656 -0.4308 -0.2652  0.5606
  116OSM    H1S12099   4.770   4.316   6.602  1.0329  1.6369  0.2668
  116OSM    H1T12100   4.602   4.320   6.672 -0.6259  0.2176  1.2430
  116OSM     NF12101   4.797   4.269   6.862  0.1848 -0.1496  0.1852
  116OSM    HNF12102   4.736   4.233   6.933 -1.2235  1.0374 -0.3647
  116OSM    C2S12103   4.750   4.393   6.803  0.0602  0.3082 -0.0995
  116OSM    H2S12104   4.845   4.451   6.797  0.6597 -0.7882 -2.0555
  116OSM    C3S12105   4.635   4.471   6.884 -0.0850  0.5415  0.2233
  116OSM    H3S12106   4.552   4.397   6.888  0.7612 -0.4133  0.7492
  116OSM     O312107   4.585   4.591   6.826  0.1837 -0.0266 -0.2108
  116OSM    HO312108   4.609   4.574   6.735  2.3281 -0.0525  0.3023
  116OSM    C4S12109   4.671   4.495   7.032  0.0125 -0.4142 -0.0608
  116OSM    H4S12110   4.624   4.418   7.096 -2.7290 -0.8699 -2.4042
  116OSM    C5S12111   4.740   4.594   7.093  0.2373 -0.5098 -0.0164
  116OSM    H5S12112   4.774   4.675   7.027  0.4189 -1.7165 -1.4525
  116OSM    C6S12113   4.770   4.606   7.241  0.0761  0.0191  0.1999
  116OSM    H6S12114   4.725   4.691   7.297  1.5509  0.9124  0.0741
  116OSM    H6T12115   4.880   4.609   7.254  0.6111 -2.7557 -2.5020
  116OSM    C7S12116   4.720   4.481   7.322 -0.1797 -0.3636 -0.2312
  116OSM    H7S12117   4.774   4.495   7.418 -1.1872  1.7337  0.0982
  116OSM    H7T12118   4.738   4.376   7.294 -0.4156 -1.0094  1.8548
  116OSM    C8S12119   4.567   4.478   7.363  0.3170 -0.2162  0.2944
  116OSM    H8S12120   4.520   4.399   7.301  1.0700  0.2181 -0.8762
  116OSM    H8T12121   4.514   4.572   7.337 -1.1557 -1.0322  0.2218
  116OSM    C9S12122   4.532   4.447   7.508 -0.1977  0.5292 -0.4489
  116OSM    H9S12123   4.423   4.461   7.529  0.0874 -0.8415  2.4380
  116OSM    H9T12124   4.583   4.524   7.569  1.7976 -1.2408  0.2556
  116OSM   C10S12125   4.584   4.308   7.540 -0.7768 -0.2692  0.1539
  116OSM   H10S12126   4.694   4.312   7.555 -0.6176 -2.4076 -0.1066
  116OSM   H10T12127   4.564   4.232   7.461 -1.6708 -1.4133  1.4142
  116OSM   C11S12128   4.538   4.250   7.672 -0.0934 -0.6406  0.0669
  116OSM   H11S12129   4.593   4.320   7.739 -1.6229  3.2267 -2.3953
  116OSM   H11T12130   4.582   4.149   7.681 -1.5602 -1.3653 -0.6058
  116OSM   C12S12131   4.389   4.259   7.711 -0.1373  0.2066  0.1247
  116OSM   H12S12132   4.333   4.210   7.628 -1.7194  1.4764  0.4012
  116OSM   H12T12133   4.360   4.365   7.727  2.0371  0.7563  0.7225
  116OSM   C13S12134   4.365   4.192   7.846 -0.8693  0.4461  0.0920
  116OSM   H13S12135   4.420   4.245   7.926 -1.3342 -2.5655  2.6147
  116OSM   H13T12136   4.409   4.090   7.842  1.9541  1.5887 -1.1680
  116OSM   C14S12137   4.213   4.193   7.888 -0.4555 -0.0569 -0.5207
  116OSM   H14S12138   4.163   4.104   7.843 -0.7910  1.0762 -2.5116
  116OSM   H14T12139   4.172   4.285   7.842 -0.6379  0.7532  1.1974
  116OSM   C15S12140   4.199   4.201   8.039  0.0720 -0.7050 -0.4282
  116OSM   H15S12141   4.093   4.223   8.066  1.0785  0.4862  3.0148
  116OSM   H15T12142   4.251   4.292   8.075  0.3494 -2.1814  3.4192
  116OSM   C16S12143   4.247   4.083   8.115 -0.6958  0.0546 -0.5304
  116OSM   H16S12144   4.349   4.049   8.087 -0.2606 -0.4025  1.4402
  116OSM   H16T12145   4.202   3.981   8.119 -1.6727  0.5136  1.6836
  116OSM   C17S12146   4.253   4.115   8.262  0.3700 -0.1510 -0.8443
  116OSM   H17S12147   4.148   4.141   8.288  0.2246 -1.2382 -0.2866
  116OSM   H17T12148   4.308   4.210   8.278 -0.0056  0.0486 -0.7170
  116OSM   C18S12149   4.318   4.012   8.353 -0.0517  0.2306  0.6163
  116OSM   H18S12150   4.408   3.969   8.304 -1.2649 -0.7839 -0.8150
  116OSM   H18T12151   4.254   3.922   8.357  0.0216  0.2028  3.0987
  116OSM   H18U12152   4.345   4.058   8.451  0.7995  2.2156 -0.4950
  116OSM    C1F12153   4.898   4.195   6.815  0.3018 -0.2032 -0.7446
  116OSM     OF12154   4.948   4.226   6.710 -0.2284 -0.0762  0.6427
  116OSM    C2F12155   4.945   4.074   6.898  0.5840  0.1559  0.0830
  116OSM    H2F12156   4.869   3.998   6.869 -0.7991  2.0634 -1.6432
  116OSM    H2G12157   4.926   4.095   7.005  0.3356 -1.9424  0.4907
  116OSM    C3F12158   5.090   4.021   6.864  1.1087 -0.4826 -0.2115
  116OSM    H3F12159   5.154   4.107   6.891 -0.2281  0.2441  0.7845
  116OSM    H3G12160   5.088   4.001   6.755  0.9990 -0.9316 -0.1281
  116OSM    C4F12161   5.151   3.902   6.938  0.1593 -0.0122 -0.0022
  116OSM    H4F12162   5.170   3.929   7.044  0.3817 -1.5068  0.3643
  116OSM    H4G12163   5.252   3.892   6.892 -0.0774  3.1628 -1.4604
  116OSM    C5F12164   5.068   3.776   6.938 -0.2245 -0.3210 -1.0412
  116OSM    H5F12165   5.117   3.707   6.866  2.6647  0.2439  0.2448
  116OSM    H5G12166   4.967   3.805   6.901  0.2461  0.7034 -1.5540
  116OSM    C6F12167   5.051   3.709   7.074 -0.5371 -0.7325 -0.5204
  116OSM    H6F12168   4.995   3.781   7.136 -0.2298  0.1768 -1.2848
  116OSM    H6G12169   5.148   3.695   7.126 -1.5408 -1.2098  1.3037
  116OSM    C7F12170   4.976   3.570   7.066  1.2500 -0.0892 -0.0798
  116OSM    H7F12171   5.032   3.503   6.997  0.5528  1.2014 -1.9884
  116OSM    H7G12172   4.890   3.598   7.000 -0.6956 -0.6487  2.1005
  116OSM    C8F12173   4.933   3.507   7.195 -0.5913 -0.2432  0.0288
  116OSM    H8F12174   4.880   3.415   7.159 -1.6726  0.3689 -0.0011
  116OSM    H8G12175   4.863   3.579   7.242 -0.1957  0.1778 -0.0199
  116OSM    C9F12176   5.048   3.471   7.284  0.3894  1.0109  0.1042
  116OSM    H9F12177   5.114   3.397   7.237  1.7557  2.0134  0.4026
  116OSM   C10F12178   5.061   3.522   7.408 -0.7427 -0.4706  0.2547
  116OSM   H10F12179   5.147   3.493   7.470 -0.9762  1.4163  1.5327
  116OSM   C11F12180   4.992   3.626   7.483  0.8330 -0.3959  0.1353
  116OSM   H11F12181   4.908   3.671   7.428 -1.7775 -4.0038  0.7664
  116OSM   H11G12182   5.053   3.712   7.518 -0.1469  0.6160 -0.5880
  116OSM   C12F12183   4.919   3.563   7.607 -0.4795 -0.3141  0.3910
  116OSM   H12F12184   4.841   3.494   7.569  1.0790 -1.5188 -0.7387
  116OSM   H12G12185   4.878   3.654   7.656  0.0234  1.5592 -2.3804
  116OSM   C13F12186   5.017   3.513   7.712 -0.0787  0.3109  0.0503
  116OSM   H13F12187   5.083   3.599   7.738 -0.5053  0.3669  1.0127
  116OSM   H13G12188   5.083   3.436   7.667  2.9311  2.6149  0.1962
  116OSM   C14F12189   4.945   3.454   7.837  0.8350 -1.1210 -0.8777
  116OSM   H14F12190   4.866   3.382   7.808  0.2731 -0.4985 -0.9273
  116OSM   H14G12191   4.895   3.534   7.896  0.8492 -1.2894 -0.6379
  116OSM   C15F12192   5.039   3.392   7.939  0.6888  0.3484  0.5892
  116OSM   H15F12193   5.121   3.462   7.966  2.7895 -1.9040  0.4402
  116OSM   H15G12194   5.097   3.307   7.899 -0.7023 -0.3419 -0.0179
  116OSM   C16F12195   4.969   3.356   8.070 -0.0920 -0.2897  0.3434
  116OSM   H16F12196   4.894   3.434   8.096 -2.4840 -2.4505  0.4115
  116OSM   H16G12197   5.039   3.345   8.155 -2.0233  0.5319  2.1410
  116OSM   C17F12198   4.878   3.231   8.071 -0.0065  0.7917  0.5368
  116OSM   H17F12199   4.948   3.146   8.058 -0.3161  0.8542 -1.9464
  116OSM   H17G12200   4.819   3.227   7.977 -0.0889 -2.0295  0.6142
  116OSM   C18F12201   4.790   3.226   8.191 -0.1136 -0.2592 -0.7757
  116OSM   H18F12202   4.741   3.128   8.211 -2.4002  0.9630 -0.1302
  116OSM   H18G12203   4.725   3.316   8.192  0.6031  0.3099 -2.1702
  116OSM   H18H12204   4.863   3.235   8.274  0.1596 -0.5729 -0.9755
  117OSM      N12205   4.197   6.264   5.962  0.4656  0.2178 -0.0375
  117OSM    C1512206   4.240   6.128   5.958 -0.9615  0.5623 -0.2008
  117OSM   H15A12207   4.224   6.084   5.860  1.7190 -0.3808 -0.3219
  117OSM   H15B12208   4.185   6.061   6.022 -0.7490  0.7282  0.1530
  117OSM   H15C12209   4.345   6.120   5.981 -0.9997  2.8678  1.0106
  117OSM    C1412210   4.287   6.363   5.893 -0.2145  0.1069  0.5561
  117OSM   H14A12211   4.253   6.465   5.901 -3.0399 -0.6580 -0.3459
  117OSM   H14B12212   4.301   6.330   5.791  1.0113  0.3453  0.6321
  117OSM   H14C12213   4.382   6.362   5.945  0.7863  0.1508 -1.2020
  117OSM    C1312214   4.053   6.266   5.905 -0.1747 -0.0998 -0.3904
  117OSM   H13A12215   4.041   6.237   5.801 -0.0590  0.6516 -0.6186
  117OSM   H13B12216   4.024   6.370   5.909  2.0585  0.6024 -0.7874
  117OSM   H13C12217   3.985   6.209   5.966 -0.1298 -1.5828 -1.6630
  117OSM    C1212218   4.185   6.316   6.103 -0.3812 -0.0397 -0.2423
  117OSM   H12A12219   4.139   6.238   6.163  0.7408 -1.3829 -1.0520
  117OSM   H12B12220   4.132   6.410   6.110 -0.3447 -0.0688  0.5850
  117OSM    C1112221   4.322   6.346   6.179  0.0556  0.1654 -0.0353
  117OSM   H11A12222   4.381   6.418   6.119  2.0235 -1.9062 -0.7149
  117OSM   H11B12223   4.373   6.247   6.175 -0.4993 -0.0794 -1.6617
  117OSM      P12224   4.267   6.556   6.311  0.0722 -0.0378 -0.5007
  117OSM    O1312225   4.397   6.622   6.291 -0.9298 -0.2215 -0.0622
  117OSM    O1412226   4.156   6.592   6.213 -0.5262 -0.8116 -0.1059
  117OSM    O1112227   4.213   6.576   6.455 -0.1214  0.5003 -0.6476
  117OSM    O1212228   4.286   6.396   6.310  0.2576  0.4736 -0.0813
  117OSM    C1S12229   4.206   6.468   6.549  0.3981  0.1531  0.0569
  117OSM    H1S12230   4.301   6.410   6.550 -1.2112 -2.6379  0.2222
  117OSM    H1T12231   4.137   6.386   6.521 -0.0376  0.5122  0.0588
  117OSM     NF12232   4.199   6.419   6.791 -0.8286 -0.3409  0.1576
  117OSM    HNF12233   4.126   6.370   6.838 -0.6356 -0.6620  0.1216
  117OSM    C2S12234   4.176   6.524   6.695 -0.1075 -0.0517 -0.2707
  117OSM    H2S12235   4.244   6.611   6.710  0.6610 -0.2299 -2.3536
  117OSM    C3S12236   4.031   6.578   6.695 -0.0149 -0.3418 -0.2099
  117OSM    H3S12237   3.966   6.490   6.678 -0.0137 -0.1790 -1.0954
  117OSM     O312238   3.999   6.675   6.593  0.0742  0.1928 -0.3995
  117OSM    HO312239   4.072   6.676   6.532 -0.3518  1.4344 -0.9125
  117OSM    C4S12240   4.003   6.632   6.834  0.5605 -0.0441 -0.2641
  117OSM    H4S12241   4.008   6.552   6.910 -1.7545 -0.1760 -0.1686
  117OSM    C5S12242   3.971   6.754   6.881 -0.0750 -0.2447  0.0355
  117OSM    H5S12243   3.952   6.841   6.816 -0.7873  2.2284  3.2977
  117OSM    C6S12244   3.943   6.775   7.025 -0.1854 -0.7309 -0.8373
  117OSM    H6S12245   3.833   6.782   7.041  0.1292 -2.5935  3.4751
  117OSM    H6T12246   3.987   6.872   7.057  0.5708 -0.6773 -1.9785
  117OSM    C7S12247   3.982   6.669   7.143  0.0690  0.2551  0.7787
  117OSM    H7S12248   4.093   6.655   7.143  0.0186 -0.8143  3.4986
  117OSM    H7T12249   3.946   6.564   7.130  1.3616 -0.0157 -1.1886
  117OSM    C8S12250   3.948   6.717   7.285 -0.7804  0.0865 -0.8168
  117OSM    H8S12251   3.839   6.731   7.303 -0.1925  2.9888  1.3677
  117OSM    H8T12252   3.990   6.819   7.303 -0.4454 -0.4057  1.4950
  117OSM    C9S12253   4.002   6.615   7.391  0.3792  0.5398 -0.1266
  117OSM    H9S12254   4.101   6.566   7.375  0.6136  1.0517 -0.2703
  117OSM    H9T12255   3.935   6.527   7.380  0.9178  0.1745 -0.5374
  117OSM   C10S12256   3.992   6.678   7.535  0.9156  1.2057  0.2325
  117OSM   H10S12257   3.897   6.727   7.567 -0.1088  0.3130 -1.3031
  117OSM   H10T12258   4.076   6.749   7.546  1.6893  0.3623 -0.1283
  117OSM   C11S12259   3.999   6.570   7.644 -0.2828 -0.0622 -0.1887
  117OSM   H11S12260   4.058   6.482   7.612  1.3356  1.0597 -0.4409
  117OSM   H11T12261   3.895   6.537   7.668 -0.1586 -1.3048 -1.2553
  117OSM   C12S12262   4.061   6.633   7.766  0.6626 -0.2524 -0.5228
  117OSM   H12S12263   4.008   6.729   7.785 -0.2514 -0.3388 -2.4366
  117OSM   H12T12264   4.168   6.649   7.742  0.3018  0.0281 -2.0295
  117OSM   C13S12265   4.044   6.558   7.898  0.2532  0.2060  0.0511
  117OSM   H13S12266   4.086   6.457   7.877 -0.1927 -0.4571  2.1067
  117OSM   H13T12267   3.936   6.549   7.923 -0.2144 -0.8030 -2.0799
  117OSM   C14S12268   4.095   6.621   8.034 -0.1408 -0.5673  0.4886
  117OSM   H14S12269   4.051   6.723   8.044  0.1722 -0.4092  0.2644
  117OSM   H14T12270   4.204   6.642   8.030 -0.2461 -0.1887 -0.5107
  117OSM   C15S12271   4.038   6.532   8.152 -0.5882  0.4003  0.3811
  117OSM   H15S12272   4.065   6.428   8.123 -0.6041  0.1017  1.4100
  117OSM   H15T12273   3.928   6.544   8.156 -0.8820 -1.0116 -1.7190
  117OSM   C16S12274   4.108   6.566   8.283 -0.0244 -0.4579 -0.2946
  117OSM   H16S12275   4.117   6.676   8.293  1.7420 -0.0897 -3.9087
  117OSM   H16T12276   4.210   6.523   8.293  0.8366  1.0605 -1.9307
  117OSM   C17S12277   4.037   6.514   8.411  0.5818  0.0937 -0.5852
  117OSM   H17S12278   4.011   6.407   8.393  0.3307  0.1132 -0.3491
  117OSM   H17T12279   3.936   6.561   8.418  1.1584  1.1660  0.9773
  117OSM   C18S12280   4.110   6.541   8.539 -0.1681  0.2713 -0.2609
  117OSM   H18S12281   4.062   6.481   8.619  0.2966 -0.9330 -0.8588
  117OSM   H18T12282   4.107   6.645   8.578  1.7125 -0.2860  1.5137
  117OSM   H18U12283   4.218   6.515   8.537 -0.2580 -0.0982 -0.4537
  117OSM    C1F12284   4.328   6.405   6.833  0.6225 -0.6445  0.1020
  117OSM     OF12285   4.414   6.482   6.784  0.2897  0.2339 -0.2045
  117OSM    C2F12286   4.357   6.297   6.934 -0.5638  0.4410  0.4773
  117OSM    H2F12287   4.463   6.273   6.909 -0.6314  1.0600 -0.4337
  117OSM    H2G12288   4.301   6.204   6.909 -0.5784  0.4832  0.3507
  117OSM    C3F12289   4.353   6.355   7.075  0.1779  0.6176 -0.5388
  117OSM    H3F12290   4.257   6.408   7.090 -1.0908 -1.9952  1.4723
  117OSM    H3G12291   4.440   6.421   7.096 -0.6966  0.8964  2.7976
  117OSM    C4F12292   4.353   6.259   7.195 -0.4017 -0.2320 -0.7860
  117OSM    H4F12293   4.454   6.213   7.199  1.4391  3.5071  0.5138
  117OSM    H4G12294   4.279   6.181   7.168  0.0780 -0.7494 -0.6215
  117OSM    C5F12295   4.317   6.332   7.328  0.0497  0.4032 -0.4700
  117OSM    H5F12296   4.231   6.402   7.324 -2.2461 -2.1334  0.8631
  117OSM    H5G12297   4.409   6.391   7.347 -0.5587  0.8550  1.2557
  117OSM    C6F12298   4.318   6.231   7.446  0.4579  0.4065  0.0402
  117OSM    H6F12299   4.395   6.156   7.422  0.3513 -0.3091  1.7891
  117OSM    H6G12300   4.220   6.181   7.462  1.5338 -2.0650 -0.6260
  117OSM    C7F12301   4.353   6.299   7.578 -0.6830 -0.3939  0.1052
  117OSM    H7F12302   4.266   6.362   7.608 -0.3813  0.6000 -0.9967
  117OSM    H7G12303   4.444   6.360   7.560 -1.7944  1.2765 -0.0670
  117OSM    C8F12304   4.382   6.203   7.692  0.3329 -0.2022 -0.5763
  117OSM    H8F12305   4.403   6.258   7.786  0.7605  0.6169 -1.1438
  117OSM    H8G12306   4.470   6.148   7.653 -0.3075 -0.9092 -1.0651
  117OSM    C9F12307   4.267   6.103   7.721 -1.5179 -0.3201  0.2097
  117OSM    H9F12308   4.242   6.028   7.645  1.4183  0.7107 -1.9818
  117OSM   C10F12309   4.194   6.096   7.832  0.4264  0.3652  0.2543
  117OSM   H10F12310   4.111   6.024   7.828  1.4226 -0.8565  0.7703
  117OSM   C11F12311   4.201   6.195   7.946  0.5190  0.1715  0.4295
  117OSM   H11F12312   4.096   6.213   7.979  0.1538 -2.2794  0.8669
  117OSM   H11G12313   4.239   6.294   7.913 -1.6143  1.1205  0.6418
  117OSM   C12F12314   4.289   6.140   8.061  0.2506 -0.1466 -0.0407
  117OSM   H12F12315   4.385   6.095   8.028  1.2208  0.8846  1.2935
  117OSM   H12G12316   4.242   6.052   8.112 -0.7830 -0.4223 -1.4230
  117OSM   C13F12317   4.310   6.244   8.174 -0.6081 -0.0135  0.2823
  117OSM   H13F12318   4.209   6.277   8.209  0.2590  1.4843  1.5100
  117OSM   H13G12319   4.362   6.330   8.128  1.4437 -2.2764 -1.8451
  117OSM   C14F12320   4.383   6.175   8.290 -0.1126  0.3145  0.0805
  117OSM   H14F12321   4.485   6.143   8.260 -0.9309 -2.5259  0.0379
  117OSM   H14G12322   4.318   6.093   8.328 -1.4414  1.2652 -0.0731
  117OSM   C15F12323   4.400   6.263   8.410 -0.6386 -0.2865 -0.0362
  117OSM   H15F12324   4.321   6.341   8.418 -0.5062 -0.2876  1.4857
  117OSM   H15G12325   4.502   6.306   8.417 -0.2277 -1.2934  0.3304
  117OSM   C16F12326   4.425   6.190   8.546  0.0835  0.4953 -0.1566
  117OSM   H16F12327   4.513   6.121   8.540  0.7382  1.2310  0.7550
  117OSM   H16G12328   4.336   6.129   8.575  1.1179 -0.9139  0.1752
  117OSM   C17F12329   4.453   6.273   8.671  0.2703  0.5047  0.2150
  117OSM   H17F12330   4.393   6.367   8.662  0.4272  0.6139  0.3083
  117OSM   H17G12331   4.399   6.228   8.757  1.3354 -1.5534 -0.1404
  117OSM   C18F12332   4.593   6.313   8.694 -0.4181  0.5794 -0.2931
  117OSM   H18F12333   4.670   6.234   8.685 -0.9006  0.0313  0.2986
  117OSM   H18G12334   4.605   6.354   8.797 -1.5103 -0.4805  0.2749
  117OSM   H18H12335   4.622   6.380   8.610 -0.4014 -1.8504 -2.3159
  118OSM      N12336   1.039   6.797   6.276  0.1949  0.1365  0.6595
  118OSM    C1512337   0.918   6.757   6.196  0.0903  0.4648 -0.4063
  118OSM   H15A12338   0.831   6.749   6.259  0.8471 -0.2788  0.5698
  118OSM   H15B12339   0.939   6.662   6.149 -1.9082 -0.7805  1.0666
  118OSM   H15C12340   0.907   6.824   6.112 -0.3495  1.4097  0.3835
  118OSM    C1412341   1.057   6.705   6.388 -0.0945 -0.2923 -0.5211
  118OSM   H14A12342   1.047   6.606   6.348  0.8123 -0.5607 -0.1217
  118OSM   H14B12343   0.977   6.715   6.460 -1.7306 -0.7167 -2.2065
  118OSM   H14C12344   1.151   6.713   6.440 -1.2629  2.5889  1.4040
  118OSM    C1312345   1.161   6.796   6.198 -0.2011  0.1246  0.7918
  118OSM   H13A12346   1.246   6.852   6.233  1.3468 -1.6901  0.1442
  118OSM   H13B12347   1.148   6.832   6.097  2.6192 -0.5334  0.1169
  118OSM   H13C12348   1.197   6.695   6.185  1.7377  0.5775  2.2341
  118OSM    C1212349   1.011   6.933   6.343  0.3496  0.2563  0.3467
  118OSM   H12A12350   1.089   6.949   6.416 -0.4406  1.0208  1.0323
  118OSM   H12B12351   0.919   6.932   6.398  0.0860 -0.0433 -0.0925
  118OSM    C1112352   1.016   7.055   6.243 -0.0258  0.1370 -0.2723
  118OSM   H11A12353   1.110   7.054   6.185 -0.0412  1.2038 -0.3420
  118OSM   H11B12354   1.021   7.151   6.298  0.1063 -1.0485  1.9015
  118OSM      P12355   0.767   7.085   6.199  0.2065 -0.1106  0.2187
  118OSM    O1312356   0.713   7.198   6.127  0.6095  0.3608 -0.7903
  118OSM    O1412357   0.695   6.954   6.193 -0.2577 -0.0125 -0.0808
  118OSM    O1112358   0.778   7.129   6.350  0.1271 -0.8421 -0.3887
  118OSM    O1212359   0.916   7.065   6.144  0.2603 -0.1627 -0.2822
  118OSM    C1S12360   0.655   7.134   6.425  0.4433  0.1164  0.2010
  118OSM    H1S12361   0.618   7.032   6.449 -2.3848  0.6350 -1.5188
  118OSM    H1T12362   0.574   7.190   6.374 -1.4605 -1.0283  1.8398
  118OSM     NF12363   0.570   7.204   6.644  0.2514 -0.2626  0.3386
  118OSM    HNF12364   0.514   7.286   6.648 -1.3233 -1.0244 -3.0583
  118OSM    C2S12365   0.684   7.214   6.556  0.5424  0.5790  0.0913
  118OSM    H2S12366   0.762   7.155   6.609 -0.4915  0.2569  1.3030
  118OSM    C3S12367   0.744   7.355   6.541  0.1027  0.2124 -0.4824
  118OSM    H3S12368   0.670   7.411   6.481 -0.0195 -0.1307 -0.6571
  118OSM     O312369   0.869   7.360   6.464  0.2113 -0.2851 -0.3246
  118OSM    HO312370   0.882   7.278   6.416 -1.3125 -0.1983 -0.9587
  118OSM    C4S12371   0.753   7.421   6.676 -0.7626 -1.1685  0.2115
  118OSM    H4S12372   0.662   7.469   6.714  1.3130  1.9646  1.6646
  118OSM    C5S12373   0.867   7.428   6.754  0.5255 -0.3145 -0.0241
  118OSM    H5S12374   0.966   7.388   6.726  0.5085  0.7897 -1.8053
  118OSM    C6S12375   0.869   7.483   6.894  0.3184  0.1267 -0.3015
  118OSM    H6S12376   0.812   7.578   6.900 -1.9345 -1.2311  1.5247
  118OSM    H6T12377   0.969   7.514   6.929  0.5424  0.3645 -1.1330
  118OSM    C7S12378   0.831   7.373   6.999 -0.1960 -0.3362  0.1624
  118OSM    H7S12379   0.900   7.287   7.005  1.7134  1.1588  0.3975
  118OSM    H7T12380   0.735   7.330   6.962 -0.0593  0.2581 -0.9316
  118OSM    C8S12381   0.805   7.427   7.144  0.1491 -0.5670 -0.7236
  118OSM    H8S12382   0.749   7.349   7.200  1.5216 -0.2867  1.1126
  118OSM    H8T12383   0.744   7.517   7.123  2.7228  1.7036  0.8632
  118OSM    C9S12384   0.932   7.478   7.219 -0.3440 -0.2423 -0.7180
  118OSM    H9S12385   0.970   7.573   7.175  1.1384  0.1699  1.3056
  118OSM    H9T12386   1.012   7.402   7.229  0.5205  0.6841 -0.3720
  118OSM   C10S12387   0.900   7.505   7.370  0.4419  0.4668 -1.0926
  118OSM   H10S12388   0.812   7.572   7.384  0.8946  1.5432 -3.0546
  118OSM   H10T12389   0.988   7.563   7.404  0.3546 -0.3630  0.6474
  118OSM   C11S12390   0.878   7.380   7.463 -0.5006  0.3037  0.4128
  118OSM   H11S12391   0.950   7.299   7.438 -2.0853 -0.3676 -2.5105
  118OSM   H11T12392   0.776   7.337   7.465 -0.7141  0.8216  2.7808
  118OSM   C12S12393   0.910   7.420   7.606  0.2281 -0.4633 -0.1780
  118OSM   H12S12394   0.847   7.510   7.621 -1.0274 -0.8822 -2.4264
  118OSM   H12T12395   1.018   7.437   7.626 -0.0175 -0.7112  1.4641
  118OSM   C13S12396   0.855   7.308   7.696  0.5228  0.0759  0.1267
  118OSM   H13S12397   0.906   7.216   7.660  1.2157  0.2380  0.6840
  118OSM   H13T12398   0.746   7.296   7.681  0.2318  0.1548  1.9546
  118OSM   C14S12399   0.896   7.325   7.848  0.3408 -0.4376  0.1461
  118OSM   H14S12400   0.839   7.410   7.891 -1.1710 -0.4456 -1.6982
  118OSM   H14T12401   1.004   7.349   7.850  0.8140 -2.4074  1.3306
  118OSM   C15S12402   0.875   7.202   7.933  0.0473 -0.2587 -0.7925
  118OSM   H15S12403   0.943   7.121   7.897  0.7961 -0.8291  1.7333
  118OSM   H15T12404   0.770   7.168   7.925  0.4767 -1.4885 -1.5568
  118OSM   C16S12405   0.912   7.217   8.083 -0.0188 -0.1584 -0.1699
  118OSM   H16S12406   1.018   7.245   8.103 -0.7428 -0.1549  4.9128
  118OSM   H16T12407   0.882   7.121   8.130  0.9839  0.1536  1.1684
  118OSM   C17S12408   0.821   7.318   8.155 -0.3289  0.1959 -0.2937
  118OSM   H17S12409   0.724   7.338   8.105 -0.2255  0.5964 -0.3427
  118OSM   H17T12410   0.865   7.418   8.135  0.4821 -0.2134 -0.6152
  118OSM   C18S12411   0.815   7.307   8.306  0.0901 -0.1365 -0.1896
  118OSM   H18S12412   0.777   7.398   8.358 -1.6647  0.6152 -2.6041
  118OSM   H18T12413   0.916   7.277   8.340  0.5676  1.5737 -0.0532
  118OSM   H18U12414   0.747   7.223   8.334  1.9540 -0.8798  2.4769
  118OSM    C1F12415   0.535   7.088   6.694 -0.1700 -0.0852 -0.0949
  118OSM     OF12416   0.602   6.987   6.685 -0.8461 -0.1262 -0.3735
  118OSM    C2F12417   0.400   7.083   6.769  0.2522  0.5742 -0.5894
  118OSM    H2F12418   0.381   6.976   6.789  2.0964 -0.1224 -2.1963
  118OSM    H2G12419   0.321   7.117   6.699 -2.1868 -1.5130  1.0004
  118OSM    C3F12420   0.402   7.153   6.904 -0.0696 -0.1297  0.2040
  118OSM    H3F12421   0.303   7.150   6.954 -0.6446  1.6043 -0.7606
  118OSM    H3G12422   0.431   7.259   6.886 -0.0037  0.1372  1.7904
  118OSM    C4F12423   0.505   7.080   6.990  0.8936 -0.6851  0.7456
  118OSM    H4F12424   0.602   7.067   6.937  0.4592  1.1010 -0.6030
  118OSM    H4G12425   0.453   6.986   7.018 -1.8986 -0.0232 -1.7521
  118OSM    C5F12426   0.523   7.158   7.125 -0.8227 -0.5544  0.3992
  118OSM    H5F12427   0.550   7.261   7.093 -2.0394  0.1279  1.4961
  118OSM    H5G12428   0.616   7.107   7.159 -2.2253 -2.7286  1.2342
  118OSM    C6F12429   0.417   7.166   7.240  0.3058 -0.5453  0.1736
  118OSM    H6F12430   0.372   7.065   7.240 -2.1034  0.4576 -0.4299
  118OSM    H6G12431   0.333   7.234   7.214  0.5138  0.1444  1.2198
  118OSM    C7F12432   0.473   7.221   7.372 -0.7436  0.0278  0.8320
  118OSM    H7F12433   0.506   7.323   7.345  0.7138 -0.1131  1.9633
  118OSM    H7G12434   0.559   7.159   7.405 -0.6482 -0.7526 -0.7860
  118OSM    C8F12435   0.377   7.233   7.488  0.3997  0.5613  0.1068
  118OSM    H8F12436   0.288   7.281   7.441 -0.4687  1.3495  2.4175
  118OSM    H8G12437   0.407   7.313   7.560 -0.2052  1.1719 -0.3044
  118OSM    C9F12438   0.340   7.096   7.538 -0.0240 -0.1282 -0.0324
  118OSM    H9F12439   0.356   7.016   7.464  2.1186  0.3555 -0.1555
  118OSM   C10F12440   0.292   7.063   7.660  0.1492  0.6030  0.1825
  118OSM   H10F12441   0.290   6.955   7.682  1.0414  0.5365  0.0053
  118OSM   C11F12442   0.277   7.159   7.778 -0.1835 -0.2171  0.2062
  118OSM   H11F12443   0.173   7.198   7.772 -0.9662 -2.3652 -1.4495
  118OSM   H11G12444   0.349   7.243   7.767 -0.7211  0.1066 -1.0152
  118OSM   C12F12445   0.298   7.092   7.918 -0.6129 -0.1266  0.2745
  118OSM   H12F12446   0.395   7.040   7.932  0.6311  1.4077 -1.9939
  118OSM   H12G12447   0.228   7.006   7.920  0.2121 -0.9453 -2.2285
  118OSM   C13F12448   0.272   7.191   8.029  0.0768 -0.2507 -0.4635
  118OSM   H13F12449   0.195   7.264   7.994 -0.5747  0.2735  1.8831
  118OSM   H13G12450   0.360   7.257   8.043  0.9245 -1.2764 -0.8877
  118OSM   C14F12451   0.230   7.121   8.160 -0.4108 -0.1364 -0.8180
  118OSM   H14F12452   0.134   7.066   8.158  0.2448 -1.7929  3.2508
  118OSM   H14G12453   0.218   7.193   8.243 -2.1305 -0.2057 -0.9730
  118OSM   C15F12454   0.327   7.004   8.201  0.0418 -0.3546  0.7896
  118OSM   H15F12455   0.426   7.053   8.208  0.9654 -1.9935 -0.3470
  118OSM   H15G12456   0.315   6.932   8.118  0.2115 -0.9139  1.2494
  118OSM   C16F12457   0.287   6.934   8.327  0.5685  0.3300  0.1094
  118OSM   H16F12458   0.194   6.880   8.298 -0.1687  0.9009  1.2944
  118OSM   H16G12459   0.258   7.015   8.398  1.7583  1.5529 -0.7518
  118OSM   C17F12460   0.398   6.850   8.390  0.2487 -0.5018  0.0089
  118OSM   H17F12461   0.344   6.795   8.471  0.1509  1.3412  1.2545
  118OSM   H17G12462   0.482   6.904   8.439  0.2983 -1.9187  1.5868
  118OSM   C18F12463   0.451   6.747   8.290 -0.1015 -0.1100  0.2313
  118OSM   H18F12464   0.517   6.675   8.343 -0.1884  0.4812  1.1675
  118OSM   H18G12465   0.504   6.791   8.203  0.8700 -0.9850  0.3639
  118OSM   H18H12466   0.366   6.692   8.244  1.1384 -0.9627 -1.1318
  119OSM      N12467   0.415   1.205   6.077  0.3734  0.0855  0.5495
  119OSM    C1512468   0.317   1.323   6.076 -0.4299  0.0350 -0.2554
  119OSM   H15A12469   0.324   1.380   6.167 -1.2461 -0.1667 -0.0562
  119OSM   H15B12470   0.218   1.285   6.055  0.0055 -0.2724 -1.9001
  119OSM   H15C12471   0.342   1.374   5.984 -1.6357 -1.5822 -1.5481
  119OSM    C1412472   0.546   1.263   6.116  0.2087 -0.1679 -0.3900
  119OSM   H14A12473   0.563   1.363   6.079  3.2856 -0.0014  1.1519
  119OSM   H14B12474   0.622   1.192   6.087  0.2657 -1.2712  2.2284
  119OSM   H14C12475   0.545   1.267   6.224  0.4596 -1.9813 -0.2969
  119OSM    C1312476   0.367   1.101   6.166  1.0145  0.0708 -0.2959
  119OSM   H13A12477   0.377   1.131   6.269  0.3174 -1.3088  0.2085
  119OSM   H13B12478   0.422   1.008   6.158 -0.2876 -0.9103  1.3573
  119OSM   H13C12479   0.267   1.064   6.149  1.2861 -0.3064 -1.1264
  119OSM    C1212480   0.417   1.143   5.932 -0.3613 -0.1116 -0.4546
  119OSM   H12A12481   0.408   1.231   5.870 -0.0490 -0.4426 -0.9772
  119OSM   H12B12482   0.326   1.086   5.919 -1.4107  1.4650 -0.2486
  119OSM    C1112483   0.534   1.053   5.886 -1.1465 -0.0190 -0.2325
  119OSM   H11A12484   0.628   1.113   5.889 -2.1586  1.6708 -0.9302
  119OSM   H11B12485   0.515   1.028   5.780  0.6992 -2.0506 -0.1662
  119OSM      P12486   0.668   0.844   5.966  0.3976 -0.2375 -0.0646
  119OSM    O1312487   0.601   0.713   5.958  0.3083  0.5592 -0.4445
  119OSM    O1412488   0.753   0.881   5.851  0.5951  0.1729 -0.3728
  119OSM    O1112489   0.742   0.862   6.101  0.5832  0.1715 -0.8128
  119OSM    O1212490   0.550   0.940   5.972  0.3422 -0.3738  0.2960
  119OSM    C1S12491   0.666   0.896   6.222 -0.0356 -0.3700  0.4683
  119OSM    H1S12492   0.604   0.807   6.245  1.7432 -1.6925  0.3593
  119OSM    H1T12493   0.606   0.989   6.209 -1.6850 -1.5657 -0.9555
  119OSM     NF12494   0.670   0.977   6.459  0.6850  0.3884 -0.4978
  119OSM    HNF12495   0.701   1.067   6.488 -1.0732  0.7214  0.4874
  119OSM    C2S12496   0.753   0.918   6.351 -0.4462 -0.2470  0.0126
  119OSM    H2S12497   0.792   0.818   6.381  1.7788  0.8477  1.0098
  119OSM    C3S12498   0.881   1.002   6.327  0.0181 -0.1030  0.2395
  119OSM    H3S12499   0.837   1.102   6.306  0.7191  0.1902  0.1399
  119OSM     O312500   0.956   0.960   6.214  0.1679  0.1338 -0.2286
  119OSM    HO312501   0.882   0.921   6.167 -0.9216 -0.1082  1.6141
  119OSM    C4S12502   0.973   1.002   6.445  0.9679  0.0816 -0.0999
  119OSM    H4S12503   0.972   1.094   6.506 -3.1795  0.6973 -0.8191
  119OSM    C5S12504   1.047   0.899   6.485  0.6036  0.2975  0.1568
  119OSM    H5S12505   1.036   0.805   6.430 -0.7757  1.2584 -1.3236
  119OSM    C6S12506   1.131   0.894   6.606 -0.3215  0.6117  0.0089
  119OSM    H6S12507   1.234   0.935   6.595  1.2854 -2.9613  0.0855
  119OSM    H6T12508   1.158   0.787   6.621  1.6756  0.8523 -1.4720
  119OSM    C7S12509   1.067   0.937   6.735  0.0362 -0.1831  0.2086
  119OSM    H7S12510   0.972   0.878   6.744 -0.2520  0.3786  0.9636
  119OSM    H7T12511   1.038   1.043   6.724  1.5189  0.2267  0.0926
  119OSM    C8S12512   1.151   0.921   6.859  0.3097  0.0796 -0.8402
  119OSM    H8S12513   1.253   0.961   6.840  0.5700 -0.1269  0.0714
  119OSM    H8T12514   1.165   0.812   6.874 -1.1898 -0.0713 -0.4354
  119OSM    C9S12515   1.102   0.988   6.986 -0.4486  0.1132 -0.4460
  119OSM    H9S12516   1.010   0.939   7.022 -0.8360  0.7220 -0.5938
  119OSM    H9T12517   1.071   1.093   6.968 -0.7127  0.1825  0.3809
  119OSM   C10S12518   1.217   0.992   7.090 -0.1023 -0.2378 -0.1864
  119OSM   H10S12519   1.305   1.032   7.036  0.1629 -1.7037 -0.9049
  119OSM   H10T12520   1.241   0.884   7.104  1.1703  0.0923  0.3943
  119OSM   C11S12521   1.190   1.071   7.215  0.1742 -0.2724 -0.3251
  119OSM   H11S12522   1.093   1.046   7.263 -0.1735  1.3363 -0.1087
  119OSM   H11T12523   1.172   1.170   7.168 -0.5829  1.0952  2.5800
  119OSM   C12S12524   1.298   1.065   7.317 -0.2217  0.3464 -0.7416
  119OSM   H12S12525   1.285   1.153   7.384 -0.2360 -2.0835  2.7461
  119OSM   H12T12526   1.396   1.057   7.265 -0.1676  1.2183 -0.7948
  119OSM   C13S12527   1.300   0.939   7.411  0.2530 -0.3840  0.2027
  119OSM   H13S12528   1.404   0.919   7.444  0.5295  0.4670 -0.1406
  119OSM   H13T12529   1.262   0.849   7.357 -1.3564  0.9562 -0.9864
  119OSM   C14S12530   1.226   0.958   7.548 -0.4133 -0.1243 -0.0742
  119OSM   H14S12531   1.116   0.949   7.543 -0.6509  1.3729  1.5090
  119OSM   H14T12532   1.236   1.065   7.574  0.9782 -0.5962  1.5697
  119OSM   C15S12533   1.273   0.877   7.677  0.0615  0.4422 -0.0268
  119OSM   H15S12534   1.381   0.893   7.697 -0.0845 -0.6688  1.9395
  119OSM   H15T12535   1.273   0.768   7.656 -2.0674  0.2779  0.6034
  119OSM   C16S12536   1.180   0.898   7.793 -1.1296 -0.1142 -0.2605
  119OSM   H16S12537   1.077   0.911   7.755 -0.4802 -0.7935 -2.4397
  119OSM   H16T12538   1.213   0.991   7.842  2.0757 -1.1974 -0.1071
  119OSM   C17S12539   1.177   0.784   7.898  0.0291 -0.0740  0.0411
  119OSM   H17S12540   1.146   0.689   7.848 -0.6205 -1.1190  2.3086
  119OSM   H17T12541   1.093   0.817   7.963 -0.7556 -0.1827 -0.8906
  119OSM   C18S12542   1.296   0.757   7.982  0.5043  0.5783 -0.4099
  119OSM   H18S12543   1.287   0.663   8.040  2.6534  1.2061  1.0671
  119OSM   H18T12544   1.318   0.844   8.048 -2.0945 -0.1513  1.5611
  119OSM   H18U12545   1.387   0.737   7.921  0.7283  0.4790 -0.0439
  119OSM    C1F12546   0.566   0.916   6.516 -0.2262 -0.2103 -0.1412
  119OSM     OF12547   0.528   0.805   6.471 -0.1854 -0.0963 -0.4446
  119OSM    C2F12548   0.503   1.001   6.621  0.3611 -0.7915  0.2724
  119OSM    H2F12549   0.405   1.039   6.585  0.0076 -1.5735  0.3729
  119OSM    H2G12550   0.570   1.088   6.637 -2.3314  1.3182  0.8003
  119OSM    C3F12551   0.496   0.921   6.753 -0.4006  0.7438  0.3434
  119OSM    H3F12552   0.597   0.878   6.771 -0.6415  0.0749  0.1334
  119OSM    H3G12553   0.424   0.837   6.743 -0.8275  1.1905 -0.3689
  119OSM    C4F12554   0.448   1.010   6.870 -0.6289  0.5206  0.6577
  119OSM    H4F12555   0.337   1.022   6.872 -0.6141  0.5813  1.9484
  119OSM    H4G12556   0.507   1.104   6.858 -1.2828  1.0115  1.1743
  119OSM    C5F12557   0.484   0.944   7.002  0.6349  0.2214  0.4960
  119OSM    H5F12558   0.594   0.950   7.013  0.6686  0.4605  0.0779
  119OSM    H5G12559   0.470   0.835   6.992  2.1752  0.1416 -1.6220
  119OSM    C6F12560   0.397   1.000   7.113  0.0910  0.1726  0.2703
  119OSM    H6F12561   0.291   0.991   7.083  0.0665  1.2961 -0.0249
  119OSM    H6G12562   0.419   1.108   7.128  1.0886  0.1213 -0.6788
  119OSM    C7F12563   0.409   0.927   7.247 -0.1714 -0.0495  0.2458
  119OSM    H7F12564   0.353   0.832   7.233 -1.3734  0.4634  1.3437
  119OSM    H7G12565   0.346   0.986   7.318  2.5904  2.1061  1.0747
  119OSM    C8F12566   0.538   0.920   7.331 -0.2785 -0.1490  0.1549
  119OSM    H8F12567   0.561   1.008   7.395  0.2622 -1.9584  2.6268
  119OSM    H8G12568   0.626   0.924   7.263  0.9546  1.0469  1.7276
  119OSM    C9F12569   0.548   0.793   7.400 -0.0320  0.8690 -0.3238
  119OSM    H9F12570   0.576   0.712   7.331 -2.1284 -0.2971  0.1134
  119OSM   C10F12571   0.540   0.761   7.533  0.5126 -0.4804 -0.8120
  119OSM   H10F12572   0.533   0.654   7.554  0.3284 -0.5667 -1.2965
  119OSM   C11F12573   0.510   0.856   7.649  0.1696  0.1187 -0.0235
  119OSM   H11F12574   0.497   0.955   7.601  0.7408  0.7404  1.0596
  119OSM   H11G12575   0.603   0.868   7.709  1.2452 -1.0543 -1.3962
  119OSM   C12F12576   0.381   0.821   7.731 -0.1632 -0.5111  0.8672
  119OSM   H12F12577   0.311   0.794   7.649 -0.0058  2.7349 -0.5185
  119OSM   H12G12578   0.333   0.908   7.780  1.1616 -0.8671  2.9308
  119OSM   C13F12579   0.409   0.729   7.850 -0.4103  0.6481  0.6910
  119OSM   H13F12580   0.474   0.646   7.817  0.5112  0.4313  2.8771
  119OSM   H13G12581   0.311   0.684   7.875 -1.1003  1.5881 -0.2166
  119OSM   C14F12582   0.457   0.794   7.973  0.1772  0.3093  0.8658
  119OSM   H14F12583   0.413   0.895   7.991  0.4916  0.1107  2.9775
  119OSM   H14G12584   0.565   0.816   7.958  0.1978 -0.4716 -0.2204
  119OSM   C15F12585   0.432   0.721   8.105  0.2411  0.7426  0.2586
  119OSM   H15F12586   0.491   0.627   8.103  1.3500  1.4185 -1.2345
  119OSM   H15G12587   0.322   0.714   8.115  0.1706 -1.1053 -1.2856
  119OSM   C16F12588   0.495   0.797   8.216 -0.6506  0.1539  0.8214
  119OSM   H16F12589   0.446   0.893   8.243  0.6553  0.9469  0.4797
  119OSM   H16G12590   0.600   0.816   8.185 -0.8305 -0.2938 -0.1025
  119OSM   C17F12591   0.498   0.727   8.349 -0.2904  0.3979 -0.2306
  119OSM   H17F12592   0.563   0.636   8.348 -0.0011  0.6028 -0.3101
  119OSM   H17G12593   0.395   0.691   8.371  0.2491 -0.6173  0.7222
  119OSM   C18F12594   0.559   0.826   8.456  0.5114 -0.8083  0.0505
  119OSM   H18F12595   0.536   0.792   8.559  0.1433 -0.5922  0.0431
  119OSM   H18G12596   0.516   0.928   8.442 -1.6965 -1.6535  0.2713
  119OSM   H18H12597   0.668   0.827   8.439  0.1753 -2.1515 -2.7658
  120OSM      N12598   3.892   5.170   6.249 -0.1936 -0.2205 -0.3637
  120OSM    C1512599   4.009   5.146   6.164  0.1113 -0.0993  0.1514
  120OSM   H15A12600   4.017   5.212   6.079 -1.6020 -1.5073 -1.1545
  120OSM   H15B12601   4.004   5.045   6.127  0.2271  0.2597 -0.8701
  120OSM   H15C12602   4.097   5.157   6.227  1.8385 -0.8800 -1.9990
  120OSM    C1412603   3.884   5.314   6.274  0.2221  0.1141 -0.2051
  120OSM   H14A12604   3.974   5.335   6.331  1.3021 -1.6041 -1.2125
  120OSM   H14B12605   3.804   5.335   6.343 -0.6481 -2.8102 -0.1987
  120OSM   H14C12606   3.881   5.371   6.183 -0.1319 -0.6790 -0.6982
  120OSM    C1312607   3.774   5.134   6.170 -0.3554 -0.8266  0.2084
  120OSM   H13A12608   3.754   5.203   6.090  0.7112 -2.0056 -1.1337
  120OSM   H13B12609   3.687   5.148   6.232 -1.6632 -0.3571 -1.6486
  120OSM   H13C12610   3.780   5.035   6.127  1.6982 -0.4328 -0.5428
  120OSM    C1212611   3.890   5.084   6.375 -0.4012 -0.0668 -1.0657
  120OSM   H12A12612   3.884   4.981   6.342 -0.7261 -0.4347  0.0722
  120OSM   H12B12613   3.804   5.109   6.435  0.8713  1.7165  0.1127
  120OSM    C1112614   4.002   5.106   6.477 -0.4811 -0.3900 -0.0867
  120OSM   H11A12615   3.979   5.068   6.580 -0.2439  1.7189  0.7844
  120OSM   H11B12616   4.017   5.213   6.500 -5.1299  0.2832  0.7269
  120OSM      P12617   4.149   4.897   6.415 -0.3336  0.2956  0.1898
  120OSM    O1312618   4.023   4.837   6.372 -0.2799 -0.1478  0.8234
  120OSM    O1412619   4.277   4.874   6.337  0.1822 -0.1527 -0.0140
  120OSM    O1112620   4.173   4.874   6.562  0.0697  0.3036  0.2420
  120OSM    O1212621   4.121   5.048   6.423 -0.4024 -0.3412 -0.0737
  120OSM    C1S12622   4.299   4.866   6.620  0.2959  0.0165  0.2893
  120OSM    H1S12623   4.355   4.960   6.602  0.2046 -0.0973 -0.6515
  120OSM    H1T12624   4.360   4.776   6.599  1.0311  0.1615  1.6664
  120OSM     NF12625   4.403   4.875   6.856  0.2433  0.2333  0.2212
  120OSM    HNF12626   4.463   4.795   6.855  0.3892  0.3414  0.3103
  120OSM    C2S12627   4.279   4.858   6.776 -0.0889  0.4208  0.3319
  120OSM    H2S12628   4.215   4.946   6.801 -1.0451 -0.5587  1.4066
  120OSM    C3S12629   4.207   4.718   6.809 -0.2361  0.5480  0.0229
  120OSM    H3S12630   4.267   4.632   6.773  0.2045  0.7583  0.2546
  120OSM     O312631   4.076   4.703   6.756  0.2751  0.3315 -0.4175
  120OSM    HO312632   4.062   4.785   6.707 -0.4820  0.7910  0.5328
  120OSM    C4S12633   4.190   4.693   6.962  0.0423  1.0263 -0.2469
  120OSM    H4S12634   4.096   4.723   7.012  3.2072  3.1273  5.2839
  120OSM    C5S12635   4.284   4.645   7.045  0.7132  0.2857 -0.3183
  120OSM    H5S12636   4.387   4.630   7.009  1.8331 -0.9241  2.9980
  120OSM    C6S12637   4.276   4.635   7.194  0.3693  0.6201 -0.0709
  120OSM    H6S12638   4.364   4.685   7.240  0.2469 -0.3544  1.2788
  120OSM    H6T12639   4.280   4.529   7.226 -1.6976  0.6278  0.3188
  120OSM    C7S12640   4.140   4.681   7.251 -0.1961 -0.0980 -0.2693
  120OSM    H7S12641   4.053   4.620   7.220  0.3773 -0.9852 -0.1625
  120OSM    H7T12642   4.111   4.784   7.222 -1.3521 -0.3840 -0.1830
  120OSM    C8S12643   4.134   4.686   7.397  0.1380  0.9795 -0.4497
  120OSM    H8S12644   4.191   4.769   7.445  0.8132 -1.1814  2.7967
  120OSM    H8T12645   4.186   4.596   7.436  1.1112  1.9559  0.5675
  120OSM    C9S12646   3.995   4.700   7.446 -0.5332  0.1216 -0.5690
  120OSM    H9S12647   3.945   4.604   7.422  1.0822 -0.6045 -1.2155
  120OSM    H9T12648   3.937   4.780   7.396 -1.0402  2.2090  3.0053
  120OSM   C10S12649   3.973   4.720   7.591  0.2077 -0.0048 -0.4300
  120OSM   H10S12650   4.062   4.783   7.612  0.1181  0.7204 -2.0788
  120OSM   H10T12651   3.981   4.627   7.650  0.7589  0.5465  0.3939
  120OSM   C11S12652   3.844   4.794   7.636 -0.3241 -0.3413  0.3752
  120OSM   H11S12653   3.765   4.744   7.577  2.4842 -1.3506 -2.8729
  120OSM   H11T12654   3.860   4.900   7.607  4.2545 -0.3643  2.0074
  120OSM   C12S12655   3.807   4.803   7.784  0.0943  1.0452 -0.7688
  120OSM   H12S12656   3.895   4.855   7.827  1.3228 -2.4448  1.3436
  120OSM   H12T12657   3.807   4.703   7.832  1.2082  1.3660 -0.0757
  120OSM   C13S12658   3.676   4.873   7.821  0.6416 -0.2491 -0.1055
  120OSM   H13S12659   3.592   4.819   7.772 -0.4886 -0.0474  1.5481
  120OSM   H13T12660   3.671   4.974   7.775  1.8632 -0.1790 -0.1167
  120OSM   C14S12661   3.639   4.864   7.968  0.5591 -0.9885  0.0613
  120OSM   H14S12662   3.649   4.754   7.982  2.3071 -0.9801 -0.7683
  120OSM   H14T12663   3.538   4.910   7.971  0.6281 -0.3461 -3.3956
  120OSM   C15S12664   3.727   4.943   8.061 -0.1342  0.0930  0.4980
  120OSM   H15S12665   3.719   5.053   8.042 -0.3030  0.0375  0.2309
  120OSM   H15T12666   3.832   4.918   8.034 -0.6458 -0.9182 -0.6528
  120OSM   C16S12667   3.697   4.920   8.209 -0.0984  0.8410 -0.6874
  120OSM   H16S12668   3.727   4.815   8.232  1.1662  1.4575  0.6009
  120OSM   H16T12669   3.592   4.942   8.239 -0.7669 -0.5389 -1.8722
  120OSM   C17S12670   3.782   5.001   8.303 -0.5508 -0.4023  0.3943
  120OSM   H17S12671   3.769   5.107   8.271  0.9492 -0.4193 -0.3562
  120OSM   H17T12672   3.886   4.967   8.289  0.7677  2.7273  1.5738
  120OSM   C18S12673   3.748   4.965   8.455 -0.2967  1.2425  0.3716
  120OSM   H18S12674   3.799   5.031   8.528  2.4144  0.8277 -1.0079
  120OSM   H18T12675   3.768   4.856   8.465 -0.0577  1.2176 -0.2854
  120OSM   H18U12676   3.640   4.980   8.478 -0.7922 -2.0450  0.7536
  120OSM    C1F12677   4.451   4.994   6.873  0.6550 -0.4635  0.2864
  120OSM     OF12678   4.387   5.092   6.844 -0.3024 -0.3423  1.2654
  120OSM    C2F12679   4.594   5.004   6.932 -0.8196 -0.0244  0.5648
  120OSM    H2F12680   4.661   5.071   6.875  0.4067  0.4126  2.4111
  120OSM    H2G12681   4.637   4.901   6.931 -2.3893 -0.7394  1.3472
  120OSM    C3F12682   4.597   5.048   7.082  0.0348  0.1401 -0.4685
  120OSM    H3F12683   4.536   5.139   7.097  2.2794  1.3873  2.0591
  120OSM    H3G12684   4.702   5.064   7.116 -0.8558 -1.6183  3.7609
  120OSM    C4F12685   4.556   4.941   7.190  0.2366  0.0280  0.1138
  120OSM    H4F12686   4.597   4.839   7.177  0.5155 -0.2838  2.9733
  120OSM    H4G12687   4.447   4.943   7.168  0.5795  0.6435 -1.7588
  120OSM    C5F12688   4.581   4.983   7.331  0.1166 -0.9754 -0.0353
  120OSM    H5F12689   4.562   5.092   7.340 -1.7272 -1.3117  0.5437
  120OSM    H5G12690   4.689   4.979   7.355  0.3611  3.7074  0.7149
  120OSM    C6F12691   4.487   4.908   7.433 -0.6878 -0.3404  0.5399
  120OSM    H6F12692   4.516   4.802   7.422  2.2355  0.4947 -0.9661
  120OSM    H6G12693   4.383   4.922   7.396 -0.3095 -1.1093 -0.9078
  120OSM    C7F12694   4.492   4.947   7.582  0.3677 -0.3962 -0.0302
  120OSM    H7F12695   4.480   5.057   7.596 -2.3313 -0.7335  0.9916
  120OSM    H7G12696   4.589   4.915   7.626  0.7933  0.8255 -0.0307
  120OSM    C8F12697   4.374   4.885   7.674  0.1286  0.1891  0.0554
  120OSM    H8F12698   4.274   4.911   7.635  0.0717  0.8194  0.6129
  120OSM    H8G12699   4.374   4.933   7.774 -0.1149 -1.0253  0.6514
  120OSM    C9F12700   4.394   4.736   7.689 -0.1191 -0.1115 -0.2275
  120OSM    H9F12701   4.389   4.687   7.590 -2.6778  0.9623 -0.7179
  120OSM   C10F12702   4.400   4.668   7.809  0.2053  0.3927 -0.2834
  120OSM   H10F12703   4.407   4.559   7.818 -0.2758  0.4817  1.6813
  120OSM   C11F12704   4.382   4.724   7.954 -0.2270 -0.8484 -0.2582
  120OSM   H11F12705   4.370   4.834   7.961  1.4881 -0.6599  0.1593
  120OSM   H11G12706   4.472   4.701   8.015  0.0165 -0.7658 -0.5808
  120OSM   C12F12707   4.272   4.656   8.033  0.0446 -0.6830 -0.3126
  120OSM   H12F12708   4.271   4.706   8.132 -2.3552  0.2660 -0.7650
  120OSM   H12G12709   4.300   4.552   8.062 -0.5601 -0.7473  0.0449
  120OSM   C13F12710   4.136   4.682   7.967  0.0750  0.7048 -0.0933
  120OSM   H13F12711   4.130   4.651   7.860 -1.1190 -0.9771  0.3980
  120OSM   H13G12712   4.117   4.791   7.971  1.3307  0.9506 -0.5206
  120OSM   C14F12713   4.013   4.621   8.036  0.5829 -0.0780 -0.2432
  120OSM   H14F12714   4.019   4.510   8.031 -0.0333 -0.1766  0.8427
  120OSM   H14G12715   3.920   4.649   7.983  0.0154  0.0568  0.7884
  120OSM   C15F12716   4.006   4.655   8.184 -0.2268 -0.3223  0.0860
  120OSM   H15F12717   4.006   4.765   8.200 -1.3543 -0.6585  2.8885
  120OSM   H15G12718   4.101   4.613   8.224 -0.4329 -1.5174 -0.6303
  120OSM   C16F12719   3.897   4.597   8.267  0.1774  0.6963  0.1789
  120OSM   H16F12720   3.807   4.592   8.203 -0.1709  0.9375  0.6404
  120OSM   H16G12721   3.873   4.664   8.352 -1.2974 -1.4401  1.5457
  120OSM   C17F12722   3.926   4.449   8.316 -0.5519 -0.5514  0.5410
  120OSM   H17F12723   3.962   4.385   8.232 -1.9928  1.6047 -1.8941
  120OSM   H17G12724   3.833   4.397   8.344 -1.7571  0.2815 -1.6230
  120OSM   C18F12725   4.028   4.443   8.434 -0.2716 -0.3367  1.1802
  120OSM   H18F12726   4.025   4.344   8.485 -0.9787 -1.3912 -0.7971
  120OSM   H18G12727   4.010   4.527   8.504  1.1650  1.2709 -0.2683
  120OSM   H18H12728   4.126   4.451   8.382 -2.3163  2.6563 -2.7801
  121OSM      N12729   1.045   0.593   5.966 -0.3265  0.2313  0.1420
  121OSM    C1512730   1.017   0.652   5.834  0.1300 -0.6379 -0.2265
  121OSM   H15A12731   0.911   0.656   5.810  0.1470  2.9184 -0.2841
  121OSM   H15B12732   1.075   0.615   5.751  0.8611  1.7758 -0.8733
  121OSM   H15C12733   1.036   0.758   5.831  2.1687 -0.8962  1.5171
  121OSM    C1412734   0.945   0.644   6.066  0.4736  0.0341 -0.0137
  121OSM   H14A12735   0.969   0.749   6.078 -1.3564  0.6633 -1.3949
  121OSM   H14B12736   0.975   0.597   6.159  0.5008  1.9451  1.0088
  121OSM   H14C12737   0.847   0.609   6.038  0.4160  0.3572 -0.2206
  121OSM    C1312738   1.042   0.451   5.950  0.2429 -0.2465 -0.3268
  121OSM   H13A12739   1.114   0.396   6.009  1.5955 -0.3039 -1.9493
  121OSM   H13B12740   1.061   0.422   5.847  0.4749  0.5810 -0.5211
  121OSM   H13C12741   0.942   0.416   5.971 -0.0213  1.7028  2.1640
  121OSM    C1212742   1.181   0.650   6.010 -0.5097  0.0212  0.3934
  121OSM   H12A12743   1.180   0.758   6.000  1.0543  0.2574  2.1513
  121OSM   H12B12744   1.263   0.626   5.944  1.5877  3.1824  1.5749
  121OSM    C1112745   1.235   0.614   6.149 -0.2759  0.8419 -0.0378
  121OSM   H11A12746   1.168   0.623   6.237  0.2706  2.9204  0.2095
  121OSM   H11B12747   1.317   0.683   6.178  0.8462 -1.1578  1.8791
  121OSM      P12748   1.445   0.448   6.161 -0.0573 -0.0683  0.3460
  121OSM    O1312749   1.463   0.303   6.155 -0.0867 -0.1874  0.5079
  121OSM    O1412750   1.521   0.533   6.064 -0.6512  0.4040 -0.4547
  121OSM    O1112751   1.491   0.492   6.303 -0.0903 -0.3806 -0.1068
  121OSM    O1212752   1.294   0.480   6.149 -0.3321 -0.3746  1.2579
  121OSM    C1S12753   1.401   0.486   6.412  0.8092  0.3684  0.0617
  121OSM    H1S12754   1.302   0.441   6.388 -0.9500  3.0356  1.7977
  121OSM    H1T12755   1.363   0.588   6.435  0.3005  0.5033 -1.2597
  121OSM     NF12756   1.345   0.373   6.621  0.3226 -0.4858  0.2016
  121OSM    HNF12757   1.355   0.416   6.711 -1.4602 -0.8423  0.6143
  121OSM    C2S12758   1.451   0.417   6.534 -0.5691 -0.4107 -0.2767
  121OSM    H2S12759   1.512   0.331   6.501 -3.2314 -2.5528  0.0593
  121OSM    C3S12760   1.569   0.504   6.596 -0.4363 -0.1297  0.2619
  121OSM    H3S12761   1.515   0.586   6.647 -0.6474 -1.0054  1.5055
  121OSM     O312762   1.654   0.552   6.496  0.4927 -0.1343 -0.3230
  121OSM    HO312763   1.598   0.538   6.419 -1.2538 -2.5412  1.2252
  121OSM    C4S12764   1.641   0.421   6.701  0.9534 -0.1253  0.1461
  121OSM    H4S12765   1.604   0.425   6.805 -0.9758 -3.7505 -0.2325
  121OSM    C5S12766   1.741   0.331   6.684 -0.0577  0.2040  0.2697
  121OSM    H5S12767   1.791   0.318   6.587 -0.4942  0.7783 -0.0417
  121OSM    C6S12768   1.804   0.244   6.793  0.0684 -0.3622 -0.3709
  121OSM    H6S12769   1.911   0.272   6.788 -0.0992  0.4330  0.2445
  121OSM    H6T12770   1.801   0.135   6.768  1.7002 -0.8085  1.1248
  121OSM    C7S12771   1.761   0.263   6.939 -0.1075 -0.0323  0.4955
  121OSM    H7S12772   1.665   0.210   6.959  0.8634 -2.2923 -0.4866
  121OSM    H7T12773   1.753   0.373   6.953  0.9762  0.1632 -0.2821
  121OSM    C8S12774   1.859   0.208   7.038 -0.4866  0.1443  0.4150
  121OSM    H8S12775   1.962   0.246   7.019 -0.8096  0.9185  0.1588
  121OSM    H8T12776   1.866   0.098   7.025 -1.2750  0.0787  0.5436
  121OSM    C9S12777   1.822   0.248   7.184 -0.4456  0.6542 -0.1839
  121OSM    H9S12778   1.713   0.245   7.206  0.0961  0.8205  3.0703
  121OSM    H9T12779   1.867   0.348   7.198 -1.5661  0.9399  1.7966
  121OSM   C10S12780   1.879   0.147   7.289  0.3217  0.0290  0.2236
  121OSM   H10S12781   1.979   0.109   7.259  1.2237  2.0967  0.4027
  121OSM   H10T12782   1.817   0.056   7.283  1.1732 -0.5257 -0.2506
  121OSM   C11S12783   1.890   0.206   7.428  0.4392  0.0985 -0.1126
  121OSM   H11S12784   1.803   0.272   7.451  0.6295  0.7296 -1.1277
  121OSM   H11T12785   1.971   0.282   7.435 -0.1889  0.8253 -0.5647
  121OSM   C12S12786   1.896   0.102   7.534  0.0190  0.2820 -0.3813
  121OSM   H12S12787   1.986   0.041   7.511 -0.4205  0.2030 -2.0790
  121OSM   H12T12788   1.809   0.033   7.526 -0.8040  1.1538  0.7142
  121OSM   C13S12789   1.893   0.164   7.671  1.1314 -0.3043  0.4504
  121OSM   H13S12790   1.793   0.211   7.689  0.2749 -1.7181 -0.3933
  121OSM   H13T12791   1.968   0.246   7.660 -1.1384  1.5832 -3.2649
  121OSM   C14S12792   1.922   0.068   7.786 -0.3906 -0.2335 -0.1768
  121OSM   H14S12793   1.988   0.123   7.856 -2.3369  5.0438 -1.9994
  121OSM   H14T12794   1.981  -0.009   7.732  0.0669  0.5357 -0.7927
  121OSM   C15S12795   1.795   0.029   7.855  0.0493  0.3010 -0.5852
  121OSM   H15S12796   1.727  -0.023   7.783 -0.9425  3.3074 -1.9938
  121OSM   H15T12797   1.745   0.121   7.892 -0.1770 -0.2111  0.4178
  121OSM   C16S12798   1.820  -0.067   7.980 -0.7133  0.1881 -0.0213
  121OSM   H16S12799   1.866  -0.164   7.950 -1.1606 -0.0199 -0.0452
  121OSM   H16T12800   1.722  -0.106   8.014 -0.6474  1.0203  1.1571
  121OSM   C17S12801   1.904  -0.004   8.090 -0.7065  0.1090 -0.0703
  121OSM   H17S12802   1.869   0.101   8.106  0.0867  0.0985  1.9870
  121OSM   H17T12803   2.010   0.001   8.056 -0.6842  1.2533  0.1072
  121OSM   C18S12804   1.881  -0.079   8.217 -0.1643 -0.3564 -0.3397
  121OSM   H18S12805   1.937  -0.043   8.306 -1.8994 -0.1751  0.7330
  121OSM   H18T12806   1.912  -0.185   8.208 -0.2837 -0.3193 -1.2970
  121OSM   H18U12807   1.773  -0.082   8.245 -0.2512 -0.2742 -0.6660
  121OSM    C1F12808   1.246   0.285   6.589 -0.2748 -0.0615 -0.5622
  121OSM     OF12809   1.270   0.213   6.492  0.6219  0.0372 -0.3371
  121OSM    C2F12810   1.117   0.287   6.667  0.0686 -0.0374  0.3542
  121OSM    H2F12811   1.038   0.275   6.590  0.2463  0.7131  0.0417
  121OSM    H2G12812   1.105   0.384   6.720 -1.5677 -0.4388  0.7586
  121OSM    C3F12813   1.104   0.165   6.755  0.0278 -0.7064  0.5823
  121OSM    H3F12814   1.190   0.171   6.825 -0.9705 -0.6936  1.8531
  121OSM    H3G12815   1.112   0.071   6.697  0.8623 -0.1004 -0.3032
  121OSM    C4F12816   0.986   0.179   6.857  0.1946 -0.0897 -0.0590
  121OSM    H4F12817   0.891   0.171   6.799  1.4565 -2.7694 -2.0041
  121OSM    H4G12818   0.991   0.279   6.905 -0.5396 -0.0958  0.0503
  121OSM    C5F12819   0.994   0.073   6.970 -0.8948  0.5938  0.7401
  121OSM    H5F12820   1.091   0.085   7.023 -1.3875 -0.1748  1.8682
  121OSM    H5G12821   0.998  -0.026   6.922  0.5385  1.5612 -1.2540
  121OSM    C6F12822   0.886   0.095   7.071 -0.0242 -0.0163  0.5438
  121OSM    H6F12823   0.788   0.096   7.018 -0.6295 -1.4039  1.5584
  121OSM    H6G12824   0.903   0.198   7.110  0.8610  0.1746 -0.3122
  121OSM    C7F12825   0.888  -0.001   7.189 -0.5677  0.2601  0.1756
  121OSM    H7F12826   0.987  -0.011   7.239 -0.4395  0.3531 -0.0637
  121OSM    H7G12827   0.868  -0.096   7.135 -2.0157  0.3084  0.5771
  121OSM    C8F12828   0.765   0.026   7.287  0.1380 -0.2779 -0.2004
  121OSM    H8F12829   0.749  -0.067   7.346  1.4155  0.8445  2.0774
  121OSM    H8G12830   0.688   0.040   7.209  0.6725 -0.1726 -0.7108
  121OSM    C9F12831   0.792   0.141   7.376 -1.0365  0.3063  0.2426
  121OSM    H9F12832   0.862   0.213   7.333 -2.3531  2.4713  1.5657
  121OSM   C10F12833   0.747   0.167   7.498  0.3185 -0.3061  0.2512
  121OSM   H10F12834   0.809   0.236   7.557  1.4062  1.2730 -2.5745
  121OSM   C11F12835   0.641   0.093   7.570  0.1864  0.2657  0.3878
  121OSM   H11F12836   0.570   0.051   7.497 -1.8191  1.5678  1.5048
  121OSM   H11G12837   0.576   0.164   7.626  1.1922  2.7991 -1.4625
  121OSM   C12F12838   0.685  -0.025   7.661 -0.3047 -0.5373 -0.7009
  121OSM   H12F12839   0.746  -0.094   7.598 -0.5255 -0.5726 -0.8780
  121OSM   H12G12840   0.593  -0.077   7.695 -1.0971  0.1570 -1.7144
  121OSM   C13F12841   0.766   0.030   7.782 -0.0627  0.0224  0.3638
  121OSM   H13F12842   0.684   0.069   7.846  0.7559  2.5180 -0.0090
  121OSM   H13G12843   0.839   0.113   7.770 -1.6299  1.7166  1.9036
  121OSM   C14F12844   0.841  -0.090   7.848 -0.1191  0.3827  0.5596
  121OSM   H14F12845   0.937  -0.102   7.793 -1.9170 -0.5984 -2.6456
  121OSM   H14G12846   0.770  -0.173   7.827 -3.5230  2.9212  1.1112
  121OSM   C15F12847   0.852  -0.069   7.995  0.3218  0.0843 -1.2626
  121OSM   H15F12848   0.756  -0.107   8.037  2.2968 -3.0786  0.8106
  121OSM   H15G12849   0.855   0.039   8.023  0.3721 -1.0370  4.2440
  121OSM   C16F12850   0.967  -0.143   8.058 -0.9598 -0.3323 -0.5139
  121OSM   H16F12851   1.060  -0.107   8.009  0.6395 -1.0376  1.8332
  121OSM   H16G12852   0.955  -0.249   8.026  0.9500 -0.2077 -1.7896
  121OSM   C17F12853   0.989  -0.113   8.207 -0.2568  0.1948  0.2061
  121OSM   H17F12854   0.984  -0.004   8.226  0.0641  0.0363  1.3080
  121OSM   H17G12855   1.087  -0.146   8.247 -1.2933 -0.2953  2.5482
  121OSM   C18F12856   0.892  -0.169   8.298  0.4908 -0.4512  0.5305
  121OSM   H18F12857   0.794  -0.118   8.287  0.2073 -1.0255  0.4048
  121OSM   H18G12858   0.914  -0.144   8.404 -1.5189 -0.6286  1.0300
  121OSM   H18H12859   0.877  -0.279   8.296 -3.8758 -0.0865  1.8907
  122OSM      N12860   5.898   0.773   5.842  0.1711  0.3717  0.1947
  122OSM    C1512861   5.889   0.879   5.950 -0.1457  0.1679  0.1752
  122OSM   H15A12862   5.886   0.837   6.049  0.4407 -1.9146 -0.6279
  122OSM   H15B12863   5.801   0.941   5.946  0.5035  1.0771 -0.3105
  122OSM   H15C12864   5.971   0.946   5.931 -1.6730  1.6273 -1.6601
  122OSM    C1412865   5.837   0.826   5.715  0.0589  0.5667  0.4548
  122OSM   H14A12866   5.892   0.908   5.671 -1.1131  1.1033 -0.0525
  122OSM   H14B12867   5.733   0.854   5.723 -0.6714 -0.9415 -2.3987
  122OSM   H14C12868   5.822   0.754   5.635 -0.3536  1.4468 -0.2743
  122OSM    C1312869   6.035   0.721   5.818 -0.2254  0.6073 -0.1613
  122OSM   H13A12870   6.037   0.649   5.737  0.2390  0.4020  0.0299
  122OSM   H13B12871   6.073   0.658   5.896  1.0132  1.2632 -0.2137
  122OSM   H13C12872   6.105   0.801   5.803 -0.5478  1.0130  0.4548
  122OSM    C1212873   5.818   0.647   5.895  0.7284  0.2381 -0.0159
  122OSM   H12A12874   5.830   0.567   5.824  1.4871 -0.6496  1.0744
  122OSM   H12B12875   5.715   0.678   5.902  0.2845 -1.3508  0.9627
  122OSM    C1112876   5.861   0.588   6.036 -0.8371  0.1128 -0.1370
  122OSM   H11A12877   5.786   0.514   6.071 -0.8747  0.2835  0.1486
  122OSM   H11B12878   5.854   0.670   6.110  0.8951  1.6066 -1.5475
  122OSM      P12879   6.030   0.385   5.999  0.2527 -0.0028 -0.4124
  122OSM    O1312880   5.920   0.335   5.922  0.4372 -0.1476  0.2272
  122OSM    O1412881   6.166   0.388   5.939  0.9613  0.0769  0.2947
  122OSM    O1112882   6.039   0.307   6.137 -0.0947  0.6275  0.2909
  122OSM    O1212883   5.992   0.532   6.035 -0.1796 -0.0648 -0.0121
  122OSM    C1S12884   6.065   0.362   6.268  0.3719  0.3758  0.3241
  122OSM    H1S12885   6.134   0.449   6.271  1.0787 -0.0909 -1.1447
  122OSM    H1T12886   6.121   0.280   6.320  0.4285 -0.1244 -0.4998
  122OSM     NF12887   5.981   0.463   6.473 -0.0107  0.1185 -0.4350
  122OSM    HNF12888   5.996   0.410   6.557 -1.2362 -0.5680 -0.6275
  122OSM    C2S12889   5.937   0.393   6.357 -0.4668 -0.1915  0.0586
  122OSM    H2S12890   5.869   0.462   6.301 -1.3291 -1.1546 -0.1077
  122OSM    C3S12891   5.872   0.260   6.387 -0.4427 -0.7694  0.2288
  122OSM    H3S12892   5.942   0.201   6.451 -0.4836  0.1266  1.1339
  122OSM     O312893   5.841   0.194   6.266  0.1663  0.2979  0.2545
  122OSM    HO312894   5.909   0.219   6.202  0.8159 -2.5702 -0.3272
  122OSM    C4S12895   5.746   0.277   6.468  0.3737  0.2216 -0.3407
  122OSM    H4S12896   5.689   0.370   6.461 -0.0815  0.0237  0.6057
  122OSM    C5S12897   5.690   0.182   6.547 -0.2861 -0.5763 -0.8431
  122OSM    H5S12898   5.739   0.087   6.572 -0.3896 -0.0326  1.6979
  122OSM    C6S12899   5.572   0.205   6.633 -0.2086  0.0364 -0.1873
  122OSM    H6S12900   5.484   0.149   6.594 -0.8362  0.4944  0.5547
  122OSM    H6T12901   5.549   0.314   6.632  0.8570  0.2800  0.5033
  122OSM    C7S12902   5.591   0.173   6.782 -0.0050  0.1567 -0.5838
  122OSM    H7S12903   5.686   0.223   6.810  2.6655 -3.1449 -2.9053
  122OSM    H7T12904   5.593   0.063   6.794 -1.2679  0.1490 -0.3059
  122OSM    C8S12905   5.479   0.231   6.865 -0.2719  0.0885 -0.2689
  122OSM    H8S12906   5.379   0.202   6.826  0.4051 -2.0365 -0.5569
  122OSM    H8T12907   5.480   0.342   6.866 -0.2447  0.0900  0.5708
  122OSM    C9S12908   5.494   0.190   7.020  0.5347 -0.2158  0.1261
  122OSM    H9S12909   5.583   0.233   7.071 -1.7726  2.5310  2.1632
  122OSM    H9T12910   5.503   0.080   7.028  1.0943 -0.1001  1.2036
  122OSM   C10S12911   5.354   0.230   7.082 -0.5126 -0.3968  0.1326
  122OSM   H10S12912   5.271   0.184   7.025 -0.9958  0.2999  0.2655
  122OSM   H10T12913   5.347   0.341   7.090  1.1844 -0.1548 -1.2229
  122OSM   C11S12914   5.334   0.158   7.214  0.1353  0.7252 -0.9675
  122OSM   H11S12915   5.408   0.189   7.291 -0.2256 -2.2302  0.7255
  122OSM   H11T12916   5.347   0.048   7.208  0.7236  0.7798 -0.7724
  122OSM   C12S12917   5.193   0.183   7.273 -0.6002  0.2353 -0.2119
  122OSM   H12S12918   5.106   0.129   7.230 -1.9828  3.1732 -1.4330
  122OSM   H12T12919   5.164   0.291   7.273 -0.9890  0.1995  2.6286
  122OSM   C13S12920   5.206   0.154   7.422  0.2141  0.3899  0.1959
  122OSM   H13S12921   5.279   0.226   7.464  0.2646  0.6818 -0.3798
  122OSM   H13T12922   5.251   0.052   7.427  1.0449  0.6754 -1.0735
  122OSM   C14S12923   5.079   0.165   7.514  0.1403  0.2060 -0.4137
  122OSM   H14S12924   5.027   0.256   7.477  1.6935  1.3279  0.0320
  122OSM   H14T12925   5.111   0.163   7.620 -0.5781 -3.2329 -0.1467
  122OSM   C15S12926   4.971   0.058   7.491 -0.1063 -0.8114  0.3029
  122OSM   H15S12927   5.020  -0.037   7.521  0.3576 -0.8427 -0.5482
  122OSM   H15T12928   4.951   0.038   7.384 -0.5842  0.4823  0.1383
  122OSM   C16S12929   4.837   0.092   7.568 -0.2756 -0.8023  0.2171
  122OSM   H16S12930   4.846   0.072   7.677 -2.7506 -2.0293  0.2693
  122OSM   H16T12931   4.763   0.019   7.527  0.6721 -1.2819 -0.6969
  122OSM   C17S12932   4.776   0.234   7.541  0.3880  0.0110 -0.3547
  122OSM   H17S12933   4.747   0.236   7.434  1.3407 -1.5849 -0.6784
  122OSM   H17T12934   4.853   0.312   7.554  1.3059 -0.6820 -1.4298
  122OSM   C18S12935   4.659   0.265   7.633  0.4206 -0.3496 -0.0675
  122OSM   H18S12936   4.596   0.173   7.635 -2.1891  1.3532  1.0200
  122OSM   H18T12937   4.604   0.360   7.619 -0.9470 -0.9547  0.9552
  122OSM   H18U12938   4.692   0.287   7.737 -0.0108 -1.1778  0.2559
  122OSM    C1F12939   6.036   0.585   6.465  1.1023 -0.4978 -0.3477
  122OSM     OF12940   6.029   0.648   6.361  0.5419 -0.2132  0.7135
  122OSM    C2F12941   6.104   0.639   6.588  0.1893 -0.1558 -0.0641
  122OSM    H2F12942   6.204   0.595   6.610  0.0582 -0.7232 -0.5949
  122OSM    H2G12943   6.041   0.625   6.679  0.8416 -0.3941  0.3615
  122OSM    C3F12944   6.117   0.797   6.579  0.1111 -0.3734 -0.5312
  122OSM    H3F12945   6.020   0.848   6.559  0.1711 -0.2456 -0.4984
  122OSM    H3G12946   6.189   0.820   6.497 -0.8466 -0.1452 -1.3325
  122OSM    C4F12947   6.139   0.871   6.709 -0.5320 -0.1247 -0.1127
  122OSM    H4F12948   6.052   0.851   6.775 -0.4114 -2.3103 -0.5426
  122OSM    H4G12949   6.156   0.980   6.693 -0.9471 -0.2941 -1.9337
  122OSM    C5F12950   6.262   0.822   6.787 -1.1271 -0.4390 -0.2761
  122OSM    H5F12951   6.331   0.895   6.834  0.9617 -0.1405 -3.4779
  122OSM    H5G12952   6.325   0.786   6.703 -0.3126 -0.0123  0.1440
  122OSM    C6F12953   6.247   0.692   6.878  0.2580  0.2635 -0.0791
  122OSM    H6F12954   6.333   0.623   6.858  0.4832  0.6411 -0.4178
  122OSM    H6G12955   6.151   0.639   6.864 -0.2741  0.8884  1.0999
  122OSM    C7F12956   6.243   0.735   7.027 -0.2000  0.5698 -0.3687
  122OSM    H7F12957   6.162   0.810   7.035 -0.8309 -0.2504  2.2863
  122OSM    H7G12958   6.341   0.778   7.058  0.2915 -2.4290  2.9664
  122OSM    C8F12959   6.203   0.632   7.134  0.1379 -0.5647  0.5774
  122OSM    H8F12960   6.098   0.598   7.117  0.5393 -0.6650 -2.0018
  122OSM    H8G12961   6.187   0.682   7.232  0.1893 -0.7279  0.6697
  122OSM    C9F12962   6.297   0.511   7.147 -0.4109 -0.1748 -0.1093
  122OSM    H9F12963   6.389   0.510   7.087 -0.4207 -0.0879 -0.1258
  122OSM   C10F12964   6.292   0.413   7.239  0.4235  0.6326 -0.2872
  122OSM   H10F12965   6.366   0.335   7.262  0.3338  0.5913 -0.1372
  122OSM   C11F12966   6.175   0.395   7.330  0.3918  0.2077  0.5056
  122OSM   H11F12967   6.075   0.399   7.282 -0.4502 -0.1536  2.1585
  122OSM   H11G12968   6.189   0.477   7.404 -0.7772  1.9857 -1.1542
  122OSM   C12F12969   6.183   0.265   7.404 -0.3727  0.5731 -0.9286
  122OSM   H12F12970   6.283   0.264   7.452 -0.4466  0.1660 -0.7794
  122OSM   H12G12971   6.184   0.179   7.333 -1.0337 -1.6441  1.5968
  122OSM   C13F12972   6.085   0.241   7.520  0.7488 -0.7136  0.7861
  122OSM   H13F12973   6.107   0.141   7.564 -2.2634 -2.7108 -1.7862
  122OSM   H13G12974   5.981   0.234   7.482  1.2779  0.6441 -1.0616
  122OSM   C14F12975   6.106   0.342   7.635 -1.2633 -0.1069 -0.6964
  122OSM   H14F12976   6.022   0.330   7.707  0.7953 -1.5867  1.5679
  122OSM   H14G12977   6.111   0.446   7.594  0.3147  0.2816  0.4301
  122OSM   C15F12978   6.234   0.318   7.722  0.2543 -0.1686  0.5837
  122OSM   H15F12979   6.328   0.312   7.664  0.0337  1.4478  0.0110
  122OSM   H15G12980   6.203   0.218   7.758  0.5110 -0.2506  0.5764
  122OSM   C16F12981   6.239   0.410   7.838 -0.2252  0.6911  0.1000
  122OSM   H16F12982   6.282   0.361   7.928 -0.8401 -0.8910 -0.4373
  122OSM   H16G12983   6.137   0.452   7.852 -0.1776  0.1319  2.6370
  122OSM   C17F12984   6.331   0.528   7.815 -0.1599 -0.3356  1.0920
  122OSM   H17F12985   6.327   0.582   7.912  1.7865 -0.8519  1.4887
  122OSM   H17G12986   6.293   0.593   7.733 -0.3504 -0.4716  1.0719
  122OSM   C18F12987   6.479   0.503   7.784  0.1027 -0.0392  0.0038
  122OSM   H18F12988   6.526   0.422   7.844  0.9749 -0.8107 -1.6337
  122OSM   H18G12989   6.548   0.591   7.787  0.3915 -0.2689  2.9421
  122OSM   H18H12990   6.485   0.476   7.676  3.1883  1.2607 -0.2676
  123OSM      N12991   2.762   4.725   6.865 -0.3111 -0.0041  0.2870
  123OSM    C1512992   2.726   4.718   7.009  0.4258  0.0638 -0.5900
  123OSM   H15A12993   2.743   4.816   7.051  3.1094 -0.4176 -0.3392
  123OSM   H15B12994   2.782   4.649   7.070 -1.0570  0.2775  1.0829
  123OSM   H15C12995   2.622   4.693   7.019 -0.0180  2.1754  0.7914
  123OSM    C1412996   2.905   4.769   6.858  0.1955 -0.1973 -0.1821
  123OSM   H14A12997   2.965   4.693   6.906  0.8633  0.3895 -0.0766
  123OSM   H14B12998   2.924   4.866   6.901 -0.3949 -0.2441  0.1911
  123OSM   H14C12999   2.952   4.785   6.762  2.9481 -0.7519  0.9732
  123OSM    C1313000   2.756   4.590   6.804  0.2070 -0.1675 -0.4970
  123OSM   H13A13001   2.654   4.555   6.812  1.1871 -2.7268  4.2508
  123OSM   H13B13002   2.815   4.519   6.860 -1.1607 -0.6292  0.4096
  123OSM   H13C13003   2.788   4.584   6.702 -0.7871  0.4331 -0.8641
  123OSM    C1213004   2.680   4.829   6.790  0.4644  0.5129 -0.2546
  123OSM   H12A13005   2.576   4.800   6.794  0.9272 -1.1216  2.0341
  123OSM   H12B13006   2.711   4.826   6.686  1.3731  1.2155 -0.0119
  123OSM    C1113007   2.696   4.969   6.847  0.0824  0.4839  0.0188
  123OSM   H11A13008   2.803   4.998   6.839  0.6720 -1.6201 -0.1738
  123OSM   H11B13009   2.659   4.972   6.952  1.5409 -2.6028  0.7268
  123OSM      P13010   2.673   5.121   6.621  0.1040 -0.0389  0.0946
  123OSM    O1313011   2.757   5.022   6.546 -0.0873  0.0129  0.1356
  123OSM    O1413012   2.558   5.179   6.544 -0.3606 -0.4520 -0.2935
  123OSM    O1113013   2.768   5.240   6.670 -0.4233  0.4966  0.8111
  123OSM    O1213014   2.624   5.061   6.755 -0.1692 -0.2721 -1.0022
  123OSM    C1S13015   2.718   5.372   6.717  0.4723 -0.0482  0.4334
  123OSM    H1S13016   2.632   5.412   6.660  1.3441  0.3996 -0.6036
  123OSM    H1T13017   2.791   5.455   6.713  0.3614  0.1044  1.3380
  123OSM     NF13018   2.585   5.473   6.903  0.0609 -0.2806  0.3654
  123OSM    HNF13019   2.604   5.562   6.945  0.2264  0.0470 -0.3746
  123OSM    C2S13020   2.671   5.363   6.868 -0.4496 -0.1146 -0.6849
  123OSM    H2S13021   2.614   5.268   6.873  2.0200 -1.6312  0.8533
  123OSM    C3S13022   2.799   5.353   6.962 -0.2030  0.3337  0.2476
  123OSM    H3S13023   2.866   5.441   6.966 -0.4654  0.5766 -0.4548
  123OSM     O313024   2.886   5.248   6.921  0.0661 -0.3131  0.3498
  123OSM    HO313025   2.850   5.217   6.837 -0.2230  0.5741  0.1401
  123OSM    C4S13026   2.747   5.327   7.102  0.3840  0.4829 -0.1587
  123OSM    H4S13027   2.712   5.421   7.147 -0.2117 -0.4838  1.4640
  123OSM    C5S13028   2.739   5.208   7.163  1.3676 -0.8422 -1.0033
  123OSM    H5S13029   2.780   5.115   7.121 -2.3982 -1.7494 -3.0484
  123OSM    C6S13030   2.679   5.194   7.303  0.3452 -0.0111  0.3248
  123OSM    H6S13031   2.570   5.169   7.296  0.7970 -1.6215 -2.6599
  123OSM    H6T13032   2.703   5.282   7.365  0.9853 -0.5260  0.8209
  123OSM    C7S13033   2.738   5.077   7.378  0.3270 -0.0231 -0.9321
  123OSM    H7S13034   2.848   5.070   7.370  0.5483  1.1187  0.6095
  123OSM    H7T13035   2.702   4.974   7.358 -0.8046 -0.1946  1.5869
  123OSM    C8S13036   2.705   5.074   7.528  0.1316 -0.0192  0.2093
  123OSM    H8S13037   2.768   5.151   7.577 -1.0205  0.0060  1.7383
  123OSM    H8T13038   2.754   4.987   7.577 -2.3704 -2.1794 -0.8759
  123OSM    C9S13039   2.555   5.073   7.569 -0.3389 -0.2405 -0.2191
  123OSM    H9S13040   2.510   4.984   7.520  0.9148 -1.5916  0.9812
  123OSM    H9T13041   2.506   5.168   7.539  1.1375  0.7798  0.4955
  123OSM   C10S13042   2.531   5.034   7.716  0.2087  0.6742 -0.3903
  123OSM   H10S13043   2.563   4.928   7.725  0.5194  0.6637 -1.5746
  123OSM   H10T13044   2.422   5.036   7.739  0.4860  1.6985  0.9688
  123OSM   C11S13045   2.611   5.118   7.813  0.4086 -0.2941 -0.4968
  123OSM   H11S13046   2.604   5.223   7.776  1.5391  0.2180  0.6765
  123OSM   H11T13047   2.717   5.096   7.789  0.9467  0.8838  0.6202
  123OSM   C12S13048   2.554   5.122   7.952 -0.0059 -0.0052 -0.5435
  123OSM   H12S13049   2.567   5.020   7.994  2.6644  1.0119  1.3637
  123OSM   H12T13050   2.446   5.149   7.953  0.1773  1.1815  3.0606
  123OSM   C13S13051   2.624   5.233   8.039  0.0185  0.6098 -0.1759
  123OSM   H13S13052   2.584   5.332   8.010 -0.0763  1.7105  3.2215
  123OSM   H13T13053   2.734   5.225   8.025  0.2645  2.4237  0.4517
  123OSM   C14S13054   2.584   5.231   8.193 -0.2815 -0.4684 -0.1120
  123OSM   H14S13055   2.474   5.237   8.208 -0.1761  0.4337  0.3533
  123OSM   H14T13056   2.632   5.318   8.242  0.0311 -0.0468 -1.1255
  123OSM   C15S13057   2.631   5.101   8.255 -0.3206 -0.3979 -0.1758
  123OSM   H15S13058   2.741   5.110   8.247 -0.3338 -0.5015 -0.4824
  123OSM   H15T13059   2.607   5.009   8.197  1.4530 -1.4241  0.6468
  123OSM   C16S13060   2.565   5.081   8.396  0.0899 -0.4808 -0.2051
  123OSM   H16S13061   2.456   5.056   8.390 -0.7998  2.3281  2.0616
  123OSM   H16T13062   2.570   5.179   8.448 -0.6975 -1.2501  1.3870
  123OSM   C17S13063   2.639   4.984   8.478  0.3010  0.4764  0.4074
  123OSM   H17S13064   2.746   5.014   8.480  0.8140 -1.0945 -0.9964
  123OSM   H17T13065   2.626   4.882   8.435 -1.1175  0.9814 -0.4215
  123OSM   C18S13066   2.593   4.983   8.622 -0.0097 -0.1722 -0.0134
  123OSM   H18S13067   2.490   4.942   8.620  0.1119 -0.4632 -2.2198
  123OSM   H18T13068   2.611   5.080   8.673 -1.2931  0.0714 -0.0032
  123OSM   H18U13069   2.658   4.914   8.680  1.0733  1.5092  0.8322
  123OSM    C1F13070   2.457   5.478   6.851  0.2274  0.2435  0.1734
  123OSM     OF13071   2.424   5.382   6.782 -0.1358  0.2289  0.1381
  123OSM    C2F13072   2.377   5.596   6.885  0.1024 -0.2151 -0.2993
  123OSM    H2F13073   2.414   5.683   6.827  1.1569 -1.2589 -1.2396
  123OSM    H2G13074   2.398   5.626   6.990 -2.8713 -0.6470  0.5224
  123OSM    C3F13075   2.228   5.569   6.869  0.2990 -0.0008  0.2111
  123OSM    H3F13076   2.196   5.521   6.775  0.4229  0.2124  0.0591
  123OSM    H3G13077   2.176   5.667   6.860 -0.7332 -0.5559 -0.0393
  123OSM    C4F13078   2.156   5.515   6.989  0.1045  0.2398 -0.5884
  123OSM    H4F13079   2.048   5.529   6.966  0.0663  1.6361  0.2964
  123OSM    H4G13080   2.167   5.584   7.076 -1.3876  1.3109 -1.2079
  123OSM    C5F13081   2.191   5.374   7.025  0.0285 -0.3639 -0.2053
  123OSM    H5F13082   2.291   5.377   7.074 -0.8979 -0.5187  1.7825
  123OSM    H5G13083   2.199   5.305   6.938 -0.4961 -1.9723  0.9606
  123OSM    C6F13084   2.096   5.303   7.132  0.0339 -0.7104  0.3379
  123OSM    H6F13085   2.154   5.212   7.155 -0.4622 -1.2746 -0.6064
  123OSM    H6G13086   2.008   5.275   7.071  1.4842  2.5011 -3.7250
  123OSM    C7F13087   2.060   5.385   7.257 -0.5001  0.0392  0.4316
  123OSM    H7F13088   1.996   5.473   7.238 -1.3738 -0.2468  1.8564
  123OSM    H7G13089   2.153   5.428   7.299 -0.9843  1.5544  0.0242
  123OSM    C8F13090   1.983   5.310   7.355  0.1586  0.4234 -0.7839
  123OSM    H8F13091   1.992   5.368   7.450  1.6775  1.9873 -1.8249
  123OSM    H8G13092   2.029   5.212   7.378  0.8048  0.7911 -0.4854
  123OSM    C9F13093   1.833   5.295   7.325  0.9698 -0.6134 -0.1622
  123OSM    H9F13094   1.807   5.219   7.250  0.2240  0.6769 -1.2491
  123OSM   C10F13095   1.734   5.355   7.391  0.6334 -0.4232  0.6231
  123OSM   H10F13096   1.632   5.315   7.383 -0.3351  1.0871  3.7952
  123OSM   C11F13097   1.743   5.454   7.498  0.6175  0.3436 -1.1416
  123OSM   H11F13098   1.689   5.547   7.472  0.0393  0.4138  0.2165
  123OSM   H11G13099   1.840   5.506   7.513 -0.0816  1.8052 -1.4678
  123OSM   C12F13100   1.686   5.412   7.634 -0.2724  0.5973  0.0619
  123OSM   H12F13101   1.589   5.358   7.631  0.3814 -0.7404  1.6424
  123OSM   H12G13102   1.688   5.496   7.706  1.2854 -0.5750  1.4769
  123OSM   C13F13103   1.782   5.313   7.704 -0.4481 -0.4674  0.0184
  123OSM   H13F13104   1.883   5.306   7.659 -0.6579 -2.3336 -0.2347
  123OSM   H13G13105   1.730   5.215   7.714 -2.0825  0.0968 -2.0953
  123OSM   C14F13106   1.815   5.356   7.842  0.0371 -0.4479 -0.2602
  123OSM   H14F13107   1.871   5.452   7.837 -0.4646 -0.0626  1.0897
  123OSM   H14G13108   1.884   5.277   7.878  1.1089 -0.5904 -2.4563
  123OSM   C15F13109   1.702   5.380   7.942  0.2389  0.6092  0.3378
  123OSM   H15F13110   1.629   5.300   7.918  1.0616  0.0701 -0.4562
  123OSM   H15G13111   1.660   5.481   7.922  0.2270  0.3686 -0.9413
  123OSM   C16F13112   1.750   5.372   8.089 -0.6720  0.5494  0.5051
  123OSM   H16F13113   1.839   5.436   8.111 -0.3296  0.0597  0.5439
  123OSM   H16G13114   1.786   5.268   8.094 -1.1835  0.3970  1.1079
  123OSM   C17F13115   1.633   5.386   8.190  0.0175  0.0845 -0.5233
  123OSM   H17F13116   1.549   5.319   8.166  0.4465 -0.4958 -0.4272
  123OSM   H17G13117   1.586   5.486   8.179  0.3203  0.1771 -1.0113
  123OSM   C18F13118   1.670   5.371   8.336 -0.0730 -0.3810  0.4499
  123OSM   H18F13119   1.601   5.425   8.405  0.9751  0.7468  0.6653
  123OSM   H18G13120   1.769   5.402   8.375 -1.0201 -0.0271  2.7062
  123OSM   H18H13121   1.679   5.263   8.358  1.0585 -0.2725  0.5670
  124OSM      N13122   3.787   0.911   6.015 -0.3845 -0.3106  0.0884
  124OSM    C1513123   3.872   0.990   5.920 -0.3246  0.2636 -0.1672
  124OSM   H15A13124   3.825   0.980   5.824 -0.7664 -0.8712  0.1541
  124OSM   H15B13125   3.969   0.946   5.904 -0.5280 -0.3987  0.3895
  124OSM   H15C13126   3.875   1.094   5.952  0.3346  0.3060 -0.3412
  124OSM    C1413127   3.661   0.984   6.042 -0.1787 -0.3937 -0.7192
  124OSM   H14A13128   3.600   0.947   6.123  0.3486  0.8833  0.3155
  124OSM   H14B13129   3.607   1.023   5.957  0.6318  1.4061 -0.4641
  124OSM   H14C13130   3.699   1.071   6.093 -0.5677 -0.9604  0.5730
  124OSM    C1313131   3.759   0.776   5.959 -0.1319  0.0206 -0.1832
  124OSM   H13A13132   3.853   0.727   5.936  1.5756  2.8239  0.3174
  124OSM   H13B13133   3.706   0.792   5.866  1.4694  3.7855 -0.6632
  124OSM   H13C13134   3.698   0.724   6.031 -0.4664 -1.1365 -1.2467
  124OSM    C1213135   3.856   0.895   6.149  0.1176 -0.0048 -0.5786
  124OSM   H12A13136   3.934   0.821   6.141 -1.5343 -1.6614 -2.1059
  124OSM   H12B13137   3.788   0.855   6.222  1.5743 -0.4847  0.5550
  124OSM    C1113138   3.924   1.015   6.219 -0.2427 -0.4120  0.7806
  124OSM   H11A13139   3.945   0.986   6.324 -2.7951 -2.5056  0.7873
  124OSM   H11B13140   3.850   1.098   6.222 -2.3926 -2.1495 -1.0142
  124OSM      P13141   4.178   0.974   6.159  0.7272 -0.1062 -0.1573
  124OSM    O1313142   4.136   0.836   6.135  0.6790  0.5569  0.3633
  124OSM    O1413143   4.272   1.032   6.070 -0.6331 -0.2116 -0.2921
  124OSM    O1113144   4.229   0.987   6.312 -0.0637 -0.4076 -0.2513
  124OSM    O1213145   4.043   1.066   6.155 -0.1741 -0.0126 -0.3513
  124OSM    C1S13146   4.365   0.980   6.355 -0.5512 -0.2690  0.0497
  124OSM    H1S13147   4.428   1.061   6.312  0.0844 -0.8120 -0.0673
  124OSM    H1T13148   4.414   0.888   6.314  1.2220  1.2361 -1.4186
  124OSM     NF13149   4.515   0.966   6.550 -0.1045  0.2568  0.5202
  124OSM    HNF13150   4.534   0.885   6.605 -0.9318 -0.6568 -0.5154
  124OSM    C2S13151   4.374   0.997   6.512  0.0875  0.3287 -0.7619
  124OSM    H2S13152   4.361   1.103   6.544 -1.6199 -0.2501  0.6048
  124OSM    C3S13153   4.259   0.913   6.595 -0.5492  0.7707 -0.4397
  124OSM    H3S13154   4.275   0.805   6.574 -0.4808  0.7866 -0.4696
  124OSM     O313155   4.126   0.934   6.555  0.1403  0.2006  0.1193
  124OSM    HO313156   4.138   0.943   6.461 -0.9382 -4.7942 -0.7948
  124OSM    C4S13157   4.277   0.941   6.744  0.0093  0.2088  0.1438
  124OSM    H4S13158   4.374   0.915   6.788 -0.4655 -0.2005  0.9756
  124OSM    C5S13159   4.194   1.000   6.825  0.1649 -0.4034  0.3812
  124OSM    H5S13160   4.094   1.024   6.785  0.2029  0.8264  0.9938
  124OSM    C6S13161   4.231   1.026   6.970  0.7511 -0.4254  0.6316
  124OSM    H6S13162   4.251   1.135   6.978  0.8854 -0.5117  1.6551
  124OSM    H6T13163   4.311   0.962   7.014  2.0840 -0.7601 -2.0506
  124OSM    C7S13164   4.107   1.002   7.056 -0.4412  0.3122 -0.4508
  124OSM    H7S13165   4.100   0.892   7.063 -0.3459  0.3694  0.8886
  124OSM    H7T13166   4.013   1.049   7.019 -3.4889 -3.5869  1.6268
  124OSM    C8S13167   4.126   1.052   7.204 -0.4556 -0.2397 -0.8901
  124OSM    H8S13168   4.031   1.030   7.259  0.0887 -0.8449 -0.1742
  124OSM    H8T13169   4.132   1.163   7.197  0.2773 -0.2923 -1.1420
  124OSM    C9S13170   4.233   0.994   7.290  0.1790 -0.0829  0.7600
  124OSM    H9S13171   4.335   1.006   7.248 -0.3031  1.1538 -0.1213
  124OSM    H9T13172   4.213   0.886   7.311 -3.2158  0.5842  1.5290
  124OSM   C10S13173   4.235   1.069   7.429 -0.2677 -0.0904  0.0732
  124OSM   H10S13174   4.130   1.060   7.465 -0.0493 -0.0701  0.7277
  124OSM   H10T13175   4.233   1.177   7.406  0.3741 -0.6195 -2.7942
  124OSM   C11S13176   4.329   1.019   7.535 -0.8658 -0.3302  0.2725
  124OSM   H11S13177   4.435   1.046   7.513 -0.9745  0.3026  0.5033
  124OSM   H11T13178   4.307   0.910   7.537 -1.5280 -0.2084 -0.0915
  124OSM   C12S13179   4.302   1.071   7.679 -0.3552 -0.0455 -0.2699
  124OSM   H12S13180   4.194   1.058   7.701 -0.0279 -2.8998 -0.0263
  124OSM   H12T13181   4.327   1.178   7.696  0.1365 -0.2378  0.2600
  124OSM   C13S13182   4.380   0.981   7.783 -0.4944  0.0204  0.9731
  124OSM   H13S13183   4.490   0.993   7.771 -0.8397  1.3892 -1.5909
  124OSM   H13T13184   4.364   0.872   7.768 -0.9617  0.1055  0.8537
  124OSM   C14S13185   4.346   1.016   7.929  0.6302 -0.1107 -1.1701
  124OSM   H14S13186   4.407   0.955   7.999 -0.5203 -0.1115 -0.1496
  124OSM   H14T13187   4.237   1.004   7.946  0.5756  1.4710 -0.3054
  124OSM   C15S13188   4.382   1.163   7.961  0.3455 -0.2765 -0.2648
  124OSM   H15S13189   4.300   1.218   7.909  1.7227  1.5357 -0.6441
  124OSM   H15T13190   4.478   1.195   7.915 -0.4993  0.5356 -1.5358
  124OSM   C16S13191   4.368   1.202   8.106  0.3599  0.6823  0.2005
  124OSM   H16S13192   4.305   1.130   8.163  0.7277  2.2088  2.6983
  124OSM   H16T13193   4.319   1.301   8.114  0.4013  0.7684 -0.5679
  124OSM   C17S13194   4.495   1.203   8.196 -0.4084  0.0320  0.2567
  124OSM   H17S13195   4.573   1.272   8.155 -1.1851  0.9490  0.2724
  124OSM   H17T13196   4.541   1.103   8.183  0.9109  0.6276  0.1753
  124OSM   C18S13197   4.465   1.240   8.343  0.0972 -0.2558  0.1078
  124OSM   H18S13198   4.434   1.346   8.351  0.5734 -0.1633  0.7817
  124OSM   H18T13199   4.556   1.216   8.402 -0.4515  2.5430  2.2971
  124OSM   H18U13200   4.388   1.170   8.383  1.4217 -0.7794  1.8531
  124OSM    C1F13201   4.616   1.053   6.516 -0.5114 -0.1896  0.3400
  124OSM     OF13202   4.604   1.155   6.444  0.1766 -0.4087  0.0734
  124OSM    C2F13203   4.753   1.021   6.565  0.1201 -0.1922  0.1782
  124OSM    H2F13204   4.797   0.968   6.478  0.6757  0.8567 -0.1901
  124OSM    H2G13205   4.761   0.940   6.641  1.1333 -1.7329 -1.4964
  124OSM    C3F13206   4.847   1.144   6.594  0.6809  0.0645 -0.2754
  124OSM    H3F13207   4.825   1.168   6.700  1.1738  1.1855 -0.4091
  124OSM    H3G13208   4.835   1.231   6.525 -1.3603 -0.4733 -0.6430
  124OSM    C4F13209   4.997   1.112   6.588  0.4983 -0.0286  0.4613
  124OSM    H4F13210   5.053   1.201   6.622  1.3221 -0.2270 -0.3429
  124OSM    H4G13211   5.032   1.094   6.484 -0.5021 -1.0017  0.2703
  124OSM    C5F13212   5.042   0.986   6.660 -0.7027  0.4620 -0.2078
  124OSM    H5F13213   5.145   0.953   6.634 -0.8912  0.9191 -1.6265
  124OSM    H5G13214   4.982   0.897   6.633  2.5365 -1.0711 -3.1461
  124OSM    C6F13215   5.061   0.998   6.815 -0.4440 -0.1385 -0.3578
  124OSM    H6F13216   5.079   0.892   6.844 -1.0715 -0.3139 -0.5940
  124OSM    H6G13217   4.972   1.027   6.875  0.5543 -1.1585  1.7115
  124OSM    C7F13218   5.174   1.094   6.864 -0.0240 -0.0388  0.3784
  124OSM    H7F13219   5.176   1.098   6.975 -1.1596 -0.7807  0.4415
  124OSM    H7G13220   5.142   1.195   6.829  2.4615  0.6323 -0.1751
  124OSM    C8F13221   5.319   1.055   6.815 -0.4808 -1.1186  0.3883
  124OSM    H8F13222   5.317   1.064   6.705 -1.2316  1.3207  0.5275
  124OSM    H8G13223   5.324   0.946   6.830  0.2100 -0.8693  2.2266
  124OSM    C9F13224   5.432   1.131   6.876 -0.8893  0.4751 -0.3446
  124OSM    H9F13225   5.412   1.236   6.852 -1.1968 -0.2209 -3.6038
  124OSM   C10F13226   5.535   1.077   6.950  0.9121  0.4171 -0.3123
  124OSM   H10F13227   5.604   1.154   6.986 -0.5670  1.1737  1.0366
  124OSM   C11F13228   5.560   0.928   6.987 -0.0412  0.2253  0.7866
  124OSM   H11F13229   5.670   0.915   6.996 -0.2685 -1.9372  1.1008
  124OSM   H11G13230   5.513   0.865   6.909  0.9484 -0.0489  0.4000
  124OSM   C12F13231   5.490   0.897   7.125  0.3975  0.2421  1.2673
  124OSM   H12F13232   5.522   0.796   7.156  2.1321  0.7271  1.1321
  124OSM   H12G13233   5.379   0.907   7.131  0.4135  0.4152  1.2964
  124OSM   C13F13234   5.546   0.975   7.244  0.0414 -0.2402 -0.1117
  124OSM   H13F13235   5.550   1.083   7.219 -0.3505 -0.8398 -3.0061
  124OSM   H13G13236   5.647   0.937   7.271 -0.8542 -2.6216  0.1390
  124OSM   C14F13237   5.454   0.945   7.368 -0.1763 -0.2760 -0.3837
  124OSM   H14F13238   5.464   0.836   7.389 -0.8116 -0.9116 -2.9653
  124OSM   H14G13239   5.348   0.966   7.342 -1.1449 -2.2641  1.6522
  124OSM   C15F13240   5.496   1.032   7.488  0.4051 -0.4554  1.3445
  124OSM   H15F13241   5.452   1.134   7.485 -0.0870 -0.6345  2.1177
  124OSM   H15G13242   5.606   1.048   7.482 -0.0113  2.5510 -1.2457
  124OSM   C16F13243   5.457   0.967   7.618  1.1823  0.4432 -0.3483
  124OSM   H16F13244   5.524   0.879   7.626  2.3660  1.0472 -2.5923
  124OSM   H16G13245   5.353   0.930   7.600  1.0607 -0.7298  2.3687
  124OSM   C17F13246   5.477   1.057   7.745 -0.1219 -0.6964  0.2453
  124OSM   H17F13247   5.435   1.158   7.731  2.2945  0.2645 -0.6022
  124OSM   H17G13248   5.585   1.082   7.742  0.0094 -1.2625 -2.4696
  124OSM   C18F13249   5.441   0.992   7.874 -0.0476 -0.4962  0.2048
  124OSM   H18F13250   5.337   0.953   7.873  0.6033 -2.3207 -0.4393
  124OSM   H18G13251   5.446   1.045   7.971 -0.2655 -0.6030  0.2769
  124OSM   H18H13252   5.506   0.902   7.883  1.0127  0.2186 -0.1864
  125OSM      N13253   1.350   5.790   6.010 -0.0597  0.1277  0.1355
  125OSM    C1513254   1.280   5.902   5.935  0.2477 -0.1330  0.3483
  125OSM   H15A13255   1.294   5.998   5.983 -0.1127  0.4899 -0.7470
  125OSM   H15B13256   1.172   5.895   5.928  0.0892  1.8067  0.4273
  125OSM   H15C13257   1.331   5.919   5.841  0.1234 -0.5232  0.2093
  125OSM    C1413258   1.275   5.765   6.136 -0.4440 -0.0555  0.0499
  125OSM   H14A13259   1.170   5.746   6.120 -0.3440  0.2707 -1.0672
  125OSM   H14B13260   1.289   5.848   6.203  1.3559  0.3532 -0.7726
  125OSM   H14C13261   1.320   5.682   6.189  1.4273  0.9474  0.0847
  125OSM    C1313262   1.345   5.658   5.931 -0.0052  0.9546 -0.2797
  125OSM   H13A13263   1.405   5.657   5.841 -0.4422 -0.0686 -0.5818
  125OSM   H13B13264   1.240   5.633   5.919 -0.3441  2.3605 -0.4275
  125OSM   H13C13265   1.384   5.587   6.002  0.2002  1.3685  0.0232
  125OSM    C1213266   1.496   5.812   6.017 -0.4269  0.1046 -0.8690
  125OSM   H12A13267   1.537   5.831   5.919  3.7289 -1.3451  0.3755
  125OSM   H12B13268   1.551   5.722   6.042  0.8337  1.4777  1.6948
  125OSM    C1113269   1.557   5.915   6.119 -0.4175 -0.1407 -0.4456
  125OSM   H11A13270   1.527   6.015   6.080 -0.2412  0.7699  1.6334
  125OSM   H11B13271   1.667   5.905   6.120 -0.3394  0.7560  0.1523
  125OSM      P13272   1.565   5.865   6.377 -0.1930  0.0738 -0.0448
  125OSM    O1313273   1.507   5.736   6.412  0.1588  0.1449  0.0910
  125OSM    O1413274   1.710   5.873   6.350  0.0363 -0.4821  0.1059
  125OSM    O1113275   1.532   5.973   6.486 -0.0682 -0.3432 -0.7147
  125OSM    O1213276   1.496   5.916   6.249 -0.0731 -0.7794  0.3978
  125OSM    C1S13277   1.406   6.012   6.524  0.7605  0.1879  0.0297
  125OSM    H1S13278   1.337   5.927   6.507  0.7810  0.6691 -2.9748
  125OSM    H1T13279   1.366   6.087   6.453  2.0279  1.2432  0.3881
  125OSM     NF13280   1.263   6.109   6.690  0.1902 -0.2545  0.5812
  125OSM    HNF13281   1.247   6.206   6.709  2.7333  0.9450 -2.5853
  125OSM    C2S13282   1.397   6.064   6.667  0.0667 -0.0282  0.3859
  125OSM    H2S13283   1.416   5.981   6.738  0.6703  1.5919  2.1869
  125OSM    C3S13284   1.507   6.167   6.694  0.5828  0.2066 -0.4749
  125OSM    H3S13285   1.511   6.254   6.625 -1.9954  1.2045  0.5295
  125OSM     O313286   1.631   6.105   6.679  0.0734  0.1340  0.4247
  125OSM    HO313287   1.619   6.032   6.618  2.1742  0.3423 -0.3493
  125OSM    C4S13288   1.494   6.217   6.832 -0.0892  0.7515 -1.0219
  125OSM    H4S13289   1.461   6.322   6.833 -1.6657  0.3297  1.8979
  125OSM    C5S13290   1.534   6.162   6.956  0.2870 -0.1928 -0.4923
  125OSM    H5S13291   1.591   6.068   6.949  3.3836  1.5288 -0.2534
  125OSM    C6S13292   1.517   6.233   7.087 -0.9575  0.2584 -0.5261
  125OSM    H6S13293   1.421   6.288   7.090 -1.5783 -0.8021 -0.1146
  125OSM    H6T13294   1.595   6.308   7.111 -0.7793 -0.0670 -0.0729
  125OSM    C7S13295   1.498   6.123   7.196 -0.4978  0.5442 -0.1066
  125OSM    H7S13296   1.594   6.067   7.197 -0.2586  0.9495  0.1016
  125OSM    H7T13297   1.411   6.055   7.180 -0.3998  0.3738  0.0840
  125OSM    C8S13298   1.479   6.166   7.338  0.4088 -0.4456 -0.5690
  125OSM    H8S13299   1.371   6.191   7.354 -0.6290 -4.2864 -0.7098
  125OSM    H8T13300   1.543   6.256   7.352  2.0879 -1.7284  0.3857
  125OSM    C9S13301   1.516   6.052   7.435 -1.3272  0.0145  0.0245
  125OSM    H9S13302   1.625   6.030   7.434 -1.3611 -0.1771  0.3301
  125OSM    H9T13303   1.468   5.955   7.409 -2.0365 -0.2258  2.0223
  125OSM   C10S13304   1.474   6.081   7.582  0.0973 -0.3455  0.4658
  125OSM   H10S13305   1.364   6.084   7.574  0.1667 -1.4991 -1.3717
  125OSM   H10T13306   1.514   6.172   7.633 -1.5966  1.1342 -0.7532
  125OSM   C11S13307   1.502   5.956   7.672 -0.1573 -0.2728  0.6621
  125OSM   H11S13308   1.441   5.875   7.626  0.9633  0.5335 -2.5056
  125OSM   H11T13309   1.456   5.975   7.771 -2.8267  0.0566 -0.5532
  125OSM   C12S13310   1.653   5.912   7.672  0.3953  0.1364 -0.4048
  125OSM   H12S13311   1.698   6.006   7.633 -1.1417  0.7081 -0.8931
  125OSM   H12T13312   1.684   5.827   7.608  2.2410  0.0903  0.5046
  125OSM   C13S13313   1.696   5.895   7.818  0.3397  0.3193  0.0389
  125OSM   H13S13314   1.672   5.987   7.876 -2.0884 -1.3042  1.8401
  125OSM   H13T13315   1.805   5.874   7.815  0.2504 -0.2033  0.2756
  125OSM   C14S13316   1.631   5.778   7.889 -0.1328 -0.0554  0.1484
  125OSM   H14S13317   1.689   5.694   7.846  1.3533  2.3094 -2.9351
  125OSM   H14T13318   1.527   5.762   7.854 -0.7864 -2.2976  2.8028
  125OSM   C15S13319   1.624   5.782   8.043 -0.1015 -0.2097  0.2404
  125OSM   H15S13320   1.717   5.837   8.071  0.7368 -1.2282 -0.4534
  125OSM   H15T13321   1.638   5.676   8.075  2.5854 -0.0509 -0.1921
  125OSM   C16S13322   1.502   5.854   8.101  0.6893 -0.0383  0.0364
  125OSM   H16S13323   1.405   5.820   8.058 -0.0022 -0.0245  1.5467
  125OSM   H16T13324   1.527   5.962   8.088 -0.4652  0.1551 -0.8131
  125OSM   C17S13325   1.475   5.824   8.254 -0.1847 -0.2346  0.3610
  125OSM   H17S13326   1.564   5.862   8.309 -2.3999  0.0935  4.0980
  125OSM   H17T13327   1.476   5.714   8.271  0.8791 -0.2002  0.6054
  125OSM   C18S13328   1.355   5.886   8.314  0.7051 -0.8108  0.3024
  125OSM   H18S13329   1.262   5.841   8.271  0.8794  0.1369 -1.1466
  125OSM   H18T13330   1.334   5.991   8.285 -2.3510 -1.8856 -1.9393
  125OSM   H18U13331   1.344   5.884   8.424 -0.3786  2.0039  0.3250
  125OSM    C1F13332   1.158   6.026   6.702  0.2322 -0.0723  0.5763
  125OSM     OF13333   1.172   5.911   6.661  0.3253 -0.1380  0.0657
  125OSM    C2F13334   1.041   6.071   6.780 -0.3427  0.7815 -1.0101
  125OSM    H2F13335   0.977   5.981   6.788  0.4940  0.1183 -1.7159
  125OSM    H2G13336   0.986   6.148   6.721 -0.1181  1.1607 -0.7349
  125OSM    C3F13337   1.083   6.133   6.917 -0.2360 -0.0121  0.1654
  125OSM    H3F13338   1.132   6.227   6.886  0.8935 -0.8249 -0.5854
  125OSM    H3G13339   1.155   6.061   6.961 -0.7879 -1.6705 -1.4897
  125OSM    C4F13340   0.956   6.155   7.004  0.5329 -0.2064 -0.5356
  125OSM    H4F13341   0.920   6.054   7.033  2.3693 -1.0119 -0.8627
  125OSM    H4G13342   0.877   6.210   6.949 -0.8886 -0.6842  0.9619
  125OSM    C5F13343   0.982   6.218   7.141 -0.3355 -0.1717  0.4774
  125OSM    H5F13344   1.058   6.158   7.196 -1.3733  0.7642  3.1398
  125OSM    H5G13345   0.890   6.199   7.201 -1.1196 -0.2116 -0.7024
  125OSM    C6F13346   1.013   6.371   7.144 -0.5434  0.1289 -0.6934
  125OSM    H6F13347   0.928   6.432   7.107 -1.9121 -1.2506  0.0780
  125OSM    H6G13348   1.101   6.394   7.080  0.3304  0.8843  0.7044
  125OSM    C7F13349   1.043   6.422   7.292 -1.2114  0.2215 -0.5796
  125OSM    H7F13350   1.097   6.518   7.278  2.8704 -1.5110  1.4411
  125OSM    H7G13351   1.116   6.351   7.338  1.1734  2.1275 -1.2037
  125OSM    C8F13352   0.917   6.451   7.367  0.2006  0.1770 -0.2037
  125OSM    H8F13353   0.849   6.364   7.375  0.3457 -0.0079 -0.8976
  125OSM    H8G13354   0.869   6.534   7.312  4.0187  3.0808  0.4026
  125OSM    C9F13355   0.953   6.494   7.507  0.3979 -0.1518  0.4849
  125OSM    H9F13356   0.955   6.604   7.510 -2.6419  0.0238 -0.7606
  125OSM   C10F13357   0.964   6.421   7.621  0.8384 -1.0566 -0.2461
  125OSM   H10F13358   0.965   6.473   7.718 -3.7751  1.2858 -1.1863
  125OSM   C11F13359   0.937   6.275   7.628 -0.0306 -0.7207 -0.2184
  125OSM   H11F13360   1.013   6.224   7.691 -1.3398  0.9153  2.9110
  125OSM   H11G13361   0.971   6.235   7.530 -0.1138  1.7422 -1.3373
  125OSM   C12F13362   0.802   6.212   7.654 -0.7857  0.2307  0.8301
  125OSM   H12F13363   0.809   6.114   7.601 -0.8985  1.0765 -0.8203
  125OSM   H12G13364   0.733   6.280   7.600 -0.8199 -1.5620 -1.5629
  125OSM   C13F13365   0.756   6.210   7.798 -0.4786  0.6208  0.4184
  125OSM   H13F13366   0.807   6.131   7.856  0.1521  0.9511  0.3252
  125OSM   H13G13367   0.648   6.186   7.786  0.2219 -1.3426 -3.8273
  125OSM   C14F13368   0.771   6.344   7.868 -0.6245 -0.5630  0.2321
  125OSM   H14F13369   0.740   6.426   7.800 -0.6704 -1.1618 -0.4866
  125OSM   H14G13370   0.879   6.360   7.888 -0.4419 -0.6095 -0.6993
  125OSM   C15F13371   0.689   6.350   7.995 -0.2061  0.4767  0.0755
  125OSM   H15F13372   0.579   6.335   7.991  0.0403 -1.8573  0.7509
  125OSM   H15G13373   0.690   6.456   8.031 -0.6430 -0.2122  2.2952
  125OSM   C16F13374   0.739   6.263   8.113  0.4241  1.0629  0.3884
  125OSM   H16F13375   0.850   6.270   8.119  0.4710  1.7469 -1.0741
  125OSM   H16G13376   0.712   6.159   8.084 -0.7766  1.6268 -0.5980
  125OSM   C17F13377   0.672   6.303   8.247  0.3506  0.6801  1.0233
  125OSM   H17F13378   0.563   6.285   8.257 -0.5649  3.9603 -1.4960
  125OSM   H17G13379   0.690   6.412   8.260 -1.1981  1.1431 -0.4076
  125OSM   C18F13380   0.738   6.223   8.356  0.5172  0.2290  0.5712
  125OSM   H18F13381   0.837   6.270   8.370  0.8847 -0.1140 -0.7115
  125OSM   H18G13382   0.740   6.114   8.332 -0.4214  0.5495 -1.1856
  125OSM   H18H13383   0.694   6.238   8.457  0.7366  1.2960  0.5123
  126OSM      N13384   4.279   4.481   6.385  0.0341  0.4952 -0.5256
  126OSM    C1513385   4.366   4.564   6.298  0.5552  0.1247  0.4236
  126OSM   H15A13386   4.347   4.669   6.318 -0.2367  0.0046  0.3363
  126OSM   H15B13387   4.354   4.533   6.195 -0.8389 -1.1354  0.9361
  126OSM   H15C13388   4.468   4.532   6.314  0.8187 -0.3047 -1.7705
  126OSM    C1413389   4.300   4.511   6.529  0.6991  0.9123 -0.5269
  126OSM   H14A13390   4.236   4.441   6.580  0.3380  0.9364 -0.9483
  126OSM   H14B13391   4.265   4.608   6.562 -1.4239  0.1646 -0.4253
  126OSM   H14C13392   4.399   4.491   6.568  0.0832  1.8252  1.6835
  126OSM    C1313393   4.138   4.498   6.356  0.8589 -0.2730 -1.0174
  126OSM   H13A13394   4.090   4.431   6.287 -0.9497 -0.3651  0.2568
  126OSM   H13B13395   4.126   4.596   6.313  1.1674  0.1804 -0.1062
  126OSM   H13C13396   4.067   4.502   6.437  0.4588  0.3467 -1.3899
  126OSM    C1213397   4.311   4.334   6.359 -0.1711  0.4052  0.2760
  126OSM   H12A13398   4.419   4.327   6.363 -0.2761 -1.3216  1.5926
  126OSM   H12B13399   4.298   4.317   6.253 -0.1675 -3.2884  0.7132
  126OSM    C1113400   4.236   4.218   6.429 -0.3436 -0.2462  0.3758
  126OSM   H11A13401   4.248   4.125   6.368  1.6238  1.4198 -2.0008
  126OSM   H11B13402   4.130   4.248   6.440 -0.7165 -1.3572 -0.0259
  126OSM      P13403   4.378   4.083   6.615  0.0785  0.8666  0.5535
  126OSM    O1313404   4.302   3.955   6.605  0.3171  0.4840 -0.6030
  126OSM    O1413405   4.510   4.083   6.551  0.1035  0.0632 -0.1236
  126OSM    O1113406   4.385   4.128   6.766 -0.5388 -0.2200  0.4391
  126OSM    O1213407   4.287   4.205   6.563  0.0406  0.3076  0.5144
  126OSM    C1S13408   4.441   4.027   6.856  0.4763 -0.1052 -0.1326
  126OSM    H1S13409   4.552   4.022   6.855  0.4821 -1.8254  2.1870
  126OSM    H1T13410   4.405   3.922   6.846 -1.9715  0.4930  1.5765
  126OSM     NF13411   4.505   3.999   7.090 -0.3164  0.2788 -0.2402
  126OSM    HNF13412   4.464   3.919   7.133  0.5790 -0.0465  0.0402
  126OSM    C2S13413   4.413   4.072   7.005 -0.0850 -0.0465  0.2647
  126OSM    H2S13414   4.431   4.181   7.005 -0.4532  0.0144  0.2642
  126OSM    C3S13415   4.269   4.039   7.039 -0.3797 -0.0665 -1.1616
  126OSM    H3S13416   4.254   3.929   7.041 -0.1747 -0.0837 -0.2952
  126OSM     O313417   4.171   4.089   6.947 -0.0397  0.3842  0.3162
  126OSM    HO313418   4.216   4.056   6.869 -1.4451 -0.7811 -0.0538
  126OSM    C4S13419   4.243   4.096   7.178  0.2167 -0.4347 -0.4216
  126OSM    H4S13420   4.273   4.027   7.259 -0.8575  0.8769  1.1565
  126OSM    C5S13421   4.198   4.214   7.222 -0.0193 -0.4066 -0.1510
  126OSM    H5S13422   4.194   4.296   7.149  0.5684  0.7647  1.0937
  126OSM    C6S13423   4.175   4.245   7.367 -0.1992 -0.5155 -0.1504
  126OSM    H6S13424   4.232   4.338   7.393  1.9493 -1.5267 -0.9710
  126OSM    H6T13425   4.202   4.166   7.440  2.2109  0.9028  0.6464
  126OSM    C7S13426   4.019   4.271   7.382  0.3006  0.0849 -0.5333
  126OSM    H7S13427   3.970   4.174   7.357  2.4009 -1.2426  0.1775
  126OSM    H7T13428   3.988   4.356   7.318 -0.8142 -0.8582 -1.2900
  126OSM    C8S13429   3.989   4.294   7.526  0.5016  0.3950 -0.1211
  126OSM    H8S13430   4.051   4.381   7.560 -1.8575  1.5471  1.5674
  126OSM    H8T13431   4.026   4.209   7.587 -0.1706  1.1131  1.3416
  126OSM    C9S13432   3.836   4.335   7.562  0.3645 -0.2043  0.1144
  126OSM    H9S13433   3.763   4.255   7.536  0.4774 -0.8901  1.7616
  126OSM    H9T13434   3.820   4.417   7.489  1.1323 -2.4352 -2.7211
  126OSM   C10S13435   3.818   4.374   7.710  0.1969 -0.4538 -0.2226
  126OSM   H10S13436   3.882   4.463   7.723 -0.2763 -0.4731  2.9304
  126OSM   H10T13437   3.839   4.283   7.770 -1.4980 -2.0328 -1.8651
  126OSM   C11S13438   3.674   4.419   7.733  0.1811 -0.3341  0.3886
  126OSM   H11S13439   3.604   4.353   7.677 -0.7749 -0.6498  1.8820
  126OSM   H11T13440   3.651   4.521   7.697  1.1169  0.0568  0.8761
  126OSM   C12S13441   3.634   4.404   7.880 -0.8837  0.0764  0.7527
  126OSM   H12S13442   3.715   4.447   7.943 -0.3742  0.6687 -0.2834
  126OSM   H12T13443   3.631   4.296   7.905  0.4184 -0.0169  0.5703
  126OSM   C13S13444   3.495   4.469   7.918  0.0649  0.7498  0.5243
  126OSM   H13S13445   3.427   4.433   7.837  0.3904 -0.9674  0.9776
  126OSM   H13T13446   3.511   4.579   7.910  0.7511  0.5495 -1.3869
  126OSM   C14S13447   3.431   4.428   8.054  0.4184  0.2797 -1.0886
  126OSM   H14S13448   3.444   4.319   8.072 -0.1656  0.4648  0.6692
  126OSM   H14T13449   3.321   4.443   8.052  0.5343  1.7656  0.7253
  126OSM   C15S13450   3.485   4.509   8.183  0.6468  0.3389  0.5904
  126OSM   H15S13451   3.458   4.615   8.166  1.4316  0.4340 -0.1430
  126OSM   H15T13452   3.594   4.494   8.170  0.3737  0.1601 -1.9000
  126OSM   C16S13453   3.438   4.459   8.323  0.0005  0.0036 -0.3509
  126OSM   H16S13454   3.431   4.349   8.335 -2.7621  0.1556 -0.0338
  126OSM   H16T13455   3.335   4.497   8.337 -0.5667 -1.3204 -0.8221
  126OSM   C17S13456   3.526   4.506   8.442  0.5114  0.5364  0.4594
  126OSM   H17S13457   3.630   4.474   8.419  1.3005  1.2012  2.7930
  126OSM   H17T13458   3.495   4.459   8.538  0.7234 -2.9832 -1.0224
  126OSM   C18S13459   3.532   4.656   8.469  0.2750 -0.4865 -0.3598
  126OSM   H18S13460   3.435   4.709   8.462  1.3475  1.3983 -3.5966
  126OSM   H18T13461   3.588   4.705   8.386 -2.8776  1.5764 -1.4390
  126OSM   H18U13462   3.583   4.677   8.566 -0.3991 -1.3418  0.1920
  126OSM    C1F13463   4.630   4.033   7.111  0.8204  0.3111 -0.1866
  126OSM     OF13464   4.677   4.142   7.076  0.0826  0.4842  0.6433
  126OSM    C2F13465   4.715   3.927   7.176 -0.2592  0.1752  0.8145
  126OSM    H2F13466   4.776   3.891   7.091 -0.6244 -2.9132  1.7390
  126OSM    H2G13467   4.646   3.845   7.207 -0.8061  0.5040  0.4728
  126OSM    C3F13468   4.811   3.959   7.294  0.4192  0.3766 -0.1675
  126OSM    H3F13469   4.910   3.997   7.263  1.0555 -0.1211  1.1919
  126OSM    H3G13470   4.820   3.864   7.351 -1.3419  0.6232  0.6027
  126OSM    C4F13471   4.751   4.053   7.395 -0.3204  0.0668 -0.8173
  126OSM    H4F13472   4.650   4.023   7.432 -0.4222  2.6955  1.3619
  126OSM    H4G13473   4.739   4.143   7.331  2.3638 -0.3858 -2.1028
  126OSM    C5F13474   4.846   4.068   7.515  0.4462 -1.2323 -0.2495
  126OSM    H5F13475   4.822   4.164   7.565 -1.1914 -1.9952  0.5157
  126OSM    H5G13476   4.952   4.076   7.485  0.0429  2.5899 -1.1495
  126OSM    C6F13477   4.833   3.968   7.633 -0.6815 -0.0807 -0.0634
  126OSM    H6F13478   4.869   3.870   7.595  1.0278  0.4388  0.1663
  126OSM    H6G13479   4.729   3.940   7.662 -0.5453 -0.7923 -0.2403
  126OSM    C7F13480   4.901   4.012   7.765 -0.2072  0.1829  1.3793
  126OSM    H7F13481   4.846   4.102   7.801 -0.0250  1.2050 -0.7801
  126OSM    H7G13482   5.006   4.047   7.759 -0.0437 -0.5222 -2.9375
  126OSM    C8F13483   4.895   3.899   7.868 -0.2608 -0.5364 -0.3911
  126OSM    H8F13484   4.972   3.931   7.942  0.3418 -0.1793 -1.1610
  126OSM    H8G13485   4.940   3.805   7.829  2.1652  0.4424 -0.1659
  126OSM    C9F13486   4.768   3.879   7.941  1.5257  0.1147 -0.5567
  126OSM    H9F13487   4.691   3.849   7.868 -0.0437  0.2498  0.9801
  126OSM   C10F13488   4.741   3.879   8.070 -0.1711 -0.0006 -0.2262
  126OSM   H10F13489   4.637   3.864   8.103  0.3300 -0.8405  1.0530
  126OSM   C11F13490   4.843   3.903   8.183 -0.0778  0.2616 -0.6912
  126OSM   H11F13491   4.802   3.981   8.251 -1.2392  1.0964 -2.2652
  126OSM   H11G13492   4.939   3.951   8.157  0.5789  0.3832  1.7372
  126OSM   C12F13493   4.894   3.772   8.247  0.1985 -0.4208 -0.2978
  126OSM   H12F13494   4.972   3.804   8.319 -0.0949 -0.0763 -0.1273
  126OSM   H12G13495   4.950   3.714   8.171 -0.5102 -1.0143 -0.3833
  126OSM   C13F13496   4.779   3.687   8.315  0.5509 -0.8209 -0.3816
  126OSM   H13F13497   4.824   3.604   8.374  3.1176 -0.0590 -1.1302
  126OSM   H13G13498   4.715   3.638   8.239  0.3350 -2.8316  1.0178
  126OSM   C14F13499   4.670   3.760   8.394 -0.1910 -0.4036 -0.1927
  126OSM   H14F13500   4.583   3.697   8.422 -2.4477  0.4896 -4.4134
  126OSM   H14G13501   4.623   3.832   8.324  0.0961  1.2899  1.2781
  126OSM   C15F13502   4.726   3.843   8.513  0.0165  0.1276 -0.4221
  126OSM   H15F13503   4.803   3.913   8.472  3.7294 -1.9154  2.4159
  126OSM   H15G13504   4.781   3.773   8.579 -1.4142 -1.2633 -0.6490
  126OSM   C16F13505   4.619   3.932   8.584 -0.2335  0.5192 -0.6089
  126OSM   H16F13506   4.574   3.997   8.506 -2.4892  0.6868  0.7380
  126OSM   H16G13507   4.675   4.007   8.644  0.8677 -0.7169 -0.0545
  126OSM   C17F13508   4.513   3.861   8.657  0.4573  0.8153 -0.5120
  126OSM   H17F13509   4.458   3.800   8.582  0.0683 -0.4262  0.7491
  126OSM   H17G13510   4.436   3.931   8.695  1.2958  1.0352  0.8418
  126OSM   C18F13511   4.571   3.778   8.767 -0.2221 -0.1989 -0.6415
  126OSM   H18F13512   4.651   3.705   8.743 -1.3961 -1.3632 -1.0681
  126OSM   H18G13513   4.493   3.711   8.806 -1.7785  1.3926 -0.8859
  126OSM   H18H13514   4.620   3.845   8.841  1.0391 -0.1624 -1.4694
  127OSM      N13515   2.297   6.233   6.164  0.2839  0.0860 -0.0074
  127OSM    C1513516   2.167   6.208   6.099 -0.1655  0.0982 -0.8273
  127OSM   H15A13517   2.161   6.263   6.006 -1.0698  2.4801  0.5592
  127OSM   H15B13518   2.084   6.233   6.163  0.8491 -0.1649  0.6234
  127OSM   H15C13519   2.154   6.104   6.072 -2.8121  0.8804 -3.0510
  127OSM    C1413520   2.334   6.378   6.172  0.2992 -0.4977 -0.0815
  127OSM   H14A13521   2.265   6.422   6.242  3.0542 -0.8992  3.1246
  127OSM   H14B13522   2.340   6.431   6.078  1.2970 -0.6788 -0.1264
  127OSM   H14C13523   2.431   6.388   6.218  0.1116  2.4649 -0.1591
  127OSM    C1313524   2.290   6.166   6.300 -0.0160 -0.1264 -0.6049
  127OSM   H13A13525   2.264   6.062   6.290 -1.2724 -0.0509  1.4132
  127OSM   H13B13526   2.214   6.209   6.364 -1.5887 -3.3752 -0.0748
  127OSM   H13C13527   2.390   6.178   6.339  0.1165 -0.8902 -0.6916
  127OSM    C1213528   2.408   6.167   6.083  0.0482 -0.3985 -0.0985
  127OSM   H12A13529   2.399   6.209   5.984 -1.0858  0.7542  0.4519
  127OSM   H12B13530   2.390   6.061   6.085 -0.8922 -0.3098 -2.2359
  127OSM    C1113531   2.556   6.182   6.122  0.9920 -0.3100  0.2522
  127OSM   H11A13532   2.597   6.283   6.103 -0.6157  0.1672 -0.9564
  127OSM   H11B13533   2.602   6.102   6.060 -0.7089 -0.6694 -0.6092
  127OSM      P13534   2.728   6.128   6.310 -0.4351 -0.0763 -0.1537
  127OSM    O1313535   2.775   5.995   6.258  0.8594 -0.5027 -0.1122
  127OSM    O1413536   2.802   6.253   6.280  0.3379  0.4924  0.7702
  127OSM    O1113537   2.713   6.116   6.468  0.2014 -0.4231  0.0773
  127OSM    O1213538   2.575   6.145   6.259 -0.0200  0.1204  0.0824
  127OSM    C1S13539   2.623   6.210   6.529 -0.1940  0.0663 -0.0466
  127OSM    H1S13540   2.524   6.163   6.541  0.5071 -1.1304  1.3404
  127OSM    H1T13541   2.610   6.300   6.464  1.5835  0.4988  0.1245
  127OSM     NF13542   2.600   6.329   6.757 -0.4060 -0.8069 -0.5540
  127OSM    HNF13543   2.621   6.427   6.757  0.8889 -1.0470 -1.3601
  127OSM    C2S13544   2.683   6.246   6.671 -0.5975 -0.5646 -0.4497
  127OSM    H2S13545   2.686   6.155   6.735 -0.2198 -0.5463 -0.4366
  127OSM    C3S13546   2.824   6.308   6.659 -0.4624  1.1310 -0.6489
  127OSM    H3S13547   2.815   6.403   6.602  0.1628  1.1757 -0.6772
  127OSM     O313548   2.922   6.229   6.592  0.0133  0.3679 -0.3209
  127OSM    HO313549   2.873   6.174   6.531  1.5824  1.7663 -3.0321
  127OSM    C4S13550   2.882   6.335   6.792 -0.0885  0.2268  0.0014
  127OSM    H4S13551   2.882   6.253   6.865  1.4147 -0.2134 -0.4718
  127OSM    C5S13552   2.911   6.456   6.838  0.1046  0.0966  0.2999
  127OSM    H5S13553   2.881   6.543   6.778  0.9177 -0.5359 -1.0907
  127OSM    C6S13554   2.964   6.491   6.969  0.4748  0.0571 -0.2875
  127OSM    H6S13555   3.009   6.593   6.980 -2.8552  1.5040  1.1513
  127OSM    H6T13556   3.046   6.417   6.981  1.0143  0.5850 -0.6387
  127OSM    C7S13557   2.860   6.483   7.083  0.2410 -0.2221 -0.7837
  127OSM    H7S13558   2.804   6.387   7.084  0.5897 -0.5353  3.0410
  127OSM    H7T13559   2.791   6.567   7.061  2.5591  2.6982  2.0764
  127OSM    C8S13560   2.921   6.513   7.232 -0.1955  0.5163 -0.0002
  127OSM    H8S13561   2.993   6.596   7.216 -0.7819  0.7003 -1.9056
  127OSM    H8T13562   2.970   6.413   7.238 -0.8426  0.2308  0.6763
  127OSM    C9S13563   2.818   6.536   7.346 -0.1804 -0.2185  1.0546
  127OSM    H9S13564   2.735   6.463   7.331 -0.2903 -0.0315  0.7419
  127OSM    H9T13565   2.776   6.638   7.339 -1.7978 -0.9078 -0.0188
  127OSM   C10S13566   2.887   6.528   7.477  0.4152 -0.3512 -0.1646
  127OSM   H10S13567   2.973   6.600   7.478  1.9576 -2.1185  1.8018
  127OSM   H10T13568   2.940   6.431   7.481  0.7476 -0.1777 -0.2471
  127OSM   C11S13569   2.791   6.555   7.594  0.5517 -0.3537 -0.3751
  127OSM   H11S13570   2.702   6.489   7.593 -0.4788  0.9796 -1.5971
  127OSM   H11T13571   2.743   6.655   7.596  0.9536 -0.1614 -0.2248
  127OSM   C12S13572   2.856   6.543   7.739  0.4708  0.4564  0.5958
  127OSM   H12S13573   2.938   6.616   7.760  0.7633  0.1159  0.6368
  127OSM   H12T13574   2.907   6.445   7.749 -0.8653 -0.1162  2.2463
  127OSM   C13S13575   2.753   6.553   7.849  0.2350  0.6463 -0.0433
  127OSM   H13S13576   2.669   6.480   7.856  1.8464 -1.2487  0.6124
  127OSM   H13T13577   2.703   6.652   7.847 -1.9796 -0.4043 -0.4218
  127OSM   C14S13578   2.810   6.518   7.983 -0.3899 -0.2077  0.4113
  127OSM   H14S13579   2.895   6.590   7.992  0.3985 -0.9936 -0.5410
  127OSM   H14T13580   2.846   6.414   7.975  1.2623  0.3880 -0.3205
  127OSM   C15S13581   2.709   6.528   8.101 -0.1977  0.2701 -0.1936
  127OSM   H15S13582   2.643   6.438   8.102 -0.5848  0.5125 -1.4573
  127OSM   H15T13583   2.637   6.612   8.088 -2.7609 -1.5643  1.2401
  127OSM   C16S13584   2.779   6.539   8.237 -0.0162 -0.3042 -1.1975
  127OSM   H16S13585   2.846   6.627   8.232 -0.9293  0.5698  0.8154
  127OSM   H16T13586   2.846   6.454   8.261  0.3770 -0.8953 -4.0405
  127OSM   C17S13587   2.682   6.568   8.355  0.5620 -0.1927 -0.1324
  127OSM   H17S13588   2.744   6.571   8.447  1.1509 -1.4603 -0.4674
  127OSM   H17T13589   2.612   6.481   8.355  1.6348 -1.1228 -2.1854
  127OSM   C18S13590   2.599   6.699   8.338 -0.1467  0.2187  0.0302
  127OSM   H18S13591   2.526   6.699   8.255  0.0343 -2.4714 -0.2317
  127OSM   H18T13592   2.670   6.784   8.335  0.2963 -0.0829  1.1826
  127OSM   H18U13593   2.535   6.706   8.429  2.2269  0.7397  1.7635
  127OSM    C1F13594   2.475   6.290   6.792  0.5808  0.0816  0.2159
  127OSM     OF13595   2.442   6.174   6.768  0.1368  0.1452 -0.5915
  127OSM    C2F13596   2.370   6.396   6.824  0.1733  0.5617 -0.1903
  127OSM    H2F13597   2.317   6.422   6.730 -0.2812  0.3097 -0.0041
  127OSM    H2G13598   2.415   6.484   6.874  1.6846 -0.5316  0.4846
  127OSM    C3F13599   2.265   6.331   6.922  0.5734  0.6958  0.2867
  127OSM    H3F13600   2.220   6.246   6.867 -1.2546  0.5444  1.8935
  127OSM    H3G13601   2.178   6.394   6.951  0.9453  0.4996  1.9467
  127OSM    C4F13602   2.326   6.276   7.056  1.3304  0.1341  0.2315
  127OSM    H4F13603   2.392   6.189   7.035 -0.0136 -1.6185  2.7352
  127OSM    H4G13604   2.237   6.247   7.115  0.2642  2.9422  0.1636
  127OSM    C5F13605   2.403   6.384   7.137  0.5337  0.1697  0.1145
  127OSM    H5F13606   2.328   6.454   7.179  1.3538  2.8328 -2.4968
  127OSM    H5G13607   2.451   6.441   7.055  0.0264 -0.1506 -0.4073
  127OSM    C6F13608   2.491   6.326   7.254 -0.4883 -0.0802 -0.3434
  127OSM    H6F13609   2.541   6.412   7.303  1.0587 -1.6913  1.0633
  127OSM    H6G13610   2.575   6.263   7.217 -0.5467 -1.9307  2.3790
  127OSM    C7F13611   2.404   6.263   7.364  0.3645  0.5981  0.2087
  127OSM    H7F13612   2.353   6.170   7.329 -2.3270  1.8324  0.5999
  127OSM    H7G13613   2.321   6.335   7.380  0.7908  0.7929  1.6745
  127OSM    C8F13614   2.473   6.230   7.499 -1.0799 -0.2043  0.1608
  127OSM    H8F13615   2.545   6.312   7.520 -0.2225 -0.3409 -1.9383
  127OSM    H8G13616   2.530   6.135   7.484 -2.2675 -1.1476  1.3539
  127OSM    C9F13617   2.384   6.221   7.617  0.7163 -0.7012 -0.8685
  127OSM    H9F13618   2.286   6.270   7.624  1.0459 -0.1687  0.3405
  127OSM   C10F13619   2.425   6.165   7.736 -0.0089  0.5923  1.0053
  127OSM   H10F13620   2.354   6.141   7.817  1.2259 -0.9966  1.6789
  127OSM   C11F13621   2.563   6.109   7.756  0.0696 -0.5540  0.3540
  127OSM   H11F13622   2.641   6.169   7.705 -0.5304  0.9669  1.1784
  127OSM   H11G13623   2.566   6.002   7.727  2.4600 -0.6433  0.7164
  127OSM   C12F13624   2.610   6.119   7.906 -0.1040 -0.0813  0.5905
  127OSM   H12F13625   2.527   6.079   7.969  0.0824 -1.2826  0.1107
  127OSM   H12G13626   2.632   6.226   7.922  2.4424 -0.9014  3.7777
  127OSM   C13F13627   2.736   6.037   7.941 -0.0909 -0.8809 -0.1960
  127OSM   H13F13628   2.810   6.085   7.874  0.4614  0.6667  1.4552
  127OSM   H13G13629   2.713   5.931   7.917 -0.0939 -1.0360  0.4686
  127OSM   C14F13630   2.777   6.050   8.089 -1.0523  0.2288 -1.2879
  127OSM   H14F13631   2.697   5.998   8.146 -1.6023  2.9004  0.5427
  127OSM   H14G13632   2.787   6.159   8.107  0.5942 -0.2127  0.8457
  127OSM   C15F13633   2.919   5.989   8.106  0.2122 -0.7540  0.0380
  127OSM   H15F13634   2.988   6.041   8.035 -0.0564  0.1630  0.4409
  127OSM   H15G13635   2.909   5.884   8.071 -1.6599 -0.5558 -0.1179
  127OSM   C16F13636   2.989   5.987   8.246  0.5248 -0.0758 -0.3081
  127OSM   H16F13637   2.962   6.089   8.282  0.3025  0.1143 -1.0160
  127OSM   H16G13638   3.098   5.978   8.225  0.7721  0.6706  0.5468
  127OSM   C17F13639   2.924   5.885   8.338 -0.6502  0.0661 -0.4171
  127OSM   H17F13640   2.972   5.787   8.319 -1.6245 -0.5411  0.2261
  127OSM   H17G13641   2.815   5.876   8.320 -0.2118  0.2411 -3.8621
  127OSM   C18F13642   2.944   5.928   8.485  0.1005  0.3596 -0.6372
  127OSM   H18F13643   3.053   5.942   8.503 -0.1226 -0.1171  1.2410
  127OSM   H18G13644   2.905   5.857   8.561 -0.6217  0.8211 -0.5633
  127OSM   H18H13645   2.908   6.032   8.501 -0.1989  0.2808 -0.7888
  128OSM      N13646   2.639   2.601   5.879 -0.2517 -0.7209 -0.1420
  128OSM    C1513647   2.579   2.460   5.875 -0.2886  0.8786  0.9013
  128OSM   H15A13648   2.475   2.466   5.904 -1.1312  1.1855 -1.8610
  128OSM   H15B13649   2.632   2.391   5.939 -0.9927  0.0134  0.5778
  128OSM   H15C13650   2.587   2.409   5.780 -1.0169  0.6878  0.9338
  128OSM    C1413651   2.767   2.593   5.788  0.2096 -0.4438  0.2148
  128OSM   H14A13652   2.738   2.560   5.689  1.4634  1.2688 -0.7930
  128OSM   H14B13653   2.839   2.516   5.814 -0.9175 -2.4928 -2.2688
  128OSM   H14C13654   2.815   2.690   5.792  0.2689 -0.4144 -0.8093
  128OSM    C1313655   2.548   2.687   5.810 -0.2129  0.3115 -0.3411
  128OSM   H13A13656   2.569   2.793   5.808  0.1487  0.2371 -0.8436
  128OSM   H13B13657   2.454   2.687   5.864  1.7750 -0.3319  3.4195
  128OSM   H13C13658   2.527   2.652   5.710  0.8154 -1.4589  0.0287
  128OSM    C1213659   2.672   2.645   6.022 -0.8808 -0.6902 -0.0200
  128OSM   H12A13660   2.581   2.664   6.077  0.7773 -0.4967  2.8443
  128OSM   H12B13661   2.717   2.742   6.010 -1.9127 -0.3918 -1.8422
  128OSM    C1113662   2.755   2.549   6.114  0.5402 -0.4445  0.0417
  128OSM   H11A13663   2.707   2.449   6.109  1.2501 -0.7684 -0.3590
  128OSM   H11B13664   2.719   2.588   6.212  0.1137 -0.3583 -0.1444
  128OSM      P13665   2.986   2.660   6.112 -0.0904  0.3500  0.2384
  128OSM    O1313666   3.116   2.603   6.158  0.2152 -0.4744 -0.4569
  128OSM    O1413667   2.997   2.737   5.985 -0.0436  0.6193 -0.6522
  128OSM    O1113668   2.920   2.743   6.223  0.0639  0.1642  0.9152
  128OSM    O1213669   2.892   2.538   6.095 -0.1093  0.6299 -0.5507
  128OSM    C1S13670   2.905   2.702   6.359 -0.6694  0.3094 -0.3795
  128OSM    H1S13671   2.998   2.652   6.393  0.1523  1.8369 -0.2931
  128OSM    H1T13672   2.816   2.637   6.376  0.1868 -0.7393  0.2551
  128OSM     NF13673   2.928   2.807   6.589 -0.3112  0.1813  0.3224
  128OSM    HNF13674   2.857   2.812   6.659  0.2478  0.6531  0.8635
  128OSM    C2S13675   2.892   2.830   6.449  0.2073 -0.4757 -0.0972
  128OSM    H2S13676   2.969   2.902   6.414 -0.4512 -1.4305 -3.8915
  128OSM    C3S13677   2.747   2.893   6.427 -0.2014  0.3020 -0.0817
  128OSM    H3S13678   2.669   2.840   6.485 -1.1676  0.4291 -1.2188
  128OSM     O313679   2.697   2.878   6.292  0.3820 -0.0681 -0.0779
  128OSM    HO313680   2.773   2.831   6.257  1.0426 -1.5547  3.0466
  128OSM    C4S13681   2.744   3.035   6.477  0.2532 -0.3898  0.1186
  128OSM    H4S13682   2.698   3.051   6.576  4.7132 -0.8191  2.4905
  128OSM    C5S13683   2.794   3.144   6.410 -0.2293  0.1214 -0.1344
  128OSM    H5S13684   2.828   3.132   6.306 -2.3243 -0.3211 -0.8065
  128OSM    C6S13685   2.793   3.292   6.453 -0.2313  0.2353 -0.4886
  128OSM    H6S13686   2.705   3.347   6.412 -0.3624 -1.1718 -2.2160
  128OSM    H6T13687   2.881   3.342   6.405 -1.1381  1.6209 -0.7659
  128OSM    C7S13688   2.799   3.298   6.604 -0.3683  0.2717  0.3337
  128OSM    H7S13689   2.715   3.244   6.653  0.0668  0.3592  1.1987
  128OSM    H7T13690   2.786   3.403   6.638 -0.0879  0.8212 -1.1797
  128OSM    C8S13691   2.925   3.233   6.658 -0.5923 -0.3329  0.4221
  128OSM    H8S13692   3.013   3.265   6.597 -0.7602 -0.8866 -0.1074
  128OSM    H8T13693   2.912   3.124   6.646  0.6920 -0.2644 -2.3803
  128OSM    C9S13694   2.944   3.271   6.805  0.0333 -0.1595  0.3992
  128OSM    H9S13695   2.862   3.221   6.861 -0.0430  0.6590  1.0479
  128OSM    H9T13696   2.919   3.377   6.828 -3.3677 -0.3897 -1.5613
  128OSM   C10S13697   3.071   3.225   6.869 -0.2187  0.1052 -0.0884
  128OSM   H10S13698   3.148   3.270   6.802  0.0725  0.7828  0.6833
  128OSM   H10T13699   3.086   3.115   6.871  0.1020  0.1539  1.1095
  128OSM   C11S13700   3.078   3.282   7.009 -0.7248 -0.8190 -0.1408
  128OSM   H11S13701   3.020   3.377   7.004 -2.8711 -1.9904  1.1510
  128OSM   H11T13702   3.182   3.311   7.035 -0.6372  0.6419 -1.9156
  128OSM   C12S13703   3.035   3.191   7.127  0.4957  0.1121 -0.1430
  128OSM   H12S13704   3.063   3.084   7.112  0.6658  0.0514  0.5352
  128OSM   H12T13705   2.925   3.183   7.118  0.5534 -0.6440 -0.2522
  128OSM   C13S13706   3.089   3.240   7.260  0.3951  0.3390  0.4716
  128OSM   H13S13707   3.023   3.328   7.278 -1.5985 -0.4782 -2.2925
  128OSM   H13T13708   3.192   3.283   7.259  0.6599 -0.3001  0.1108
  128OSM   C14S13709   3.062   3.132   7.365 -0.4878 -0.1207  0.4174
  128OSM   H14S13710   3.117   3.039   7.337 -0.2542  0.7464 -2.2556
  128OSM   H14T13711   2.955   3.102   7.355 -0.7332  0.7525  0.3161
  128OSM   C15S13712   3.080   3.172   7.517  0.1303  0.5084 -0.4662
  128OSM   H15S13713   3.020   3.263   7.538 -0.5336 -0.2226  0.8706
  128OSM   H15T13714   3.187   3.190   7.541  0.2604 -1.4935  0.6469
  128OSM   C16S13715   3.017   3.077   7.614 -0.6558  0.1785  0.2022
  128OSM   H16S13716   3.082   2.987   7.605 -0.4573  0.2339  1.0066
  128OSM   H16T13717   2.909   3.061   7.595 -0.5810  1.0093 -1.0385
  128OSM   C17S13718   3.026   3.117   7.756  0.0412 -0.7613 -0.4075
  128OSM   H17S13719   2.970   3.210   7.778 -1.8489 -2.1914  1.1769
  128OSM   H17T13720   3.136   3.121   7.770  0.0096  0.8165 -0.4988
  128OSM   C18S13721   2.973   3.018   7.855 -0.3765 -0.3358  0.2952
  128OSM   H18S13722   2.873   2.988   7.816 -1.9078  1.6144  2.4542
  128OSM   H18T13723   2.966   3.059   7.958  0.2034  1.2963 -0.2833
  128OSM   H18U13724   3.026   2.921   7.863 -0.6648 -0.3985  1.5740
  128OSM    C1F13725   3.055   2.797   6.625 -0.1373  0.6205 -0.9163
  128OSM     OF13726   3.141   2.761   6.548  0.6878 -0.3435  0.0379
  128OSM    C2F13727   3.086   2.813   6.773  0.5656 -0.6074 -0.1398
  128OSM    H2F13728   3.068   2.721   6.832 -0.3565 -0.2514  0.1644
  128OSM    H2G13729   3.030   2.895   6.823  1.4084  1.3840 -2.2843
  128OSM    C3F13730   3.231   2.860   6.797  0.1537  0.2168  0.5565
  128OSM    H3F13731   3.258   2.941   6.727  0.5305  0.0344  0.4913
  128OSM    H3G13732   3.301   2.776   6.777 -0.5959  0.0763 -1.7246
  128OSM    C4F13733   3.265   2.899   6.942  0.7883 -0.0975  0.7191
  128OSM    H4F13734   3.194   2.981   6.966 -0.1694 -0.6950  0.0252
  128OSM    H4G13735   3.366   2.943   6.944  0.5569  0.4564  0.3339
  128OSM    C5F13736   3.266   2.780   7.037 -0.6078 -0.3820 -0.3809
  128OSM    H5F13737   3.341   2.709   6.997  1.9402  0.7770  1.9595
  128OSM    H5G13738   3.161   2.744   7.045 -1.7102  2.8665  2.1880
  128OSM    C6F13739   3.319   2.826   7.177 -0.1397  0.0637  0.0431
  128OSM    H6F13740   3.268   2.923   7.197  0.2115  0.6885 -1.9060
  128OSM    H6G13741   3.428   2.843   7.172  0.2467 -2.3502 -0.9905
  128OSM    C7F13742   3.287   2.719   7.285 -0.3487  0.1710 -0.0838
  128OSM    H7F13743   3.272   2.624   7.228 -1.8214 -0.2308  0.9076
  128OSM    H7G13744   3.186   2.750   7.319 -0.1597  0.1246  0.5212
  128OSM    C8F13745   3.386   2.705   7.402  0.1230  0.6439  0.3948
  128OSM    H8F13746   3.474   2.660   7.352  0.2989  1.0733  0.3135
  128OSM    H8G13747   3.348   2.625   7.469  0.4150  0.0855 -0.0980
  128OSM    C9F13748   3.429   2.822   7.479 -0.6093 -1.2437 -0.4070
  128OSM    H9F13749   3.430   2.920   7.428 -1.0025  0.2523  2.2650
  128OSM   C10F13750   3.467   2.824   7.610  0.0834  0.3143  0.5065
  128OSM   H10F13751   3.489   2.923   7.654 -0.4176  0.1301  1.1826
  128OSM   C11F13752   3.476   2.713   7.707 -0.2370  0.0906  0.3583
  128OSM   H11F13753   3.561   2.642   7.693  0.4882  1.2408 -1.4788
  128OSM   H11G13754   3.389   2.646   7.698 -1.6362  1.8299  0.4137
  128OSM   C12F13755   3.505   2.764   7.848 -0.0522  0.5108 -0.0840
  128OSM   H12F13756   3.579   2.845   7.863  0.7589 -0.5312  2.0694
  128OSM   H12G13757   3.524   2.675   7.913  1.5515  0.7435 -0.1819
  128OSM   C13F13758   3.375   2.826   7.898 -0.1014  0.6485 -0.1869
  128OSM   H13F13759   3.292   2.753   7.888 -0.2488  0.6748  0.7728
  128OSM   H13G13760   3.348   2.919   7.843  0.0912  0.5450 -0.4564
  128OSM   C14F13761   3.360   2.847   8.050 -0.3493 -0.0996  0.4743
  128OSM   H14F13762   3.393   2.747   8.087  1.0025  0.1000 -0.1291
  128OSM   H14G13763   3.255   2.872   8.077 -1.6539 -1.0877 -3.1385
  128OSM   C15F13764   3.467   2.958   8.082  0.0763  0.2846  0.2966
  128OSM   H15F13765   3.466   3.042   8.010 -0.6162  0.0478  0.0274
  128OSM   H15G13766   3.559   2.895   8.079 -0.2608 -0.3080  1.4630
  128OSM   C16F13767   3.448   3.014   8.230  0.3534 -0.0088  0.0075
  128OSM   H16F13768   3.362   3.084   8.234  0.3935 -0.0001  0.9813
  128OSM   H16G13769   3.537   3.077   8.252 -1.1185  1.9646  0.5432
  128OSM   C17F13770   3.433   2.900   8.330 -0.2597 -0.5035 -0.0105
  128OSM   H17F13771   3.500   2.819   8.296  1.7682  0.8893  0.4695
  128OSM   H17G13772   3.330   2.860   8.321 -0.5401 -0.5067  2.5858
  128OSM   C18F13773   3.462   2.932   8.471 -0.2949 -0.0122  0.7141
  128OSM   H18F13774   3.448   2.841   8.534 -0.2066 -0.7117 -0.2598
  128OSM   H18G13775   3.409   3.023   8.507 -1.9539 -0.1807 -1.1497
  128OSM   H18H13776   3.570   2.957   8.469 -0.6159  2.5773 -5.3499
  129OSM      N13777   6.101   3.798   5.699 -0.1690  0.8314 -0.0703
  129OSM    C1513778   6.125   3.680   5.603 -0.5006  0.3629  0.7139
  129OSM   H15A13779   6.126   3.583   5.651 -0.8750 -1.1701 -2.1596
  129OSM   H15B13780   6.218   3.696   5.552 -0.1216 -2.1911  0.4770
  129OSM   H15C13781   6.055   3.677   5.521 -0.2175  0.1879  0.4790
  129OSM    C1413782   6.216   3.784   5.795 -0.0475 -0.3286  0.3186
  129OSM   H14A13783   6.308   3.795   5.740 -0.6769 -1.1978 -0.9571
  129OSM   H14B13784   6.219   3.690   5.847  0.9583 -1.2547 -1.3012
  129OSM   H14C13785   6.203   3.862   5.868 -0.2805  0.4870 -0.5746
  129OSM    C1313786   6.110   3.926   5.624 -0.3781 -0.4184  0.0924
  129OSM   H13A13787   6.085   4.017   5.677 -1.4436  0.2381 -1.4639
  129OSM   H13B13788   6.042   3.929   5.540 -0.7854  0.7861  0.4408
  129OSM   H13C13789   6.206   3.937   5.575 -1.2628  2.9277 -1.2164
  129OSM    C1213790   5.961   3.787   5.762 -0.1994  0.4904 -0.7052
  129OSM   H12A13791   5.957   3.688   5.806  1.8120  0.1459 -1.1823
  129OSM   H12B13792   5.894   3.802   5.678  0.8888  4.0511 -1.1027
  129OSM    C1113793   5.929   3.882   5.879  0.5328 -0.6581  0.1715
  129OSM   H11A13794   5.820   3.883   5.902  0.4093 -2.8856 -0.0582
  129OSM   H11B13795   5.946   3.988   5.851 -1.2914 -0.7685 -1.6367
  129OSM      P13796   5.956   3.739   6.082 -0.6416 -0.0850 -0.0532
  129OSM    O1313797   5.841   3.779   6.166 -0.5353  0.0962  0.0605
  129OSM    O1413798   5.933   3.623   5.992 -0.2560 -0.6124  0.2745
  129OSM    O1113799   6.070   3.707   6.182 -0.3790 -0.1587  0.2745
  129OSM    O1213800   6.004   3.858   5.995  0.1276  0.5355 -0.1986
  129OSM    C1S13801   6.204   3.762   6.184 -0.5598  0.2162 -0.1589
  129OSM    H1S13802   6.203   3.867   6.149  0.7971  0.1290 -0.4982
  129OSM    H1T13803   6.271   3.698   6.123 -0.5195  1.1877 -1.1634
  129OSM     NF13804   6.382   3.833   6.338  0.2222  0.2220  0.2628
  129OSM    HNF13805   6.458   3.774   6.311 -0.1700 -0.5715  0.8551
  129OSM    C2S13806   6.254   3.759   6.327 -0.2165  0.0378  0.4215
  129OSM    H2S13807   6.183   3.811   6.395  0.1489  2.4103 -0.9123
  129OSM    C3S13808   6.258   3.602   6.362  0.1386  0.5244 -0.4006
  129OSM    H3S13809   6.314   3.550   6.281  0.4476  0.2879 -0.0352
  129OSM     O313810   6.130   3.540   6.381 -0.5232  0.2223  0.0672
  129OSM    HO313811   6.073   3.584   6.317 -1.2569 -1.6114 -0.5918
  129OSM    C4S13812   6.334   3.585   6.492 -0.1515 -0.1948 -0.0928
  129OSM    H4S13813   6.304   3.639   6.583  1.6102  1.1662 -0.2611
  129OSM    C5S13814   6.430   3.490   6.509 -0.6811 -0.0106  0.2495
  129OSM    H5S13815   6.458   3.416   6.432 -1.0068 -1.3918  1.4303
  129OSM    C6S13816   6.510   3.458   6.636 -0.3031 -0.3577 -0.6921
  129OSM    H6S13817   6.620   3.451   6.626  0.2021  0.4604  2.7391
  129OSM    H6T13818   6.483   3.361   6.684  0.3701 -0.3358 -0.2448
  129OSM    C7S13819   6.481   3.544   6.762 -0.4928  0.0734 -0.7365
  129OSM    H7S13820   6.371   3.539   6.778 -0.1916  1.0149  2.4447
  129OSM    H7T13821   6.512   3.649   6.745 -0.2622 -0.1538 -1.7295
  129OSM    C8S13822   6.557   3.500   6.888  0.5988  0.7067 -0.4913
  129OSM    H8S13823   6.659   3.544   6.883  0.6712  0.5803 -0.2228
  129OSM    H8T13824   6.560   3.389   6.893 -2.5931  0.4911 -1.6419
  129OSM    C9S13825   6.491   3.570   7.013 -0.7680 -0.5549 -0.1497
  129OSM    H9S13826   6.382   3.548   7.023 -0.9104  0.9473  3.3477
  129OSM    H9T13827   6.503   3.678   6.987  1.1264 -0.3502  1.3712
  129OSM   C10S13828   6.554   3.544   7.148 -0.0547 -0.0099  0.3024
  129OSM   H10S13829   6.652   3.596   7.141 -0.6299  0.8501 -2.9270
  129OSM   H10T13830   6.574   3.435   7.144  0.1819  0.0767 -3.0083
  129OSM   C11S13831   6.469   3.588   7.262 -0.4523  0.2099 -0.1067
  129OSM   H11S13832   6.376   3.527   7.259  0.0741 -0.7761  1.9234
  129OSM   H11T13833   6.444   3.696   7.259 -0.1296  0.4132  2.5498
  129OSM   C12S13834   6.531   3.550   7.395  0.4735 -0.2124  0.5037
  129OSM   H12S13835   6.626   3.608   7.405  0.5024 -0.5559  2.8963
  129OSM   H12T13836   6.545   3.440   7.399  0.8922 -0.2237 -0.7655
  129OSM   C13S13837   6.435   3.596   7.505  0.2119 -0.1785 -0.2040
  129OSM   H13S13838   6.341   3.537   7.512 -1.9295  3.0844  1.0855
  129OSM   H13T13839   6.404   3.696   7.469  1.2150  0.3149  0.2462
  129OSM   C14S13840   6.513   3.610   7.633 -0.2597 -0.1106 -0.2991
  129OSM   H14S13841   6.595   3.684   7.623  0.1010 -0.7870 -3.2949
  129OSM   H14T13842   6.558   3.510   7.652  0.2074  0.0181 -0.7130
  129OSM   C15S13843   6.424   3.624   7.756 -0.4919 -0.0145  0.5811
  129OSM   H15S13844   6.357   3.536   7.764 -0.8528  0.1147 -0.6638
  129OSM   H15T13845   6.365   3.716   7.742 -0.4913  0.0418  0.9499
  129OSM   C16S13846   6.505   3.641   7.888 -0.5849  0.6010 -0.1968
  129OSM   H16S13847   6.600   3.682   7.850 -1.2059  1.1773 -1.1739
  129OSM   H16T13848   6.534   3.551   7.946  2.8766  1.4033 -0.4621
  129OSM   C17S13849   6.437   3.750   7.984 -0.3786  0.9581  0.2976
  129OSM   H17S13850   6.386   3.830   7.927 -0.4907  0.5433 -0.1905
  129OSM   H17T13851   6.519   3.799   8.041 -0.4527 -0.3172  1.5723
  129OSM   C18S13852   6.352   3.668   8.089 -0.1152 -0.3724  0.1571
  129OSM   H18S13853   6.318   3.744   8.162 -1.6581 -1.2383  0.3844
  129OSM   H18T13854   6.406   3.602   8.160  0.3639 -0.5725 -0.3829
  129OSM   H18U13855   6.276   3.602   8.043 -0.8565 -1.9255  3.3240
  129OSM    C1F13856   6.390   3.964   6.346  0.2023 -0.3785 -0.9313
  129OSM     OF13857   6.294   4.034   6.317 -0.6170 -0.3339 -0.5372
  129OSM    C2F13858   6.523   4.023   6.381 -0.6188  0.0438 -0.6219
  129OSM    H2F13859   6.567   4.072   6.291  1.2108 -0.2291  0.0932
  129OSM    H2G13860   6.600   3.942   6.387 -0.9008 -0.2929 -1.3073
  129OSM    C3F13861   6.512   4.114   6.500 -0.4129 -0.8907  0.4904
  129OSM    H3F13862   6.480   4.052   6.587 -0.9901  1.8829  2.3830
  129OSM    H3G13863   6.435   4.192   6.485 -0.2355 -0.9506 -0.9006
  129OSM    C4F13864   6.644   4.181   6.529  0.2443 -0.2823 -0.5010
  129OSM    H4F13865   6.687   4.234   6.441  1.6255  0.1671  0.4220
  129OSM    H4G13866   6.726   4.108   6.541  1.6086  1.0596 -1.2805
  129OSM    C5F13867   6.635   4.293   6.639  0.3617  0.1284 -0.0750
  129OSM    H5F13868   6.738   4.322   6.668  1.8133 -0.3695 -4.0678
  129OSM    H5G13869   6.582   4.242   6.721 -0.5789  0.8741 -0.2032
  129OSM    C6F13870   6.565   4.424   6.598 -0.0378  0.9288  0.1031
  129OSM    H6F13871   6.483   4.401   6.526 -0.5717  1.5104  0.5150
  129OSM    H6G13872   6.644   4.491   6.558  1.2648 -2.0633 -2.8159
  129OSM    C7F13873   6.492   4.483   6.717 -1.1385  0.7929  0.2491
  129OSM    H7F13874   6.420   4.405   6.749  0.9950 -2.4131 -2.1339
  129OSM    H7G13875   6.446   4.575   6.675 -1.1309  0.7436  0.1316
  129OSM    C8F13876   6.584   4.521   6.840  0.0090  0.4812  0.0367
  129OSM    H8F13877   6.656   4.599   6.808 -1.7550  2.6263  1.0147
  129OSM    H8G13878   6.638   4.433   6.881 -1.0311  0.2332  0.9140
  129OSM    C9F13879   6.487   4.581   6.938 -0.2609 -0.1266  0.0587
  129OSM    H9F13880   6.389   4.601   6.892  0.3810  0.8761 -0.9093
  129OSM   C10F13881   6.509   4.618   7.064  0.3933 -0.0547  0.0144
  129OSM   H10F13882   6.423   4.663   7.117  1.0008  0.4691  0.5812
  129OSM   C11F13883   6.637   4.604   7.143  0.2603 -0.2920  0.7199
  129OSM   H11F13884   6.686   4.704   7.143  0.1196 -0.1914  2.5810
  129OSM   H11G13885   6.703   4.535   7.086  0.9582 -0.3462  1.5676
  129OSM   C12F13886   6.629   4.551   7.292 -0.6812 -0.3252 -0.2920
  129OSM   H12F13887   6.727   4.530   7.339 -0.0834  3.1250  0.2636
  129OSM   H12G13888   6.577   4.453   7.296 -0.0081 -0.7037 -0.7105
  129OSM   C13F13889   6.542   4.645   7.371 -0.5342  0.4938  0.2781
  129OSM   H13F13890   6.438   4.638   7.333 -0.1045 -1.3379 -0.7022
  129OSM   H13G13891   6.562   4.750   7.341 -4.0800  1.1890 -0.0300
  129OSM   C14F13892   6.539   4.620   7.526  0.2996 -0.0422  0.9580
  129OSM   H14F13893   6.488   4.526   7.553  0.9875 -1.0449 -1.0469
  129OSM   H14G13894   6.475   4.690   7.585  0.2779 -0.4725  1.4537
  129OSM   C15F13895   6.681   4.603   7.588  0.2394 -0.4846  0.0249
  129OSM   H15F13896   6.760   4.623   7.511  1.2448 -2.8521  0.3621
  129OSM   H15G13897   6.692   4.498   7.622  0.6388 -1.4045 -2.6398
  129OSM   C16F13898   6.699   4.703   7.713  0.4507 -0.1928  0.7339
  129OSM   H16F13899   6.688   4.802   7.665  2.8347 -0.4454 -0.5045
  129OSM   H16G13900   6.802   4.685   7.751 -0.0343 -1.5213  1.5181
  129OSM   C17F13901   6.588   4.688   7.818  0.0902  0.4805 -0.3955
  129OSM   H17F13902   6.489   4.718   7.779 -0.5760 -0.0075  0.8691
  129OSM   H17G13903   6.605   4.758   7.903  1.2336 -0.2066 -0.0349
  129OSM   C18F13904   6.560   4.542   7.860  0.2436  0.1484 -0.5650
  129OSM   H18F13905   6.638   4.511   7.932  0.7427  1.8158 -0.3570
  129OSM   H18G13906   6.562   4.468   7.777  0.4529 -1.4186  0.7764
  129OSM   H18H13907   6.465   4.532   7.917  0.6537  0.1432  0.1266
  130OSM      N13908   1.547   1.652   6.335 -0.3219  0.2019 -0.0693
  130OSM    C1513909   1.559   1.591   6.196 -0.5689  0.0301 -0.1790
  130OSM   H15A13910   1.659   1.602   6.156 -0.7379 -2.4049 -1.4421
  130OSM   H15B13911   1.494   1.635   6.122 -2.0084 -1.5158  0.0974
  130OSM   H15C13912   1.544   1.485   6.213 -1.1982  0.2178  0.4577
  130OSM    C1413913   1.410   1.618   6.392 -0.0053  0.3305 -0.2984
  130OSM   H14A13914   1.404   1.687   6.475 -0.5455  1.4063 -1.2117
  130OSM   H14B13915   1.404   1.515   6.424  0.3751 -0.0776 -1.5062
  130OSM   H14C13916   1.335   1.634   6.317 -0.4279 -1.8237 -0.4014
  130OSM    C1313917   1.644   1.585   6.430 -0.4511 -0.6001 -0.1434
  130OSM   H13A13918   1.747   1.600   6.398 -1.2522  3.3270 -1.5368
  130OSM   H13B13919   1.612   1.483   6.438  0.0979 -0.7238  0.5706
  130OSM   H13C13920   1.631   1.618   6.532 -1.7744 -2.1958  0.2412
  130OSM    C1213921   1.557   1.804   6.335  0.2243 -0.4653 -0.9067
  130OSM   H12A13922   1.539   1.834   6.437  1.1938 -2.3972 -0.1131
  130OSM   H12B13923   1.479   1.844   6.272  0.3148 -0.8281 -1.2550
  130OSM    C1113924   1.693   1.865   6.299  0.2933 -0.9861 -0.2274
  130OSM   H11A13925   1.735   1.823   6.206 -1.3278 -0.6604 -1.1437
  130OSM   H11B13926   1.756   1.855   6.390 -1.1634 -0.5914  0.8827
  130OSM      P13927   1.802   2.098   6.271  0.1167  0.1435  0.0237
  130OSM    O1313928   1.884   2.061   6.155 -0.0676  0.0414  0.5715
  130OSM    O1413929   1.757   2.237   6.289 -0.1053 -0.1227  0.2101
  130OSM    O1113930   1.879   2.055   6.406 -0.1586 -0.1093  0.2376
  130OSM    O1213931   1.675   2.004   6.276 -0.1931 -0.8298  0.4012
  130OSM    C1S13932   1.901   2.153   6.503 -0.2213  0.2131 -0.2019
  130OSM    H1S13933   1.800   2.187   6.533 -1.1473 -2.2998 -0.1847
  130OSM    H1T13934   1.967   2.231   6.459 -0.0114 -0.1095 -0.4625
  130OSM     NF13935   1.968   2.175   6.741  0.0990  0.2213  0.4189
  130OSM    HNF13936   2.053   2.220   6.768  0.0453 -0.5449  1.9472
  130OSM    C2S13937   1.971   2.087   6.626 -1.1680  0.1490 -0.4068
  130OSM    H2S13938   1.915   1.993   6.645 -0.9018  0.2010  0.7445
  130OSM    C3S13939   2.119   2.031   6.584  0.4560 -0.7847 -0.1395
  130OSM    H3S13940   2.182   2.121   6.563 -1.5418  0.2050 -2.3603
  130OSM     O313941   2.117   1.954   6.462  0.1143  0.5400  0.1076
  130OSM    HO313942   2.043   1.998   6.420  0.9102  0.0428 -1.8903
  130OSM    C4S13943   2.181   1.949   6.696 -0.2975 -0.6633  0.9522
  130OSM    H4S13944   2.119   1.869   6.740 -0.3782  0.8234  3.7322
  130OSM    C5S13945   2.304   1.970   6.749  0.1420 -0.5698 -0.1003
  130OSM    H5S13946   2.362   2.050   6.701 -0.0014 -1.3347 -1.6197
  130OSM    C6S13947   2.368   1.895   6.867  0.4485 -0.3693  0.6600
  130OSM    H6S13948   2.445   1.971   6.894  0.9895 -0.6122 -0.1700
  130OSM    H6T13949   2.420   1.798   6.850  1.9552  0.2935  1.2418
  130OSM    C7S13950   2.278   1.891   6.985  0.3981 -0.7339 -0.2794
  130OSM    H7S13951   2.328   1.821   7.055  1.6887  2.0488  1.8062
  130OSM    H7T13952   2.177   1.852   6.959 -1.1672  2.5292  0.4237
  130OSM    C8S13953   2.263   2.031   7.054  0.3211  0.5312 -0.1132
  130OSM    H8S13954   2.187   2.088   6.997 -2.4602 -2.9919 -0.2972
  130OSM    H8T13955   2.365   2.075   7.052  0.0111  1.3706  1.2749
  130OSM    C9S13956   2.207   2.010   7.191  0.0444 -0.2990  0.1763
  130OSM    H9S13957   2.147   1.917   7.194 -2.6127  1.2104 -1.8007
  130OSM    H9T13958   2.143   2.093   7.226 -0.4584  0.0605 -1.5061
  130OSM   C10S13959   2.308   2.025   7.307 -0.9517 -0.3921 -0.6360
  130OSM   H10S13960   2.318   2.133   7.330  0.5546 -1.0864  2.5874
  130OSM   H10T13961   2.410   1.994   7.275 -0.0120 -0.5164  2.1809
  130OSM   C11S13962   2.269   1.953   7.431  0.5245 -0.1660  0.3598
  130OSM   H11S13963   2.296   1.845   7.422  0.3847 -0.0888 -1.2036
  130OSM   H11T13964   2.162   1.964   7.456  0.5423 -0.6060  0.6482
  130OSM   C12S13965   2.347   2.007   7.557 -0.3622 -0.5077 -0.3812
  130OSM   H12S13966   2.355   2.117   7.558  1.5229 -0.6005  0.4299
  130OSM   H12T13967   2.451   1.967   7.548 -0.2239  0.2719 -2.8775
  130OSM   C13S13968   2.280   1.961   7.690  0.0912 -0.4859 -0.0118
  130OSM   H13S13969   2.245   1.856   7.684  1.4223 -0.9231 -0.4314
  130OSM   H13T13970   2.190   2.026   7.697  0.0713 -0.2128 -2.1071
  130OSM   C14S13971   2.371   1.985   7.812 -0.0686 -0.4478  0.7940
  130OSM   H14S13972   2.401   2.089   7.789 -2.4264  0.0590 -0.2594
  130OSM   H14T13973   2.461   1.919   7.806 -0.7005 -1.2764  0.1929
  130OSM   C15S13974   2.316   1.983   7.953 -0.5522 -0.6289 -0.1947
  130OSM   H15S13975   2.275   1.883   7.978  0.7552 -0.9378  0.8316
  130OSM   H15T13976   2.233   2.055   7.964 -0.1747 -0.2669  0.2669
  130OSM   C16S13977   2.416   2.008   8.067 -0.3839  0.3727  0.0983
  130OSM   H16S13978   2.480   2.095   8.042 -0.4616  0.6054  0.6871
  130OSM   H16T13979   2.487   1.922   8.074 -2.1280 -1.0655  0.8152
  130OSM   C17S13980   2.348   2.026   8.205 -0.4005 -0.0798  0.2569
  130OSM   H17S13981   2.274   1.943   8.208  0.3390 -0.7627  0.0002
  130OSM   H17T13982   2.293   2.123   8.206  0.1547  0.2476 -0.5070
  130OSM   C18S13983   2.435   2.011   8.330 -0.9834  0.4631  0.1871
  130OSM   H18S13984   2.517   2.086   8.322 -1.6751  1.3664  1.3676
  130OSM   H18T13985   2.492   1.915   8.323  1.5374  1.9479 -1.1379
  130OSM   H18U13986   2.366   2.027   8.416 -2.8332 -0.6878 -1.0076
  130OSM    C1F13987   1.856   2.223   6.798 -0.2631 -0.3687 -0.2999
  130OSM     OF13988   1.743   2.195   6.761 -0.5115  0.3546 -0.6492
  130OSM    C2F13989   1.877   2.322   6.912  0.4806  0.5030  0.7815
  130OSM    H2F13990   1.941   2.407   6.881  0.4545  0.5719  0.9215
  130OSM    H2G13991   1.920   2.254   6.988 -1.6304 -1.8458  0.0495
  130OSM    C3F13992   1.737   2.369   6.952  0.2589 -0.0305 -0.0216
  130OSM    H3F13993   1.663   2.287   6.966  0.7419 -0.4195  0.3218
  130OSM    H3G13994   1.693   2.448   6.888  2.4462  1.8653  0.6810
  130OSM    C4F13995   1.756   2.427   7.089 -0.9257  0.3239  0.6513
  130OSM    H4F13996   1.840   2.499   7.099  2.0429 -2.9218  1.0610
  130OSM    H4G13997   1.790   2.343   7.153 -0.8147 -0.2056 -0.0822
  130OSM    C5F13998   1.627   2.481   7.148  0.0081 -0.2592  0.4151
  130OSM    H5F13999   1.536   2.419   7.134 -1.2240  1.4272  0.6596
  130OSM    H5G14000   1.612   2.576   7.094  0.9186 -0.3309  0.0214
  130OSM    C6F14001   1.638   2.513   7.298  0.5777 -0.0081 -0.3989
  130OSM    H6F14002   1.704   2.439   7.349  1.0537 -0.1968 -1.2635
  130OSM    H6G14003   1.535   2.499   7.338  0.6866 -0.3244 -0.2263
  130OSM    C7F14004   1.688   2.657   7.328  1.0509  0.1644  0.1244
  130OSM    H7F14005   1.611   2.721   7.279  2.0015  1.5819  0.4332
  130OSM    H7G14006   1.784   2.697   7.290  0.9246 -0.7247 -1.1959
  130OSM    C8F14007   1.695   2.677   7.484 -0.8211  0.0419  0.4531
  130OSM    H8F14008   1.770   2.611   7.532 -0.1217  0.1221 -0.4894
  130OSM    H8G14009   1.594   2.642   7.512 -0.5454 -1.0280  0.1491
  130OSM    C9F14010   1.716   2.820   7.520  0.5223  0.2567 -0.3700
  130OSM    H9F14011   1.723   2.886   7.433  1.6453 -1.1986 -1.4429
  130OSM   C10F14012   1.743   2.880   7.639 -0.4517 -0.3318  0.5473
  130OSM   H10F14013   1.748   2.989   7.644  0.9023 -0.4146  1.7145
  130OSM   C11F14014   1.763   2.795   7.761 -0.5842 -0.1959 -0.9813
  130OSM   H11F14015   1.863   2.817   7.805 -2.5392  1.5535  3.1155
  130OSM   H11G14016   1.769   2.687   7.737 -0.5571 -0.2145 -0.8924
  130OSM   C12F14017   1.672   2.818   7.887  0.9589 -0.2793 -0.2389
  130OSM   H12F14018   1.565   2.791   7.873  0.3875  0.7070  1.8438
  130OSM   H12G14019   1.678   2.925   7.916 -1.5716 -0.4503  1.1798
  130OSM   C13F14020   1.705   2.743   8.016  0.2908 -0.4576  0.6922
  130OSM   H13F14021   1.800   2.781   8.059  0.0924 -2.0156  2.6478
  130OSM   H13G14022   1.719   2.635   7.996 -0.7800 -0.2065 -1.7776
  130OSM   C14F14023   1.597   2.757   8.129 -0.0522 -0.6544 -0.5917
  130OSM   H14F14024   1.503   2.717   8.085  1.5903 -2.7796 -2.4405
  130OSM   H14G14025   1.585   2.866   8.140  3.9476 -0.1227 -0.0682
  130OSM   C15F14026   1.632   2.703   8.270 -0.1758 -0.5798 -0.0088
  130OSM   H15F14027   1.742   2.685   8.269  0.0718  0.7139  0.7325
  130OSM   H15G14028   1.581   2.607   8.288 -0.6368 -0.3646 -0.1617
  130OSM   C16F14029   1.606   2.803   8.379 -0.0366  1.2512  0.0255
  130OSM   H16F14030   1.497   2.817   8.395  0.1997  2.5922  0.6469
  130OSM   H16G14031   1.669   2.892   8.355  1.6428  0.1632  0.1856
  130OSM   C17F14032   1.653   2.774   8.518 -0.1696 -0.4093 -1.1133
  130OSM   H17F14033   1.764   2.776   8.505 -0.1988  0.4248 -1.2603
  130OSM   H17G14034   1.624   2.673   8.553  0.0682 -0.6516 -1.5929
  130OSM   C18F14035   1.587   2.870   8.619  0.4305  0.0548 -1.0601
  130OSM   H18F14036   1.572   2.968   8.569  0.4464 -0.1783 -1.5273
  130OSM   H18G14037   1.651   2.882   8.710  0.6042  0.3495 -1.2219
  130OSM   H18H14038   1.484   2.838   8.646  0.2968  1.4552  0.2264
  131OSM      N14039   0.534   5.274   5.794  0.1598  0.2985  0.0954
  131OSM    C1514040   0.551   5.124   5.805 -0.3266  0.4952  0.4527
  131OSM   H15A14041   0.480   5.068   5.747  0.2878 -0.3399  0.4932
  131OSM   H15B14042   0.536   5.098   5.909 -0.9347  1.4873  0.6318
  131OSM   H15C14043   0.651   5.100   5.773  0.5943  2.7025  1.4555
  131OSM    C1414044   0.514   5.313   5.650 -0.1469 -0.4630  0.1068
  131OSM   H14A14045   0.419   5.283   5.607  0.5593 -1.4959 -0.7767
  131OSM   H14B14046   0.583   5.262   5.585  0.9622 -1.1027  1.7379
  131OSM   H14C14047   0.536   5.416   5.630  2.0111 -0.8756  0.1899
  131OSM    C1314048   0.413   5.313   5.868  0.5706  0.0045 -0.5300
  131OSM   H13A14049   0.322   5.262   5.837 -0.5213  0.9722  0.9797
  131OSM   H13B14050   0.396   5.419   5.863  1.4034  0.1948  0.4056
  131OSM   H13C14051   0.430   5.288   5.971  1.0427  1.2378 -0.2994
  131OSM    C1214052   0.655   5.340   5.859  0.0847  0.7930  0.2591
  131OSM   H12A14053   0.642   5.447   5.848  1.1388  0.9754  0.7203
  131OSM   H12B14054   0.746   5.315   5.807 -0.3010  0.4395 -0.2591
  131OSM    C1114055   0.670   5.309   6.007  0.1360 -0.2646  0.1014
  131OSM   H11A14056   0.575   5.329   6.061 -1.1286 -1.1287 -1.6896
  131OSM   H11B14057   0.742   5.384   6.044  1.0976 -0.0125 -2.1145
  131OSM      P14058   0.718   5.105   6.157  0.1244 -0.1899  0.0079
  131OSM    O1314059   0.603   5.013   6.153 -0.4436  0.0576  0.4064
  131OSM    O1414060   0.856   5.042   6.176  0.7428  0.2663 -0.4973
  131OSM    O1114061   0.698   5.229   6.260  0.3095  0.2355  0.3140
  131OSM    O1214062   0.718   5.184   6.025  0.7324  0.5458 -0.0444
  131OSM    C1S14063   0.650   5.211   6.391 -0.1977  1.0874  0.8078
  131OSM    H1S14064   0.659   5.106   6.426 -0.5037 -0.0661 -2.2516
  131OSM    H1T14065   0.542   5.239   6.397 -0.2084  0.9855  1.1139
  131OSM     NF14066   0.676   5.272   6.628  0.6023  0.2213  0.3479
  131OSM    HNF14067   0.619   5.339   6.674 -0.6788 -0.6110  0.0111
  131OSM    C2S14068   0.723   5.309   6.497  0.3044  0.0816 -0.3340
  131OSM    H2S14069   0.832   5.287   6.485 -0.1722 -2.7085 -0.1351
  131OSM    C3S14070   0.697   5.458   6.457 -0.3299 -0.1074  0.6131
  131OSM    H3S14071   0.590   5.488   6.446  0.4615  2.5403 -0.7811
  131OSM     O314072   0.740   5.487   6.323 -0.4300  0.6049 -0.0148
  131OSM    HO314073   0.742   5.402   6.278  0.2016 -0.6531  2.2305
  131OSM    C4S14074   0.780   5.550   6.548  0.2441  1.2123 -0.0326
  131OSM    H4S14075   0.885   5.552   6.514 -0.4086  1.3946 -2.2366
  131OSM    C5S14076   0.725   5.629   6.641 -0.2928 -0.6218 -0.1462
  131OSM    H5S14077   0.617   5.633   6.656  0.2069  0.8726  4.2768
  131OSM    C6S14078   0.793   5.723   6.736 -0.3508 -0.7786 -0.2959
  131OSM    H6S14079   0.746   5.824   6.738  2.5814  0.7707  3.5813
  131OSM    H6T14080   0.896   5.740   6.699 -0.2284 -1.7485 -0.4165
  131OSM    C7S14081   0.796   5.662   6.878  0.2340 -0.1852  0.3741
  131OSM    H7S14082   0.824   5.555   6.881  1.0005  0.0311  2.0324
  131OSM    H7T14083   0.690   5.653   6.912  0.6477  0.1524  1.8078
  131OSM    C8S14084   0.873   5.735   6.982  0.4951  0.9046 -0.1650
  131OSM    H8S14085   0.853   5.844   6.980  0.0528  0.8452  0.5673
  131OSM    H8T14086   0.979   5.729   6.949  0.4937 -3.8082  0.0792
  131OSM    C9S14087   0.844   5.705   7.125 -0.9222 -0.5131  0.1493
  131OSM    H9S14088   0.849   5.595   7.137  1.2131 -0.3231  1.6992
  131OSM    H9T14089   0.741   5.733   7.158 -0.4620 -0.6280  1.7735
  131OSM   C10S14090   0.947   5.781   7.217 -0.0494 -0.0576  0.2713
  131OSM   H10S14091   0.961   5.884   7.177  2.0895 -0.6966 -0.7582
  131OSM   H10T14092   1.043   5.726   7.208 -1.3119 -2.8380  2.2676
  131OSM   C11S14093   0.912   5.779   7.366  0.2149 -0.0088  0.1636
  131OSM   H11S14094   0.880   5.677   7.396 -2.0961  0.7591  0.5044
  131OSM   H11T14095   0.822   5.838   7.395  0.1093  0.3643 -0.8964
  131OSM   C12S14096   1.024   5.826   7.455  0.3623 -1.0442 -0.6088
  131OSM   H12S14097   1.079   5.915   7.418  0.2947 -1.0698 -0.7721
  131OSM   H12T14098   1.106   5.752   7.444  2.0948  0.7178 -0.0441
  131OSM   C13S14099   0.999   5.834   7.609  0.0696 -0.8022  0.7322
  131OSM   H13S14100   0.938   5.741   7.619  0.2670 -1.2917 -1.9843
  131OSM   H13T14101   0.932   5.918   7.636  1.6993  0.5894  0.6044
  131OSM   C14S14102   1.126   5.855   7.690 -0.7815 -0.8879 -0.1906
  131OSM   H14S14103   1.135   5.958   7.730 -1.1795 -1.7308  2.2254
  131OSM   H14T14104   1.219   5.845   7.631  0.4866  0.6037  1.4532
  131OSM   C15S14105   1.137   5.772   7.818  0.6822  0.0424  0.9443
  131OSM   H15S14106   1.233   5.801   7.866  2.1769  2.6906 -3.1359
  131OSM   H15T14107   1.151   5.668   7.781  0.4651  1.0778 -2.3156
  131OSM   C16S14108   1.014   5.785   7.909  0.0380  0.2430  0.2910
  131OSM   H16S14109   0.971   5.685   7.931  0.3135 -0.4135 -1.9119
  131OSM   H16T14110   0.931   5.838   7.857 -0.3897  0.3434  1.0696
  131OSM   C17S14111   1.037   5.856   8.040 -0.5517 -0.4429  0.2544
  131OSM   H17S14112   1.088   5.798   8.119 -0.8138  0.3601  1.0441
  131OSM   H17T14113   0.935   5.883   8.077 -0.7840 -1.3291  0.2692
  131OSM   C18S14114   1.112   5.988   8.010  0.1765 -0.1504 -0.6070
  131OSM   H18S14115   1.108   6.056   8.097  2.3130 -0.7865  0.0516
  131OSM   H18T14116   1.061   6.039   7.925 -1.5046 -0.7116  0.0319
  131OSM   H18U14117   1.218   5.976   7.980  0.9927  3.0787  0.6298
  131OSM    C1F14118   0.715   5.161   6.702  0.6354  0.1793 -0.1753
  131OSM     OF14119   0.803   5.087   6.668 -0.2368  0.6673  0.0420
  131OSM    C2F14120   0.635   5.143   6.832  0.1033  0.0518 -1.0611
  131OSM    H2F14121   0.525   5.131   6.816  0.2704 -2.7544 -0.5656
  131OSM    H2G14122   0.648   5.241   6.883 -1.0601 -0.0141 -0.5995
  131OSM    C3F14123   0.690   5.025   6.915  0.9539 -0.1004 -0.6107
  131OSM    H3F14124   0.799   5.023   6.938  1.0297 -1.2777 -1.0103
  131OSM    H3G14125   0.672   4.932   6.856  0.7773 -1.6980  1.8034
  131OSM    C4F14126   0.603   4.995   7.046 -0.0795  0.3146  0.4765
  131OSM    H4F14127   0.504   4.954   7.016  0.5890 -0.2454 -1.1069
  131OSM    H4G14128   0.581   5.091   7.096  0.1451 -0.4564  2.1096
  131OSM    C5F14129   0.668   4.894   7.145 -0.3043 -0.2920 -0.8236
  131OSM    H5F14130   0.766   4.938   7.174  0.2789 -1.4235 -1.0081
  131OSM    H5G14131   0.693   4.800   7.091  2.6245  0.2929 -0.6826
  131OSM    C6F14132   0.591   4.873   7.278  0.1069 -0.3890  0.1250
  131OSM    H6F14133   0.506   4.808   7.247  0.6207 -0.8282 -0.3625
  131OSM    H6G14134   0.541   4.966   7.315 -0.0652 -0.2660 -0.4048
  131OSM    C7F14135   0.683   4.806   7.381  0.0888 -0.1304  0.7956
  131OSM    H7F14136   0.755   4.887   7.408 -0.7280  0.9868 -0.2232
  131OSM    H7G14137   0.736   4.725   7.327 -2.6350 -1.3735 -0.1760
  131OSM    C8F14138   0.598   4.764   7.501  0.2572  0.0200  0.3627
  131OSM    H8F14139   0.512   4.702   7.468  0.1096  0.4223 -0.0094
  131OSM    H8G14140   0.558   4.860   7.539 -0.9145  0.3708 -1.6331
  131OSM    C9F14141   0.673   4.688   7.608  0.4151  0.6025  0.2117
  131OSM    H9F14142   0.755   4.629   7.565  0.3592  0.9762 -0.4267
  131OSM   C10F14143   0.659   4.681   7.738 -0.1005 -0.2054  0.2815
  131OSM   H10F14144   0.739   4.625   7.789  0.4597 -0.2739 -0.6555
  131OSM   C11F14145   0.554   4.756   7.821 -0.1219  0.6441 -0.3780
  131OSM   H11F14146   0.480   4.688   7.868  0.4073  0.5752  0.3715
  131OSM   H11G14147   0.498   4.828   7.757  2.0940  2.5354 -0.3169
  131OSM   C12F14148   0.601   4.857   7.933 -0.1492 -0.1001  0.3313
  131OSM   H12F14149   0.517   4.880   8.002 -0.8826  0.0555 -0.5785
  131OSM   H12G14150   0.636   4.942   7.871 -1.3781  0.3576  0.2408
  131OSM   C13F14151   0.712   4.803   8.016  0.0006 -0.2392 -0.4421
  131OSM   H13F14152   0.750   4.885   8.080 -1.3433  1.8424 -2.1738
  131OSM   H13G14153   0.798   4.756   7.963 -0.3873 -2.7728  0.9982
  131OSM   C14F14154   0.664   4.688   8.096 -1.0590  0.6534  0.1519
  131OSM   H14F14155   0.757   4.639   8.132 -0.7742  0.5203 -0.7417
  131OSM   H14G14156   0.632   4.609   8.025  0.4955  2.5294 -2.8275
  131OSM   C15F14157   0.570   4.722   8.210 -0.8565  0.0254  0.5599
  131OSM   H15F14158   0.478   4.766   8.166 -1.1593  1.0083  2.0873
  131OSM   H15G14159   0.604   4.796   8.285 -1.3729 -0.4594  1.2925
  131OSM   C16F14160   0.541   4.587   8.280 -0.1644  0.2847 -0.9853
  131OSM   H16F14161   0.610   4.510   8.241 -0.4031 -0.2567 -0.3501
  131OSM   H16G14162   0.444   4.545   8.244  0.0418 -0.8023 -0.3003
  131OSM   C17F14163   0.539   4.584   8.432 -0.1933  0.7363 -0.1637
  131OSM   H17F14164   0.519   4.481   8.467  0.1825  1.2785  1.7655
  131OSM   H17G14165   0.456   4.646   8.470  0.6330  1.2662  0.8267
  131OSM   C18F14166   0.661   4.648   8.508  0.4759  0.0540 -0.2710
  131OSM   H18F14167   0.659   4.757   8.486  1.4094  0.3398  0.9425
  131OSM   H18G14168   0.758   4.597   8.486  2.1532  2.5571  0.9258
  131OSM   H18H14169   0.650   4.644   8.618  0.6144  1.6772 -0.1857
  132OSM      N14170   3.015   4.193   6.269  0.6610 -0.6540 -0.8816
  132OSM    C1514171   3.086   4.320   6.269 -0.4686 -0.2620  0.2069
  132OSM   H15A14172   3.108   4.342   6.166 -1.1294  2.9181  0.6134
  132OSM   H15B14173   3.173   4.313   6.332  0.8014 -0.1453 -1.4889
  132OSM   H15C14174   3.027   4.403   6.308  0.0460 -0.8675  2.4283
  132OSM    C1414175   2.919   4.202   6.158  0.4355  0.1418  0.3869
  132OSM   H14A14176   2.846   4.279   6.178 -0.1824 -0.2724 -0.2201
  132OSM   H14B14177   2.865   4.109   6.145 -0.0674  0.6609 -1.5577
  132OSM   H14C14178   2.968   4.234   6.067  0.1701  0.3608  0.3190
  132OSM    C1314179   3.109   4.078   6.231  0.6738  0.7988 -0.0892
  132OSM   H13A14180   3.162   4.089   6.137 -2.3992  0.9030 -1.9319
  132OSM   H13B14181   3.060   3.981   6.229 -0.6381  1.4527 -0.9076
  132OSM   H13C14182   3.180   4.069   6.312 -0.9139  1.5548  1.4515
  132OSM    C1214183   2.931   4.172   6.393 -0.1965  0.0688 -0.3038
  132OSM   H12A14184   2.892   4.265   6.429 -0.4217 -0.6789  1.4674
  132OSM   H12B14185   2.988   4.146   6.481  1.9569 -1.0928 -1.9414
  132OSM    C1114186   2.813   4.072   6.386 -0.2358 -0.0002 -0.3232
  132OSM   H11A14187   2.728   4.111   6.326 -1.9360 -3.4405 -0.3713
  132OSM   H11B14188   2.776   4.064   6.490  2.1988 -1.7907  0.4994
  132OSM      P14189   2.812   3.834   6.248 -0.6640 -0.0466  0.0408
  132OSM    O1314190   2.675   3.870   6.193 -0.2405  0.1071 -0.4740
  132OSM    O1414191   2.913   3.797   6.147  0.9009  0.1450 -0.0375
  132OSM    O1114192   2.785   3.712   6.340 -0.0347  0.2663  0.3318
  132OSM    O1214193   2.864   3.941   6.348 -0.2938 -0.7977  0.2187
  132OSM    C1S14194   2.857   3.675   6.454  0.1309  0.7352 -0.2573
  132OSM    H1S14195   2.966   3.686   6.436  0.1304 -0.1359 -0.8754
  132OSM    H1T14196   2.842   3.566   6.471 -1.3370  0.7789 -1.1405
  132OSM     NF14197   2.885   3.696   6.698 -0.1579  1.2499 -0.7297
  132OSM    HNF14198   2.841   3.624   6.751  0.3756 -0.3423 -2.3411
  132OSM    C2S14199   2.805   3.749   6.586 -0.2333  0.4468 -0.3361
  132OSM    H2S14200   2.820   3.858   6.579 -0.6677  0.7591  2.4271
  132OSM    C3S14201   2.657   3.718   6.609 -0.0934  0.1369  0.0841
  132OSM    H3S14202   2.646   3.610   6.634  1.1013 -0.1909 -0.6942
  132OSM     O314203   2.580   3.747   6.492  0.4335  0.0117  0.8986
  132OSM    HO314204   2.643   3.730   6.421  3.8825  0.0467  3.6988
  132OSM    C4S14205   2.599   3.801   6.725 -0.5666  0.3686 -1.0833
  132OSM    H4S14206   2.570   3.745   6.815 -1.1568  0.3173 -1.2980
  132OSM    C5S14207   2.558   3.931   6.729  0.3847  0.6509  0.2473
  132OSM    H5S14208   2.582   3.987   6.637  1.5698 -3.5002 -2.2712
  132OSM    C6S14209   2.495   4.007   6.848  0.5602 -0.5349 -0.4022
  132OSM    H6S14210   2.390   4.030   6.821  0.5981 -1.3254 -1.2473
  132OSM    H6T14211   2.538   4.109   6.862  0.7449 -0.6255 -0.3114
  132OSM    C7S14212   2.488   3.938   6.984 -0.1286  0.4554 -0.0635
  132OSM    H7S14213   2.589   3.902   7.014 -0.8194 -1.3505  0.1688
  132OSM    H7T14214   2.433   3.842   6.981  1.8626 -0.7704  0.5381
  132OSM    C8S14215   2.428   4.032   7.087  0.2452 -0.3026 -0.2877
  132OSM    H8S14216   2.320   4.009   7.074  0.2151 -0.4049  0.1387
  132OSM    H8T14217   2.460   4.137   7.065  1.6236 -0.9539 -1.5576
  132OSM    C9S14218   2.451   3.979   7.232  0.0726  0.4398  0.0503
  132OSM    H9S14219   2.558   3.991   7.259  0.0964  0.3769 -0.0177
  132OSM    H9T14220   2.418   3.873   7.229  0.2717  0.3907 -0.4548
  132OSM   C10S14221   2.368   4.051   7.339  0.3356 -0.0780 -0.7442
  132OSM   H10S14222   2.262   4.033   7.313 -0.0673 -0.4039  0.9762
  132OSM   H10T14223   2.384   4.158   7.312 -0.7019  0.0623 -0.8364
  132OSM   C11S14224   2.412   3.998   7.478 -0.8125 -1.2947 -0.0918
  132OSM   H11S14225   2.521   4.018   7.475 -1.0046  0.0637  0.8964
  132OSM   H11T14226   2.387   3.893   7.503  1.7510 -1.7611  0.7987
  132OSM   C12S14227   2.352   4.088   7.591  0.8112  0.0680  0.6359
  132OSM   H12S14228   2.246   4.066   7.616  1.2864 -0.4114  2.4228
  132OSM   H12T14229   2.362   4.193   7.558  1.0595 -0.1484  0.0091
  132OSM   C13S14230   2.428   4.062   7.721  0.4988 -0.4089 -0.1564
  132OSM   H13S14231   2.533   4.086   7.694 -0.6410  2.5719 -2.5527
  132OSM   H13T14232   2.417   3.962   7.767 -1.7646 -0.1830 -0.0817
  132OSM   C14S14233   2.389   4.165   7.827 -0.4842 -0.5249 -0.2279
  132OSM   H14S14234   2.281   4.158   7.851 -0.7718  1.0840 -0.9612
  132OSM   H14T14235   2.406   4.261   7.775 -0.9546  0.4845  1.4141
  132OSM   C15S14236   2.480   4.150   7.950  0.0799 -0.1700  0.0347
  132OSM   H15S14237   2.567   4.217   7.935  1.4661 -1.3969  2.0147
  132OSM   H15T14238   2.532   4.051   7.947 -0.5795 -0.4941 -1.0990
  132OSM   C16S14239   2.424   4.178   8.087  0.5979  0.2627 -0.1188
  132OSM   H16S14240   2.318   4.146   8.100  0.8642 -0.7158 -0.2977
  132OSM   H16T14241   2.433   4.288   8.099 -0.2820  0.3483 -0.1621
  132OSM   C17S14242   2.500   4.110   8.198 -0.4447 -0.0359 -0.3800
  132OSM   H17S14243   2.555   4.184   8.259  0.1444 -0.2710 -0.6133
  132OSM   H17T14244   2.580   4.049   8.151  0.9246  1.4587 -0.0322
  132OSM   C18S14245   2.414   4.025   8.299 -0.1236 -0.2428  0.7018
  132OSM   H18S14246   2.360   4.092   8.369  0.2332  0.2088  0.5438
  132OSM   H18T14247   2.465   3.955   8.370 -0.5127 -1.4971 -0.2097
  132OSM   H18U14248   2.352   3.966   8.228  1.6710  1.0064 -2.0715
  132OSM    C1F14249   3.011   3.733   6.728  0.1021 -0.5067  0.3655
  132OSM     OF14250   3.077   3.804   6.652  0.3890  0.4599  0.5085
  132OSM    C2F14251   3.072   3.680   6.851 -0.4607  0.4230  0.0830
  132OSM    H2F14252   3.155   3.613   6.821 -1.8318 -1.5969  0.6271
  132OSM    H2G14253   2.993   3.627   6.909 -0.6329  0.2313 -0.3254
  132OSM    C3F14254   3.159   3.793   6.932  0.7053 -0.5193  0.3171
  132OSM    H3F14255   3.095   3.880   6.958  0.4741 -1.2082  2.1483
  132OSM    H3G14256   3.232   3.839   6.862 -0.2739  2.0644  0.8627
  132OSM    C4F14257   3.230   3.730   7.052 -0.3577 -0.1435 -0.1466
  132OSM    H4F14258   3.296   3.811   7.090 -0.5503  1.8297 -3.5458
  132OSM    H4G14259   3.285   3.645   7.007 -0.1686  0.4707 -1.1169
  132OSM    C5F14260   3.128   3.680   7.156 -0.3591 -0.3657 -0.6983
  132OSM    H5F14261   3.071   3.596   7.111  0.0343 -1.4979  0.8198
  132OSM    H5G14262   3.051   3.759   7.171 -1.4833 -1.1678 -2.0211
  132OSM    C6F14263   3.197   3.646   7.289  0.7233  0.4425  0.1942
  132OSM    H6F14264   3.239   3.739   7.334  0.9494  1.7708 -2.5291
  132OSM    H6G14265   3.273   3.567   7.302 -0.1686 -0.1349  2.3466
  132OSM    C7F14266   3.086   3.619   7.392  0.4733  0.2882 -0.5104
  132OSM    H7F14267   3.014   3.550   7.344  1.4772  0.1405 -1.8870
  132OSM    H7G14268   3.034   3.714   7.418  2.3645  1.1602  0.3106
  132OSM    C8F14269   3.130   3.543   7.528 -0.2117  0.1142 -0.1238
  132OSM    H8F14270   3.202   3.460   7.508 -1.1786 -0.5746 -0.8741
  132OSM    H8G14271   3.042   3.490   7.568  0.4089 -1.4896 -0.7832
  132OSM    C9F14272   3.200   3.630   7.632  0.1999 -0.9321 -0.6582
  132OSM    H9F14273   3.277   3.699   7.594  0.4042 -0.6388  0.2687
  132OSM   C10F14274   3.169   3.627   7.763  0.1904 -0.5371  0.6638
  132OSM   H10F14275   3.206   3.710   7.825 -0.2576  1.6128 -1.7831
  132OSM   C11F14276   3.065   3.529   7.816  0.2645  0.2806 -0.0426
  132OSM   H11F14277   3.110   3.428   7.816 -0.3768 -0.0053  0.3596
  132OSM   H11G14278   2.976   3.517   7.751  2.0766 -3.0775 -2.1690
  132OSM   C12F14279   3.006   3.560   7.960 -0.1844  0.3438 -0.1897
  132OSM   H12F14280   2.935   3.646   7.960  2.0203  2.2837  0.4042
  132OSM   H12G14281   3.092   3.586   8.026 -0.8757 -0.6365  1.1564
  132OSM   C13F14282   2.935   3.439   8.028 -0.7032 -0.8573 -0.5112
  132OSM   H13F14283   2.873   3.398   7.945 -0.8890  0.6039 -1.1232
  132OSM   H13G14284   2.863   3.475   8.104 -0.2530 -0.6888 -0.1573
  132OSM   C14F14285   3.031   3.332   8.084 -0.1748 -0.2590 -0.1412
  132OSM   H14F14286   3.112   3.388   8.136 -0.2889 -0.4117  0.2012
  132OSM   H14G14287   3.093   3.280   8.007 -2.3497 -1.9720 -0.8497
  132OSM   C15F14288   2.959   3.234   8.177  0.0213 -0.5634  1.0778
  132OSM   H15F14289   2.873   3.176   8.135 -0.3590 -0.8435  2.2173
  132OSM   H15G14290   2.898   3.284   8.255  0.4641 -1.8639  2.3029
  132OSM   C16F14291   3.055   3.126   8.225 -0.0703  0.1158  0.8451
  132OSM   H16F14292   3.135   3.176   8.284  0.6265  0.2886 -0.2175
  132OSM   H16G14293   3.100   3.071   8.139 -1.0257 -2.3782  1.8561
  132OSM   C17F14294   2.992   3.024   8.321  0.2753  0.1820  0.9197
  132OSM   H17F14295   3.071   2.953   8.356  2.2770  1.3765 -0.9416
  132OSM   H17G14296   2.909   2.976   8.265 -0.5906  2.4632  0.1338
  132OSM   C18F14297   2.946   3.088   8.453 -0.0470 -0.0445 -0.0376
  132OSM   H18F14298   2.866   3.163   8.432  1.2026  1.1659 -0.6520
  132OSM   H18G14299   3.034   3.138   8.499 -0.1005  0.6307 -0.6631
  132OSM   H18H14300   2.910   3.008   8.521  1.7989 -1.4875 -0.6834
  133SAPE     N14301   3.834   0.241  10.961  0.2552 -0.4553 -0.3105
  133SAPE   HN114302   3.769   0.279  10.890 -0.5089 -0.7908  0.1906
  133SAPE   HN214303   3.846   0.140  10.939  2.0015  0.1938 -2.7233
  133SAPE   HN314304   3.792   0.261  11.054 -0.2980 -1.7802 -0.2591
  133SAPE   C1214305   3.984   0.284  10.963 -0.0436  0.4652 -0.8913
  133SAPE  H12A14306   3.974   0.369  11.034  0.0229  1.7456 -2.3434
  133SAPE  H12B14307   4.004   0.327  10.862  0.0883  1.8836 -0.2769
  133SAPE   C1114308   4.080   0.165  10.998 -0.3239 -0.0415 -0.1712
  133SAPE  H11A14309   4.058   0.122  11.098  2.0131 -0.4477  0.2301
  133SAPE  H11B14310   4.182   0.205  11.018  0.1951 -0.9693 -0.8657
  133SAPE     P14311   4.174   0.088  10.777 -0.0949  0.0734  0.0954
  133SAPE   O1314312   4.197   0.234  10.758 -0.6675  0.3266 -0.2588
  133SAPE   O1414313   4.293   0.001  10.797  0.4663 -0.1158 -0.2431
  133SAPE   O1214314   4.085   0.064  10.896 -0.0812  0.1599 -0.3230
  133SAPE   O1114315   4.075   0.043  10.664 -0.4906  0.0663 -0.5620
  133SAPE    C114316   4.107  -0.069  10.583  0.0535  0.5038 -0.2879
  133SAPE    HA14317   4.173  -0.144  10.632 -0.6214  0.1786  0.1305
  133SAPE    HB14318   4.014  -0.118  10.551 -0.7074  2.4734 -1.2623
  133SAPE    C214319   4.163  -0.029  10.446  0.0018 -0.5276 -0.1121
  133SAPE    HS14320   4.159  -0.118  10.380 -0.4850 -0.3372 -0.3479
  133SAPE   O2114321   4.301   0.023  10.459 -0.4707  0.3406  0.2915
  133SAPE   C2114322   4.393  -0.071  10.468  0.4177  0.6175  0.3497
  133SAPE   O2214323   4.373  -0.196  10.459 -0.4160  0.2366  0.1193
  133SAPE   C2214324   4.530  -0.006  10.471  0.4251  0.0331  0.1842
  133SAPE   H2R14325   4.519   0.105  10.463 -1.1686  0.0740  2.0472
  133SAPE   H2S14326   4.580  -0.040  10.564  2.1476  0.6713 -0.4595
  133SAPE    C314327   4.076   0.086  10.378 -0.5603  0.6180  0.3003
  133SAPE    HX14328   4.122   0.173  10.429  2.0689  0.5907 -1.8253
  133SAPE    HY14329   3.971   0.090  10.415 -0.9230  1.4598 -0.7441
  133SAPE   O3114330   4.092   0.100  10.233 -0.1942 -0.1128  0.3863
  133SAPE   C3114331   4.014   0.008  10.175  0.0485  1.0678  0.6976
  133SAPE   O3214332   3.939  -0.066  10.227  0.5495 -0.2037  0.2150
  133SAPE   C3214333   4.040   0.007  10.019  0.1789 -0.5355 -0.0648
  133SAPE   H2X14334   4.125  -0.054   9.980 -0.5463 -0.5982 -1.6313
  133SAPE   H2Y14335   4.070   0.110   9.989 -0.3511 -0.6910 -1.1523
  133SAPE   C2314336   4.636  -0.051  10.356  0.7055 -0.1848  0.7355
  133SAPE   H3R14337   4.652  -0.161  10.349  2.1627  0.1257 -2.2923
  133SAPE   H3S14338   4.737  -0.009  10.377  1.4051 -1.7881  0.7179
  133SAPE   C2414339   4.597  -0.001  10.214 -0.2405 -0.3566 -0.8228
  133SAPE   H4R14340   4.686  -0.024  10.151 -0.7195 -1.0709 -1.2448
  133SAPE   H4S14341   4.599   0.110  10.226  0.5708 -0.5865  1.9349
  133SAPE   C2514342   4.475  -0.056  10.140 -0.9234 -0.1887  0.4480
  133SAPE   H5R14343   4.442  -0.156  10.171 -2.0771 -0.1931 -0.7209
  133SAPE   C2614344   4.400  -0.014  10.049  0.6848 -0.7470 -0.2126
  133SAPE   H6R14345   4.321  -0.083  10.015  1.2967 -0.7421 -1.7349
  133SAPE   C2714346   4.406   0.112   9.968 -0.2202  0.4521 -0.7549
  133SAPE   H7R14347   4.473   0.190  10.010  1.2064 -1.5448  0.8712
  133SAPE   H7S14348   4.303   0.153   9.970 -0.0166  1.0200 -1.4678
  133SAPE   C2814349   4.451   0.072   9.832 -0.3816  0.4862  0.3997
  133SAPE   H8R14350   4.513  -0.019   9.826 -3.3428 -1.5872 -2.2405
  133SAPE   C2914351   4.418   0.135   9.714  0.2811  0.2055  0.8330
  133SAPE   H9R14352   4.425   0.082   9.618 -2.5728 -0.8884  1.1360
  133SAPE  C21014353   4.332   0.255   9.697 -0.4949 -0.4361 -0.0029
  133SAPE  H10R14354   4.367   0.327   9.621  0.1718  0.6151  1.2531
  133SAPE  H10S14355   4.329   0.314   9.791 -0.3725 -0.3152 -0.0759
  133SAPE  C21114356   4.194   0.216   9.658  0.4798  0.3726  0.6212
  133SAPE  H11R14357   4.171   0.108   9.651 -0.7570  0.6344  0.4274
  133SAPE  C21214358   4.103   0.311   9.621 -0.4254  0.1672  0.1680
  133SAPE  H12R14359   3.999   0.277   9.606 -0.6261  0.7947  0.1173
  133SAPE  C21314360   4.114   0.458   9.625 -0.3064 -0.2267  0.4467
  133SAPE  H13R14361   4.056   0.494   9.538  1.1524 -0.8844 -0.8455
  133SAPE  H13S14362   4.217   0.485   9.593 -1.4805  0.8170 -2.8404
  133SAPE  C21414363   4.084   0.518   9.759 -0.0349 -0.1785  0.8860
  133SAPE  H14R14364   4.132   0.470   9.846 -2.0220 -2.0465  1.0338
  133SAPE  C21514365   4.009   0.632   9.771 -0.6664  0.4543 -0.4574
  133SAPE  H15R14366   4.005   0.686   9.867  0.4954  0.4320 -0.3885
  133SAPE  C21614367   3.944   0.704   9.659  0.9764 -0.2539 -0.7172
  133SAPE  H16R14368   3.842   0.741   9.684  0.8447 -1.2642  0.3345
  133SAPE  H16S14369   3.916   0.628   9.583 -0.1293 -0.4867 -0.1065
  133SAPE  C21714370   4.031   0.822   9.600 -0.6490 -1.2559 -0.1295
  133SAPE  H17R14371   4.136   0.788   9.589  0.0211  0.7330 -0.2214
  133SAPE  H17S14372   4.036   0.902   9.676 -0.0892  0.0309 -1.4865
  133SAPE  C21814373   3.985   0.870   9.458  0.5506  0.7058  0.7657
  133SAPE  H18R14374   3.876   0.888   9.460  0.9398  3.7189 -0.1251
  133SAPE  H18S14375   3.982   0.784   9.388 -1.6194  2.3280 -1.2769
  133SAPE  C21914376   4.061   0.981   9.393  0.2363 -0.0990  0.5196
  133SAPE  H19R14377   4.030   0.990   9.287  1.4442 -2.5209 -0.1042
  133SAPE  H19S14378   4.167   0.948   9.386 -0.5924 -3.2638  1.4542
  133SAPE  C22014379   4.048   1.122   9.454  0.0576 -0.3929  0.0501
  133SAPE  H20R14380   4.060   1.122   9.564 -1.0086 -0.7761  0.1726
  133SAPE  H20S14381   3.940   1.146   9.443 -0.3028 -0.4312  2.9544
  133SAPE  H20T14382   4.117   1.202   9.418  0.0889 -0.2047  0.5219
  133SAPE   C3314383   3.929  -0.046   9.922  0.0953 -0.5998 -1.5463
  133SAPE   H3X14384   3.850   0.031   9.941  1.6551  0.7137 -0.0084
  133SAPE   H3Y14385   3.895  -0.149   9.947  0.8169 -0.7834 -1.3007
  133SAPE   C3414386   3.970  -0.049   9.776 -0.0129  0.0798  0.3121
  133SAPE   H4X14387   4.070  -0.092   9.753  0.3427 -0.4298  2.5927
  133SAPE   H4Y14388   3.961   0.057   9.743  1.1753  0.3114  0.6988
  133SAPE   C3514389   3.872  -0.132   9.687 -0.5939 -0.5860 -0.3780
  133SAPE   H5X14390   3.773  -0.082   9.691  0.3072  1.5139 -2.2358
  133SAPE   H5Y14391   3.882  -0.238   9.718 -0.4862 -0.5673 -0.3475
  133SAPE   C3614392   3.913  -0.132   9.540 -0.5530  0.6877  0.2968
  133SAPE   H6X14393   3.877  -0.215   9.475  1.2038  0.3457 -0.2901
  133SAPE   H6Y14394   4.024  -0.126   9.536 -0.5379  0.2316  0.0748
  133SAPE   C3714395   3.873  -0.003   9.472 -0.1920  0.8529  0.6461
  133SAPE   H7X14396   3.908   0.080   9.537  1.4759  0.8492 -0.1930
  133SAPE   H7Y14397   3.762  -0.002   9.469 -0.2178  0.1113 -2.7073
  133SAPE   C3814398   3.921  -0.005   9.324  0.5415 -0.9708 -0.0329
  133SAPE   H8X14399   3.908  -0.102   9.271  2.2823  0.0747 -2.5828
  133SAPE   H8Y14400   4.028   0.022   9.336  0.2705 -0.5578  1.6939
  133SAPE   C3914401   3.842   0.100   9.241  0.1275  0.4774  0.2213
  133SAPE   H9X14402   3.854   0.192   9.302  2.9304 -1.2040  2.4548
  133SAPE   H9Y14403   3.738   0.060   9.241  0.5708 -0.7315 -0.6318
  133SAPE  C31014404   3.893   0.121   9.094  1.1240  0.5422  0.7388
  133SAPE  H10X14405   3.999   0.155   9.098  1.8926 -1.7715  1.4717
  133SAPE  H10Y14406   3.835   0.209   9.058  1.5118  0.4789 -0.0561
  133SAPE  C31114407   3.874   0.006   8.991  0.4693  0.0378 -0.1913
  133SAPE  H11X14408   3.787  -0.057   9.017  1.1669 -1.5295 -1.4659
  133SAPE  H11Y14409   3.961  -0.064   8.988  0.8591  0.4315  1.1983
  133SAPE  C31214410   3.854   0.067   8.853  0.0524 -0.4824 -0.6912
  133SAPE  H12X14411   3.835  -0.013   8.779 -0.5039 -0.1832 -0.8716
  133SAPE  H12Y14412   3.952   0.104   8.815  0.8797 -2.4589 -0.6216
  133SAPE  C31314413   3.735   0.171   8.832  0.4440 -0.1405 -0.4778
  133SAPE  H13X14414   3.757   0.266   8.887  0.7354  0.0125 -0.8551
  133SAPE  H13Y14415   3.646   0.124   8.879  2.6703 -2.9747  1.2063
  133SAPE  C31414416   3.718   0.203   8.682 -0.2119 -0.1535  0.0063
  133SAPE  H14X14417   3.734   0.103   8.635  2.2453 -1.0512  2.4979
  133SAPE  H14Y14418   3.809   0.258   8.650 -1.1201  1.1839 -0.3829
  133SAPE  C31514419   3.590   0.270   8.651  0.1976 -0.5958 -0.5137
  133SAPE  H15X14420   3.573   0.346   8.730  0.0435 -0.0241 -1.0832
  133SAPE  H15Y14421   3.520   0.184   8.644  1.9269 -2.0068 -1.3624
  133SAPE  C31614422   3.597   0.339   8.510  0.2158 -0.1524  0.0270
  133SAPE  H16X14423   3.590   0.275   8.420 -0.7849  2.8727 -2.2304
  133SAPE  H16Y14424   3.688   0.402   8.507  0.5274 -0.6390 -1.3944
  133SAPE  C31714425   3.475   0.437   8.478 -0.4368  0.1082  0.3096
  133SAPE  H17X14426   3.494   0.475   8.375  0.2331 -1.0487 -0.0100
  133SAPE  H17Y14427   3.486   0.522   8.550  0.9062  0.8289 -0.7039
  133SAPE  C31814428   3.336   0.377   8.466  0.4072 -0.4378  0.4988
  133SAPE  H18X14429   3.302   0.326   8.558 -2.7476 -1.6335 -1.1678
  133SAPE  H18Y14430   3.334   0.300   8.386  2.2810  0.1451 -0.1537
  133SAPE  H18Z14431   3.262   0.454   8.437  0.7945 -0.1177  0.3505
  134SAPE     N14432   6.636   1.743  10.799 -0.1676 -0.1265  0.7429
  134SAPE   HN114433   6.737   1.718  10.808 -0.6795 -2.3691  0.8480
  134SAPE   HN214434   6.624   1.844  10.823  0.2207  0.2378 -0.5205
  134SAPE   HN314435   6.589   1.696  10.879 -0.4229  0.4060  0.9154
  134SAPE   C1214436   6.585   1.699  10.662 -0.7074 -0.2353  0.2423
  134SAPE  H12A14437   6.589   1.793  10.602 -0.2745  0.8870  1.9484
  134SAPE  H12B14438   6.480   1.680  10.694 -0.7237  0.3838  0.5795
  134SAPE   C1114439   6.664   1.582  10.609 -0.2753  0.1749  0.5434
  134SAPE  H11A14440   6.771   1.597  10.582  0.2427 -3.8417 -0.4042
  134SAPE  H11B14441   6.617   1.545  10.515 -1.9911 -1.2517  1.8841
  134SAPE     P14442   6.549   1.358  10.700 -0.1341  0.1045  0.2617
  134SAPE   O1314443   6.560   1.264  10.818 -0.2193 -0.3888 -0.4884
  134SAPE   O1414444   6.419   1.432  10.693  0.4053 -0.4837  0.0657
  134SAPE   O1214445   6.662   1.468  10.700 -0.6279 -0.0992  0.1176
  134SAPE   O1114446   6.559   1.273  10.566 -0.0056 -0.0687 -0.1528
  134SAPE    C114447   6.681   1.207  10.523 -0.2349 -0.7826 -0.4329
  134SAPE    HA14448   6.758   1.284  10.502  0.0282 -0.6115  1.0558
  134SAPE    HB14449   6.718   1.138  10.603  0.2540 -2.5201 -2.0873
  134SAPE    C214450   6.660   1.131  10.393 -0.1573  0.2744 -0.3178
  134SAPE    HS14451   6.576   1.060  10.408 -0.4861  0.6416 -0.4084
  134SAPE   O2114452   6.778   1.070  10.342  0.2502  0.0404  0.3870
  134SAPE   C2114453   6.839   0.970  10.402 -0.0796  0.6529 -0.6548
  134SAPE   O2214454   6.797   0.894  10.487  0.4096  0.1851  0.0921
  134SAPE   C2214455   6.987   0.968  10.354  0.3993  0.2659 -0.0497
  134SAPE   H2R14456   7.020   1.072  10.374 -0.9641  0.3785  1.9086
  134SAPE   H2S14457   7.039   0.901  10.425  0.2064  1.8289  1.6448
  134SAPE    C314458   6.614   1.229  10.283 -0.0437  0.7393 -0.0017
  134SAPE    HX14459   6.703   1.295  10.272  0.5116  0.6313  3.0367
  134SAPE    HY14460   6.527   1.284  10.323  1.3083  2.7008  0.4171
  134SAPE   O3114461   6.582   1.161  10.159  0.0267 -0.6633  0.2754
  134SAPE   C3114462   6.455   1.106  10.155 -0.3414 -0.0623 -0.3367
  134SAPE   O3214463   6.377   1.118  10.245 -0.3850 -0.1564  0.4437
  134SAPE   C3214464   6.432   1.027  10.019 -0.1169  0.0463  0.2193
  134SAPE   H2X14465   6.369   0.938  10.040 -1.1069  0.2663 -1.6064
  134SAPE   H2Y14466   6.536   1.001   9.991 -0.9533 -1.5760 -1.6361
  134SAPE   C2314467   6.996   0.930  10.209 -1.0381 -0.0427 -0.4150
  134SAPE   H3R14468   6.920   0.992  10.157 -0.7235 -0.3551 -1.2705
  134SAPE   H3S14469   6.958   0.826  10.201  0.0499 -0.4527 -0.4642
  134SAPE   C2414470   7.134   0.958  10.136  0.0686  0.7722 -0.0092
  134SAPE   H4R14471   7.120   0.946  10.027 -2.4394 -1.6588  0.4369
  134SAPE   H4S14472   7.206   0.881  10.172 -0.3279  0.4526  0.1165
  134SAPE   C2514473   7.195   1.095  10.156  0.0563  0.3781 -0.8417
  134SAPE   H5R14474   7.206   1.125  10.261  0.0160  1.1820 -1.0640
  134SAPE   C2614475   7.240   1.181  10.063  0.4710  0.1315  0.0484
  134SAPE   H6R14476   7.278   1.277  10.100 -1.0274  1.2325 -1.1287
  134SAPE   C2714477   7.254   1.167   9.917  0.3476 -0.9175 -0.1613
  134SAPE   H7R14478   7.299   1.068   9.894 -1.1781 -1.4827 -0.8392
  134SAPE   H7S14479   7.312   1.250   9.872  1.4252 -1.0914  0.8492
  134SAPE   C2814480   7.117   1.157   9.852  0.1180  0.3949  1.2416
  134SAPE   H8R14481   7.031   1.160   9.920  0.4363  0.9271  1.6355
  134SAPE   C2914482   7.098   1.149   9.718  0.0439 -0.0975  0.1451
  134SAPE   H9R14483   6.997   1.142   9.674  0.5881  0.2837 -1.2114
  134SAPE  C21014484   7.215   1.146   9.618  0.0828 -0.3301 -1.0069
  134SAPE  H10R14485   7.315   1.179   9.654 -0.4827  1.0250 -0.6287
  134SAPE  H10S14486   7.206   1.232   9.549  0.8041 -0.0409 -0.7522
  134SAPE  C21114487   7.205   1.007   9.555  0.9380 -0.5984  0.7096
  134SAPE  H11R14488   7.235   0.916   9.608  0.0648 -0.8841  0.7366
  134SAPE  C21214489   7.183   0.992   9.422 -0.1626 -0.6575 -0.0632
  134SAPE  H12R14490   7.179   0.892   9.377 -0.4381 -0.3772 -0.6771
  134SAPE  C21314491   7.155   1.092   9.313  0.2061  0.4067 -0.7887
  134SAPE  H13R14492   7.073   1.156   9.351  0.2185  0.0676 -0.1853
  134SAPE  H13S14493   7.108   1.037   9.228  1.8994 -0.1966 -1.3836
  134SAPE  C21414494   7.276   1.173   9.263  0.1537 -0.6875 -0.1786
  134SAPE  H14R14495   7.375   1.130   9.283 -0.1173 -2.7883 -2.6486
  134SAPE  C21514496   7.263   1.268   9.170 -0.0812 -0.1944  0.5266
  134SAPE  H15R14497   7.344   1.327   9.127 -2.0498  1.7923 -0.6722
  134SAPE  C21614498   7.127   1.310   9.112  0.3114  0.6183 -0.8096
  134SAPE  H16R14499   7.129   1.420   9.097 -2.6152  0.8589  0.0038
  134SAPE  H16S14500   7.035   1.294   9.172  0.2669  0.5030 -0.9107
  134SAPE  C21714501   7.092   1.241   8.976  0.7256 -0.6644 -0.0664
  134SAPE  H17R14502   6.987   1.253   8.942  1.0248 -0.4183 -0.9144
  134SAPE  H17S14503   7.105   1.133   9.001 -1.2472 -1.0768 -0.6666
  134SAPE  C21814504   7.189   1.274   8.854  0.0690 -0.0095  0.1116
  134SAPE  H18R14505   7.137   1.219   8.773 -0.2185  0.6584 -0.1646
  134SAPE  H18S14506   7.292   1.235   8.865 -0.9480 -2.6702  1.0101
  134SAPE  C21914507   7.208   1.429   8.826 -0.1812  0.0140 -0.4480
  134SAPE  H19R14508   7.291   1.466   8.891 -0.5971 -0.5969  0.4495
  134SAPE  H19S14509   7.118   1.487   8.852  0.4961  0.6259  0.6322
  134SAPE  C22014510   7.258   1.456   8.690  0.4000 -0.1442 -0.3259
  134SAPE  H20R14511   7.271   1.566   8.682  1.3875 -0.1401  1.0178
  134SAPE  H20S14512   7.199   1.413   8.607  3.4006 -0.9140 -2.1994
  134SAPE  H20T14513   7.357   1.412   8.667  0.1340  0.2815 -2.5565
  134SAPE   C3314514   6.369   1.115   9.911  0.0344 -0.4868 -0.3878
  134SAPE   H3X14515   6.425   1.210   9.922  3.2046 -1.8279 -3.0233
  134SAPE   H3Y14516   6.266   1.128   9.949  1.0427 -2.3661  3.5303
  134SAPE   C3414517   6.371   1.063   9.772 -0.2610  0.3695  0.1906
  134SAPE   H4X14518   6.313   0.970   9.755  3.2202 -1.9862  0.1625
  134SAPE   H4Y14519   6.476   1.035   9.747 -0.5248 -1.3968  0.8844
  134SAPE   C3514520   6.348   1.171   9.669  0.4372 -0.1055  0.6139
  134SAPE   H5X14521   6.409   1.264   9.669 -0.9941  0.8816  1.9978
  134SAPE   H5Y14522   6.244   1.207   9.678  0.3169 -0.8545  2.6499
  134SAPE   C3614523   6.365   1.100   9.527  0.5790  0.1868 -0.8484
  134SAPE   H6X14524   6.283   1.025   9.522  1.9824 -1.3882 -1.1195
  134SAPE   H6Y14525   6.460   1.042   9.515 -1.1288 -2.6718 -1.6073
  134SAPE   C3714526   6.363   1.199   9.410 -0.1506  0.3470 -0.4063
  134SAPE   H7X14527   6.457   1.254   9.432  0.4559 -0.0115 -1.9846
  134SAPE   H7Y14528   6.272   1.260   9.429  0.1328  0.7916 -0.4697
  134SAPE   C3814529   6.352   1.127   9.279 -0.9884 -0.1761  0.0773
  134SAPE   H8X14530   6.270   1.052   9.278  0.8420 -2.3502 -2.9032
  134SAPE   H8Y14531   6.448   1.074   9.267 -1.7983 -1.8339  0.6937
  134SAPE   C3914532   6.321   1.228   9.170  0.4830  0.1885 -0.2376
  134SAPE   H9X14533   6.409   1.291   9.146  1.1561 -1.1757 -1.4692
  134SAPE   H9Y14534   6.235   1.291   9.201  0.7174  0.6497 -0.5153
  134SAPE  C31014535   6.283   1.165   9.030 -0.8342  0.0507  0.2700
  134SAPE  H10X14536   6.298   1.241   8.951 -0.1509 -1.1562 -0.8011
  134SAPE  H10Y14537   6.177   1.130   9.036 -0.0576 -2.4626  0.4276
  134SAPE  C31114538   6.365   1.041   8.997 -0.0107  0.3098 -0.1845
  134SAPE  H11X14539   6.344   0.952   9.061  1.6658 -0.5117 -0.7149
  134SAPE  H11Y14540   6.471   1.067   9.014 -0.4380  1.1774  1.2641
  134SAPE  C31214541   6.346   1.006   8.846 -0.0364  0.0551 -0.0728
  134SAPE  H12X14542   6.413   1.077   8.792  0.3105 -1.1754 -1.3208
  134SAPE  H12Y14543   6.237   1.005   8.825 -0.2567  0.7833  0.9692
  134SAPE  C31314544   6.409   0.870   8.804  0.2432  0.0713 -0.2857
  134SAPE  H13X14545   6.517   0.871   8.827  0.0426 -1.0036  0.7624
  134SAPE  H13Y14546   6.398   0.851   8.695  1.5105  0.5441 -0.5067
  134SAPE  C31414547   6.352   0.746   8.885 -0.0338 -0.7628  0.3964
  134SAPE  H14X14548   6.395   0.751   8.987 -0.8785 -3.0415  0.9355
  134SAPE  H14Y14549   6.406   0.662   8.837  0.5329  0.6778 -1.6025
  134SAPE  C31514550   6.205   0.711   8.874  0.1495 -0.2286  0.8167
  134SAPE  H15X14551   6.137   0.789   8.914 -1.2368 -0.3765 -1.1017
  134SAPE  H15Y14552   6.176   0.623   8.936  0.5765 -1.0054 -0.0599
  134SAPE  C31614553   6.159   0.659   8.734  0.3726  1.1486  0.0596
  134SAPE  H16X14554   6.150   0.752   8.673 -4.3581  0.8142 -0.1147
  134SAPE  H16Y14555   6.059   0.611   8.745  1.0922 -0.1047  1.4334
  134SAPE  C31714556   6.255   0.572   8.660  0.7308 -0.2381  1.0077
  134SAPE  H17X14557   6.313   0.508   8.729  1.9930  0.6923  0.8454
  134SAPE  H17Y14558   6.335   0.635   8.615  1.4170 -0.7516  1.4891
  134SAPE  C31814559   6.184   0.486   8.557 -0.3726  0.3477 -0.4953
  134SAPE  H18X14560   6.254   0.458   8.475  0.7377  0.8543  0.2550
  134SAPE  H18Y14561   6.093   0.527   8.508 -0.0626  1.0556 -0.4836
  134SAPE  H18Z14562   6.145   0.391   8.600  0.4354  0.3180  0.2001
  135SAPE     N14563   0.164   5.009  10.324  0.2757 -0.3002  0.1832
  135SAPE   HN114564   0.224   5.019  10.240  1.2250 -1.1740  0.7350
  135SAPE   HN214565   0.105   4.924  10.316 -0.2505 -0.2293  2.5876
  135SAPE   HN314566   0.103   5.094  10.324  1.4780  0.5891  1.3548
  135SAPE   C1214567   0.247   5.002  10.446 -0.6093 -1.1174 -0.5225
  135SAPE  H12A14568   0.297   4.903  10.449 -0.3994 -1.0018 -0.3075
  135SAPE  H12B14569   0.181   5.007  10.535  0.2275 -0.3343  0.0694
  135SAPE   C1114570   0.348   5.121  10.454  0.4551 -0.0296 -0.0297
  135SAPE  H11A14571   0.408   5.139  10.362  1.1690 -0.0563  0.4223
  135SAPE  H11B14572   0.425   5.093  10.529  0.5003  1.9324  0.7329
  135SAPE     P14573   0.193   5.328  10.407 -0.2379 -0.0356  0.0631
  135SAPE   O1314574   0.056   5.307  10.450  0.4906 -0.0747  0.9461
  135SAPE   O1414575   0.242   5.467  10.404 -0.1138 -0.1026  0.4275
  135SAPE   O1214576   0.289   5.247  10.503 -0.2518 -0.2958  0.3639
  135SAPE   O1114577   0.206   5.265  10.266  0.4366 -0.1780 -0.1700
  135SAPE    C114578   0.160   5.338  10.149  0.1029 -0.3026 -0.1766
  135SAPE    HA14579   0.050   5.353  10.153  0.2185  0.2958  1.9547
  135SAPE    HB14580   0.206   5.438  10.140  1.4173 -0.9103 -0.4559
  135SAPE    C214581   0.188   5.239  10.031 -0.5437  0.6366  0.9177
  135SAPE    HS14582   0.143   5.145  10.070  1.6154 -1.0686 -0.4799
  135SAPE   O2114583   0.329   5.230  10.005 -0.3312 -0.5903 -0.1364
  135SAPE   C2114584   0.395   5.129  10.054  0.4086 -0.2666 -0.2584
  135SAPE   O2214585   0.341   5.041  10.122 -0.2492  0.1207  0.3994
  135SAPE   C2214586   0.546   5.150  10.045 -0.1065  0.0574  0.1653
  135SAPE   H2R14587   0.580   5.184   9.945 -0.8265 -0.7228 -0.3489
  135SAPE   H2S14588   0.568   5.240  10.107  1.9675 -0.3249  0.0671
  135SAPE    C314589   0.111   5.281   9.898  0.4475  0.4439  0.8511
  135SAPE    HX14590   0.119   5.195   9.828 -1.8802 -0.1884  1.2895
  135SAPE    HY14591   0.151   5.372   9.850 -2.2140  0.5802 -1.3308
  135SAPE   O3114592  -0.033   5.299   9.920 -0.1018  0.2774 -0.2900
  135SAPE   C3114593  -0.099   5.186   9.918  0.1195 -0.0562 -0.4130
  135SAPE   O3214594  -0.054   5.080   9.880  0.5902 -0.2925  0.0765
  135SAPE   C3214595  -0.242   5.215   9.955 -0.7496  0.0628 -0.1979
  135SAPE   H2X14596  -0.269   5.312   9.909  0.5070 -0.3464 -1.8790
  135SAPE   H2Y14597  -0.232   5.218  10.066 -2.3795 -2.0115  0.0558
  135SAPE   C2314598   0.623   5.026  10.114 -0.1095 -0.0479  0.1118
  135SAPE   H3R14599   0.562   4.996  10.202  1.2071  0.0041  1.0687
  135SAPE   H3S14600   0.723   5.054  10.154 -0.3901  0.1833  0.6582
  135SAPE   C2414601   0.647   4.912  10.016  0.7090  0.1406  0.2811
  135SAPE   H4R14602   0.557   4.899   9.952  0.4535  1.3695  0.3609
  135SAPE   H4S14603   0.665   4.815  10.066  0.2312 -0.5879 -0.9386
  135SAPE   C2514604   0.756   4.945   9.921 -0.4502  0.5578  0.4486
  135SAPE   H5R14605   0.856   4.956   9.967 -1.4210  1.1323  2.5790
  135SAPE   C2614606   0.736   4.941   9.785 -0.9978 -0.4944 -0.1920
  135SAPE   H6R14607   0.825   4.961   9.723  1.2270 -0.7794  2.6576
  135SAPE   C2714608   0.608   4.920   9.716 -0.1049  0.2335 -0.2259
  135SAPE   H7R14609   0.520   4.978   9.753 -0.5594 -0.7659  0.3162
  135SAPE   H7S14610   0.581   4.814   9.739 -0.7334  0.4170 -0.0900
  135SAPE   C2814611   0.613   4.921   9.570 -0.6901  0.5227 -0.2173
  135SAPE   H8R14612   0.698   4.873   9.519 -0.0574  1.4473 -0.0651
  135SAPE   C2914613   0.518   4.994   9.496 -0.3473  0.0765 -0.2109
  135SAPE   H9R14614   0.534   4.997   9.387  0.1335  4.1851 -0.2138
  135SAPE  C21014615   0.414   5.083   9.556 -0.1094 -0.1082  0.8050
  135SAPE  H10R14616   0.458   5.141   9.639  0.2720 -0.0468  0.5615
  135SAPE  H10S14617   0.341   5.024   9.615 -0.1354 -1.7844 -0.8190
  135SAPE  C21114618   0.365   5.187   9.455 -0.2093  0.3533 -0.0574
  135SAPE  H11R14619   0.450   5.238   9.406  0.4934 -1.5026 -0.8797
  135SAPE  C21214620   0.236   5.213   9.424 -0.3239 -0.0993  0.4683
  135SAPE  H12R14621   0.228   5.284   9.340 -0.2885  0.1976  0.7148
  135SAPE  C21314622   0.116   5.133   9.470  0.0509 -0.2590 -0.4816
  135SAPE  H13R14623   0.044   5.207   9.512 -1.2101 -2.5057  1.5542
  135SAPE  H13S14624   0.145   5.074   9.559  0.6489  2.5618  1.3346
  135SAPE  C21414625   0.039   5.048   9.366  0.1143 -0.0819  0.1378
  135SAPE  H14R14626   0.094   4.957   9.340  2.2661  0.5737  2.0451
  135SAPE  C21514627  -0.075   5.086   9.308  0.8707  0.3283  0.0563
  135SAPE  H15R14628  -0.117   5.017   9.233  1.7175 -0.7311  0.5140
  135SAPE  C21614629  -0.159   5.207   9.342 -0.1853 -0.4950 -0.5003
  135SAPE  H16R14630  -0.120   5.281   9.416 -0.8622  0.8545 -1.4389
  135SAPE  H16S14631  -0.251   5.163   9.385  0.4165 -0.4081  0.9606
  135SAPE  C21714632  -0.197   5.278   9.214  0.4579  0.2268 -0.5251
  135SAPE  H17R14633  -0.263   5.358   9.254  1.7409 -0.6740  3.9542
  135SAPE  H17S14634  -0.270   5.217   9.156  0.7930  0.6116 -1.3571
  135SAPE  C21814635  -0.090   5.334   9.110 -0.0787  0.3843 -1.2915
  135SAPE  H18R14636  -0.047   5.244   9.061  1.2366  0.2765 -0.0156
  135SAPE  H18S14637  -0.009   5.379   9.172 -1.6208  0.8192  0.5047
  135SAPE  C21914638  -0.140   5.431   9.001  0.6329 -0.4043 -0.1464
  135SAPE  H19R14639  -0.166   5.530   9.044  1.7203  0.1332 -0.6889
  135SAPE  H19S14640  -0.237   5.390   8.966 -1.2122  1.9383  1.8081
  135SAPE  C22014641  -0.053   5.444   8.881 -0.3807  0.0487  0.2189
  135SAPE  H20R14642  -0.102   5.497   8.797 -1.1623 -2.1824 -0.8190
  135SAPE  H20S14643  -0.015   5.343   8.853 -0.9247 -0.8655  2.5256
  135SAPE  H20T14644   0.036   5.505   8.908 -0.9249  0.3092  1.4753
  135SAPE   C3314645  -0.346   5.103   9.926 -0.0047 -0.0707 -0.1553
  135SAPE   H3X14646  -0.367   5.036  10.012 -0.6961 -0.4542 -0.6103
  135SAPE   H3Y14647  -0.314   5.035   9.844  1.0795 -0.3719  0.5032
  135SAPE   C3414648  -0.480   5.155   9.864  0.0827  1.2108 -0.4570
  135SAPE   H4X14649  -0.465   5.206   9.766  2.3941 -0.4158 -1.0202
  135SAPE   H4Y14650  -0.517   5.225   9.942  2.3663  0.3133  1.5614
  135SAPE   C3514651  -0.579   5.037   9.846  0.4626  0.2088 -0.4151
  135SAPE   H5X14652  -0.582   4.966   9.931  0.2977  1.7922  0.9454
  135SAPE   H5Y14653  -0.539   4.966   9.770  1.8675 -2.0887  2.2940
  135SAPE   C3614654  -0.726   5.079   9.813 -0.1160  0.3603 -0.2265
  135SAPE   H6X14655  -0.768   5.145   9.892  0.8173 -1.4576  1.9233
  135SAPE   H6Y14656  -0.793   4.990   9.812  0.3221  0.0336 -1.2725
  135SAPE   C3714657  -0.749   5.145   9.681 -0.0542 -0.1598 -1.0558
  135SAPE   H7X14658  -0.680   5.231   9.669 -0.1545  0.0607 -0.1365
  135SAPE   H7Y14659  -0.850   5.192   9.683  0.4777  1.0102 -0.7895
  135SAPE   C3814660  -0.719   5.051   9.566 -0.6404  0.2537 -1.2806
  135SAPE   H8X14661  -0.763   4.954   9.597 -0.8191  1.2563  1.9198
  135SAPE   H8Y14662  -0.609   5.039   9.555 -0.5794  0.3141 -0.7284
  135SAPE   C3914663  -0.781   5.096   9.437 -0.1531 -0.4090 -0.5144
  135SAPE   H9X14664  -0.738   5.196   9.416  1.1508 -1.1905 -1.8163
  135SAPE   H9Y14665  -0.891   5.091   9.451  0.0261 -0.7452  0.8748
  135SAPE  C31014666  -0.747   4.996   9.325 -0.1445  0.1234 -0.1130
  135SAPE  H10X14667  -0.742   4.892   9.364  1.5926  0.5412  0.8853
  135SAPE  H10Y14668  -0.642   5.023   9.301  0.3835 -1.4852  0.2176
  135SAPE  C31114669  -0.839   5.010   9.208 -0.2421  0.2492  0.2088
  135SAPE  H11X14670  -0.849   5.116   9.176 -3.6845  0.4213  1.4879
  135SAPE  H11Y14671  -0.947   5.000   9.232 -0.9539  1.7668 -2.0064
  135SAPE  C31214672  -0.787   4.922   9.081  0.0352  0.5169 -0.0207
  135SAPE  H12X14673  -0.800   4.815   9.107  3.4239  0.0808  0.3428
  135SAPE  H12Y14674  -0.679   4.940   9.064  0.5695 -2.5132 -0.3424
  135SAPE  C31314675  -0.865   4.963   8.958  0.5688 -0.8129 -0.5595
  135SAPE  H13X14676  -0.850   5.070   8.934 -0.0833 -0.3494  1.0092
  135SAPE  H13Y14677  -0.974   4.941   8.965  0.7491 -2.3613 -1.9853
  135SAPE  C31414678  -0.824   4.887   8.834  0.4077  0.7069  0.4910
  135SAPE  H14X14679  -0.836   4.779   8.856 -0.5752  0.7325  0.1337
  135SAPE  H14Y14680  -0.718   4.902   8.802  0.2720 -0.3591 -0.5201
  135SAPE  C31514681  -0.914   4.938   8.719  0.3431  0.5941  0.0563
  135SAPE  H15X14682  -0.911   5.049   8.718 -0.2548  0.6551 -2.6550
  135SAPE  H15Y14683  -1.013   4.897   8.749  0.2393 -0.6166 -1.7751
  135SAPE  C31614684  -0.880   4.880   8.580 -0.1876  0.9352 -0.2803
  135SAPE  H16X14685  -0.778   4.918   8.555  0.6242 -0.6909  0.4592
  135SAPE  H16Y14686  -0.951   4.928   8.509 -2.8395  0.1235  1.6785
  135SAPE  C31714687  -0.887   4.728   8.568  0.3287 -0.8368  0.5765
  135SAPE  H17X14688  -0.830   4.688   8.655 -2.1232 -0.0896  2.6767
  135SAPE  H17Y14689  -0.840   4.700   8.472 -0.0213 -1.9414  0.7103
  135SAPE  C31814690  -1.033   4.681   8.574  0.0457 -0.9638 -0.8088
  135SAPE  H18X14691  -1.085   4.700   8.477 -2.0829  2.6140  0.8105
  135SAPE  H18Y14692  -1.094   4.725   8.656  0.8164 -1.1552 -0.1179
  135SAPE  H18Z14693  -1.028   4.573   8.599  0.4557 -0.5908  0.8380
  136SAPE     N14694   1.310   5.774  11.011  0.3805  0.4127 -0.5106
  136SAPE   HN114695   1.248   5.800  10.931  1.0327  0.5449 -0.9843
  136SAPE   HN214696   1.244   5.732  11.080  0.9974 -3.7516 -2.1386
  136SAPE   HN314697   1.351   5.865  11.041  1.3857 -0.0864 -0.3284
  136SAPE   C1214698   1.420   5.681  10.987  0.4203 -0.1407  0.0267
  136SAPE  H12A14699   1.370   5.597  10.936  0.8523 -0.2762 -0.1801
  136SAPE  H12B14700   1.470   5.653  11.082 -2.0002  0.5855  1.5998
  136SAPE   C1114701   1.511   5.751  10.888 -0.5709  0.1228  0.5651
  136SAPE  H11A14702   1.463   5.740  10.788  0.8451  0.2721 -0.1530
  136SAPE  H11B14703   1.610   5.703  10.890 -0.4754  0.3221  0.6923
  136SAPE     P14704   1.663   5.959  10.920 -0.0479 -0.0615 -0.0747
  136SAPE   O1314705   1.645   6.104  10.953 -0.1234  0.1434 -0.2438
  136SAPE   O1414706   1.754   5.884  11.009 -0.4700  0.0016  0.0656
  136SAPE   O1214707   1.521   5.892  10.913 -0.6483 -0.3650  0.0081
  136SAPE   O1114708   1.711   5.957  10.771 -0.2526 -0.2310  0.0249
  136SAPE    C114709   1.645   6.033  10.670  0.4140  0.0771  0.4496
  136SAPE    HA14710   1.556   6.089  10.705  0.5933  0.5988  0.0783
  136SAPE    HB14711   1.708   6.114  10.628 -0.1675  0.4256  0.2404
  136SAPE    C214712   1.592   5.930  10.565 -0.6167 -0.9208 -0.1326
  136SAPE    HS14713   1.538   5.855  10.626  0.0748 -0.9803  0.4230
  136SAPE   O2114714   1.707   5.881  10.499  0.5978 -0.3410 -0.3504
  136SAPE   C2114715   1.689   5.753  10.458 -0.0630 -0.0826  0.0769
  136SAPE   O2214716   1.591   5.684  10.468  0.3398 -0.5616  0.1665
  136SAPE   C2214717   1.815   5.715  10.374  0.6607  0.0455 -0.3329
  136SAPE   H2R14718   1.893   5.672  10.440 -0.2145  0.3245  0.9124
  136SAPE   H2S14719   1.785   5.638  10.300 -1.4811  1.2971 -0.8527
  136SAPE    C314720   1.487   5.988  10.467  0.4281 -0.1577  0.8756
  136SAPE    HX14721   1.401   6.038  10.517  1.0321 -0.1412  1.9251
  136SAPE    HY14722   1.424   5.918  10.409 -0.6224  0.7301  0.9140
  136SAPE   O3114723   1.542   6.082  10.377  0.8230  0.1943 -0.3401
  136SAPE   C3114724   1.563   6.031  10.253 -0.7987 -1.0082 -0.1581
  136SAPE   O3214725   1.558   5.910  10.225 -0.2933 -0.5428  0.2828
  136SAPE   C3214726   1.579   6.147  10.156  0.6092  0.0417  0.3689
  136SAPE   H2X14727   1.557   6.240  10.212 -3.3316 -0.1720 -0.5401
  136SAPE   H2Y14728   1.502   6.132  10.077  1.1520 -2.7011  0.2421
  136SAPE   C2314729   1.880   5.837  10.309  0.3388  0.0989 -0.7955
  136SAPE   H3R14730   1.925   5.900  10.389 -1.3407  2.2975 -1.4699
  136SAPE   H3S14731   1.795   5.899  10.271 -1.6930 -3.0917 -1.8437
  136SAPE   C2414732   1.966   5.800  10.195  0.4331 -0.3439 -0.1228
  136SAPE   H4R14733   1.991   5.891  10.137 -0.1659  0.7274  1.2359
  136SAPE   H4S14734   1.902   5.742  10.126 -0.4064  1.6864 -1.1378
  136SAPE   C2514735   2.093   5.731  10.240  1.0113 -0.1852  0.0819
  136SAPE   H5R14736   2.135   5.763  10.336 -2.1932 -1.2436  1.9689
  136SAPE   C2614737   2.164   5.643  10.169 -0.3141 -0.1128  0.1957
  136SAPE   H6R14738   2.246   5.591  10.221  0.1851 -0.9406 -1.3470
  136SAPE   C2714739   2.122   5.611  10.026 -0.0183  0.1913 -0.1600
  136SAPE   H7R14740   2.012   5.598  10.024  0.2747 -3.5029 -0.5186
  136SAPE   H7S14741   2.156   5.508  10.000 -0.4557  0.2607 -1.0281
  136SAPE   C2814742   2.169   5.714   9.925  0.3131 -0.0523  0.0080
  136SAPE   H8R14743   2.242   5.788   9.962  0.5449 -0.5271  0.5247
  136SAPE   C2914744   2.136   5.708   9.791  0.5604  0.0683  0.3989
  136SAPE   H9R14745   2.155   5.795   9.725 -1.3212 -0.1467 -0.4929
  136SAPE  C21014746   2.051   5.607   9.718 -0.6432  0.3131  0.3457
  136SAPE  H10R14747   1.994   5.662   9.640  2.3767 -0.8421 -2.9714
  136SAPE  H10S14748   1.982   5.557   9.789 -1.2268 -0.4222 -0.7134
  136SAPE  C21114749   2.130   5.494   9.661 -0.2672 -0.8183  0.0461
  136SAPE  H11R14750   2.166   5.422   9.736  0.7510 -0.4956 -0.1234
  136SAPE  C21214751   2.166   5.466   9.536 -0.2754 -0.1070  0.7470
  136SAPE  H12R14752   2.223   5.376   9.508 -0.1730  0.2138 -0.0905
  136SAPE  C21314753   2.129   5.533   9.407 -0.1091 -0.8909  0.3642
  136SAPE  H13R14754   2.095   5.636   9.429  1.9427 -0.2588  0.7678
  136SAPE  H13S14755   2.061   5.457   9.363  1.7904 -2.3725 -0.1821
  136SAPE  C21414756   2.249   5.555   9.320  0.2216 -0.2319 -0.4061
  136SAPE  H14R14757   2.304   5.646   9.349 -0.4039 -0.2199  0.7967
  136SAPE  C21514758   2.288   5.474   9.218 -0.0140 -0.3441 -0.0181
  136SAPE  H15R14759   2.375   5.510   9.162 -1.1615 -0.1251 -1.7317
  136SAPE  C21614760   2.236   5.341   9.173 -0.4613 -0.4285  0.4233
  136SAPE  H16R14761   2.134   5.321   9.212 -0.3437  1.3246  1.7794
  136SAPE  H16S14762   2.290   5.267   9.236 -2.7790 -2.5800  0.0158
  136SAPE  C21714763   2.237   5.305   9.021  0.8745 -0.0238 -0.1150
  136SAPE  H17R14764   2.202   5.394   8.964  1.9821  1.5003  1.4874
  136SAPE  H17S14765   2.165   5.222   9.008  0.2851  0.3645  0.5554
  136SAPE  C21814766   2.377   5.257   8.988 -0.1748  0.4344  0.2658
  136SAPE  H18R14767   2.403   5.182   9.066  0.5366 -0.7736 -1.0667
  136SAPE  H18S14768   2.445   5.345   8.994  1.0186 -0.4861  0.8332
  136SAPE  C21914769   2.373   5.196   8.850 -0.1151  0.5803  0.0275
  136SAPE  H19R14770   2.477   5.162   8.832 -0.1760 -0.3486  1.2934
  136SAPE  H19S14771   2.345   5.268   8.770 -1.8134  1.7446  1.5835
  136SAPE  C22014772   2.289   5.061   8.831  0.6677 -0.4495 -0.5225
  136SAPE  H20R14773   2.305   5.024   8.728  0.6324  2.3388 -1.6132
  136SAPE  H20S14774   2.182   5.086   8.842  0.7910  0.0102 -0.3060
  136SAPE  H20T14775   2.312   4.982   8.906 -0.3121  0.0677  0.3424
  136SAPE   C3314776   1.710   6.141  10.071 -0.1215 -0.5737  0.2812
  136SAPE   H3X14777   1.792   6.093  10.127  0.8482  1.0453  0.3163
  136SAPE   H3Y14778   1.749   6.245  10.074  1.2439 -1.0935  1.6571
  136SAPE   C3414779   1.713   6.089   9.928 -0.0222  0.1090 -0.0204
  136SAPE   H4X14780   1.646   6.143   9.858  1.1415  1.9178  0.1955
  136SAPE   H4Y14781   1.670   5.987   9.933  0.8875 -0.3331 -1.0040
  136SAPE   C3514782   1.850   6.072   9.862 -0.4232  0.3836 -0.4524
  136SAPE   H5X14783   1.911   6.000   9.920 -1.2632 -0.3951 -0.5168
  136SAPE   H5Y14784   1.890   6.175   9.865 -0.5682  0.4999 -1.7978
  136SAPE   C3614785   1.817   6.032   9.718  0.2111 -0.3863  0.5018
  136SAPE   H6X14786   1.756   6.114   9.675  2.8592  1.6529  0.3416
  136SAPE   H6Y14787   1.769   5.932   9.720  2.7209 -1.7044 -0.5197
  136SAPE   C3714788   1.946   6.016   9.629  0.0638  0.5179 -0.0856
  136SAPE   H7X14789   2.000   5.931   9.675 -2.1116 -0.1870  1.3148
  136SAPE   H7Y14790   1.999   6.113   9.640  0.6054  0.2661 -0.4559
  136SAPE   C3814791   1.932   5.992   9.473 -0.3059  0.4293 -0.4278
  136SAPE   H8X14792   1.865   6.071   9.434 -1.9073 -0.2282  0.8850
  136SAPE   H8Y14793   1.884   5.896   9.447  0.0210 -0.1387  0.9597
  136SAPE   C3914794   2.070   5.995   9.405  0.0229  0.0409 -0.0919
  136SAPE   H9X14795   2.121   5.917   9.464 -1.2731 -0.1328  0.8482
  136SAPE   H9Y14796   2.130   6.085   9.426  0.9668 -0.0736 -2.0568
  136SAPE  C31014797   2.063   5.968   9.253  0.9550  0.4311 -0.2047
  136SAPE  H10X14798   1.989   6.022   9.190  2.1969  0.9434 -1.2756
  136SAPE  H10Y14799   2.039   5.859   9.253  1.1933  0.2786 -3.5882
  136SAPE  C31114800   2.199   5.977   9.192 -1.1277 -1.1361 -0.3696
  136SAPE  H11X14801   2.269   5.921   9.257 -2.3144 -1.6200  0.5249
  136SAPE  H11Y14802   2.238   6.080   9.204 -0.0024 -1.6075  0.2024
  136SAPE  C31214803   2.196   5.934   9.048 -0.2129  0.6182  0.0387
  136SAPE  H12X14804   2.130   5.995   8.983  1.7484  3.1180  0.2686
  136SAPE  H12Y14805   2.162   5.828   9.051 -1.4927  1.0227  0.5476
  136SAPE  C31314806   2.327   5.940   8.972 -0.6114  0.0872 -0.6095
  136SAPE  H13X14807   2.402   5.871   9.017 -0.4710  0.9676  0.5389
  136SAPE  H13Y14808   2.359   6.046   8.971 -2.0618  0.5593 -0.1514
  136SAPE  C31414809   2.307   5.895   8.826  0.4610 -0.2155  0.3561
  136SAPE  H14X14810   2.232   5.952   8.767  2.5924  1.8748 -0.4781
  136SAPE  H14Y14811   2.263   5.793   8.818  0.8993 -0.4021  0.2971
  136SAPE  C31514812   2.442   5.909   8.758 -0.3117 -0.3679 -0.0677
  136SAPE  H15X14813   2.495   5.813   8.740  3.7948  1.4833  1.0274
  136SAPE  H15Y14814   2.514   5.970   8.816 -0.5373 -1.8139  1.8114
  136SAPE  C31614815   2.435   5.981   8.621  0.4539 -0.8668  0.3594
  136SAPE  H16X14816   2.396   6.084   8.637  4.0152  0.4389  1.5887
  136SAPE  H16Y14817   2.363   5.923   8.559  0.1572  0.2487 -0.3717
  136SAPE  C31714818   2.574   5.998   8.563  0.5678  0.7480  0.0646
  136SAPE  H17X14819   2.625   5.902   8.540 -1.3272 -0.2346 -0.2206
  136SAPE  H17Y14820   2.634   6.061   8.633  0.4902  0.2513  0.5851
  136SAPE  C31814821   2.562   6.083   8.433 -0.3087  0.1998 -0.2089
  136SAPE  H18X14822   2.489   6.036   8.363 -1.6405  0.2966  1.0437
  136SAPE  H18Y14823   2.657   6.098   8.378 -0.1567  1.2899  0.3352
  136SAPE  H18Z14824   2.516   6.182   8.453  1.5407  1.4192 -1.7307
  137SAPE     N14825   0.894   3.168  10.841 -0.1664  0.2494 -0.2575
  137SAPE   HN114826   0.936   3.167  10.746 -1.2593  0.4961 -0.7611
  137SAPE   HN214827   0.811   3.231  10.838 -1.1024 -0.9472  0.0358
  137SAPE   HN314828   0.954   3.229  10.900 -0.7979 -1.0809  1.8414
  137SAPE   C1214829   0.858   3.031  10.904  0.3820 -0.2620  0.4759
  137SAPE  H12A14830   0.779   2.980  10.844  0.9171 -2.1983  1.3328
  137SAPE  H12B14831   0.817   3.070  10.999  2.2564  3.3305 -0.0037
  137SAPE   C1114832   0.974   2.935  10.923  0.4414 -0.2436 -0.3797
  137SAPE  H11A14833   1.005   2.883  10.829  1.2400 -1.8383  0.7312
  137SAPE  H11B14834   0.934   2.859  10.993 -0.9565 -0.5546 -1.4695
  137SAPE     P14835   1.226   2.931  11.001  0.0566 -0.2212  0.3973
  137SAPE   O1314836   1.344   3.021  10.996 -0.1442  0.6369  0.6370
  137SAPE   O1414837   1.217   2.854  11.124 -0.4228  0.3611 -0.5213
  137SAPE   O1214838   1.087   3.002  10.981 -0.3855  0.0131  0.0225
  137SAPE   O1114839   1.231   2.834  10.878 -0.0248 -0.4805 -0.0109
  137SAPE    C114840   1.243   2.880  10.740 -0.8952  0.4898  0.2311
  137SAPE    HA14841   1.205   2.797  10.677  1.4413 -0.6838  0.3001
  137SAPE    HB14842   1.184   2.974  10.725 -1.9797  0.4512  3.4061
  137SAPE    C214843   1.391   2.893  10.704  0.3386 -0.3563 -0.2091
  137SAPE    HS14844   1.438   2.958  10.780 -0.6519 -1.0870  1.0825
  137SAPE   O2114845   1.411   2.943  10.569 -0.1871 -0.3386 -0.0477
  137SAPE   C2114846   1.376   3.067  10.560 -0.1649 -0.2082  0.3627
  137SAPE   O2214847   1.366   3.147  10.655  0.3072 -0.1563 -0.3549
  137SAPE   C2214848   1.316   3.079  10.413  0.1783  0.1217 -0.5284
  137SAPE   H2R14849   1.333   2.979  10.369  2.4248 -0.2317  0.9924
  137SAPE   H2S14850   1.209   3.106  10.429  0.9455  3.5456 -0.3303
  137SAPE    C314851   1.476   2.764  10.717 -0.5072  0.1672 -0.9408
  137SAPE    HX14852   1.451   2.722  10.817 -0.0696  0.8482 -0.5352
  137SAPE    HY14853   1.580   2.799  10.701  0.5932 -1.9493  0.9278
  137SAPE   O3114854   1.432   2.671  10.609  0.7179 -0.4591  0.1162
  137SAPE   C3114855   1.480   2.553  10.603  0.2315 -0.7973 -0.9908
  137SAPE   O3214856   1.564   2.510  10.676 -0.2254 -0.2352  0.0244
  137SAPE   C3214857   1.421   2.484  10.487 -0.8371  0.2226 -0.2946
  137SAPE   H2X14858   1.314   2.512  10.477 -1.2150 -0.8489  0.4910
  137SAPE   H2Y14859   1.422   2.373  10.494 -1.6567  0.1395 -1.2279
  137SAPE   C2314860   1.386   3.205  10.355 -0.4274 -0.0874 -0.3541
  137SAPE   H3R14861   1.491   3.208  10.392 -0.7687 -0.2476  0.6745
  137SAPE   H3S14862   1.343   3.302  10.388  1.1677  1.0685 -1.5602
  137SAPE   C2414863   1.401   3.190  10.202 -0.0770  0.2678 -0.6294
  137SAPE   H4R14864   1.420   3.082  10.186  2.5386  0.9062 -2.6108
  137SAPE   H4S14865   1.498   3.231  10.166 -0.1131 -0.9920 -2.2603
  137SAPE   C2514866   1.278   3.223  10.124  0.5141 -0.4185 -0.2697
  137SAPE   H5R14867   1.180   3.191  10.162  0.7164  0.0034  0.6259
  137SAPE   C2614868   1.266   3.297  10.010 -0.5806  0.4663  0.7059
  137SAPE   H6R14869   1.168   3.338   9.983 -0.8968 -0.3630  0.5542
  137SAPE   C2714870   1.388   3.361   9.948 -0.9076  0.5830  0.6375
  137SAPE   H7R14871   1.450   3.274   9.917 -1.2125  0.0068  1.5779
  137SAPE   H7S14872   1.460   3.400  10.023  0.3836 -2.1990  0.9958
  137SAPE   C2814873   1.366   3.465   9.839 -0.2931  0.3356  0.0082
  137SAPE   H8R14874   1.306   3.550   9.874 -0.6444 -0.4213  1.2998
  137SAPE   C2914875   1.391   3.453   9.708  0.3411 -0.7087  0.1202
  137SAPE   H9R14876   1.385   3.552   9.660  1.9040 -0.9329 -0.6290
  137SAPE  C21014877   1.460   3.341   9.640 -0.1433 -0.2361  0.5017
  137SAPE  H10R14878   1.461   3.250   9.703 -1.6869 -1.7642 -1.5479
  137SAPE  H10S14879   1.566   3.366   9.618 -0.1551 -0.3939  0.2672
  137SAPE  C21114880   1.410   3.297   9.500 -0.5229 -0.0035  1.3098
  137SAPE  H11R14881   1.363   3.198   9.495 -2.4426  0.9451 -1.2123
  137SAPE  C21214882   1.429   3.367   9.378  0.4437 -0.3028  0.1514
  137SAPE  H12R14883   1.399   3.327   9.280  0.6319  1.0446 -0.4766
  137SAPE  C21314884   1.489   3.502   9.359  0.0502 -0.2107 -0.4041
  137SAPE  H13R14885   1.579   3.485   9.296 -0.3820  0.3510 -1.1939
  137SAPE  H13S14886   1.518   3.555   9.453 -0.3676  0.6919 -0.7759
  137SAPE  C21414887   1.382   3.579   9.291 -0.5624 -0.1619 -0.1186
  137SAPE  H14R14888   1.286   3.587   9.343 -0.8666  1.3959 -0.8474
  137SAPE  C21514889   1.390   3.625   9.165  0.5324  0.1846  0.6008
  137SAPE  H15R14890   1.308   3.691   9.132  1.0617 -0.2813 -1.8512
  137SAPE  C21614891   1.498   3.607   9.064  0.2733  0.0118  0.1081
  137SAPE  H16R14892   1.466   3.514   9.012 -2.3532  0.5382  0.6409
  137SAPE  H16S14893   1.595   3.593   9.115  1.1144 -2.8535 -2.0594
  137SAPE  C21714894   1.499   3.707   8.942 -0.3967 -0.2873 -0.1034
  137SAPE  H17R14895   1.592   3.682   8.887  1.0127  0.7072  1.6790
  137SAPE  H17S14896   1.522   3.802   8.995 -0.1027  0.2884 -1.2511
  137SAPE  C21814897   1.373   3.712   8.857  0.2595  0.3443  0.7118
  137SAPE  H18R14898   1.373   3.808   8.802  0.9059  0.6262  1.1934
  137SAPE  H18S14899   1.292   3.715   8.933  0.6711 -0.8190  1.2186
  137SAPE  C21914900   1.357   3.603   8.746 -0.3950 -0.4146  0.1017
  137SAPE  H19R14901   1.338   3.510   8.803 -0.4174 -0.8050 -0.5374
  137SAPE  H19S14902   1.455   3.595   8.694 -0.0161 -1.4321  0.9524
  137SAPE  C22014903   1.238   3.622   8.652  0.0366  1.1370  0.2313
  137SAPE  H20R14904   1.144   3.598   8.706  0.8490  1.0152  1.6348
  137SAPE  H20S14905   1.246   3.572   8.553 -0.7215  2.7141 -0.6625
  137SAPE  H20T14906   1.225   3.730   8.627 -0.0681  1.7685  2.7449
  137SAPE   C3314907   1.508   2.507  10.354 -0.3868  0.3032  0.0550
  137SAPE   H3X14908   1.613   2.517  10.389 -0.2907  3.5107 -0.8139
  137SAPE   H3Y14909   1.460   2.598  10.313 -2.2318 -0.4213  0.5229
  137SAPE   C3414910   1.496   2.378  10.262 -0.0395 -0.7429 -0.2257
  137SAPE   H4X14911   1.390   2.353  10.241 -0.0820  0.0357 -0.9633
  137SAPE   H4Y14912   1.542   2.295  10.321  0.7911  0.9397  1.5876
  137SAPE   C3514913   1.572   2.382  10.135 -0.1374  0.5841  0.6419
  137SAPE   H5X14914   1.524   2.455  10.066 -2.8177 -1.1419  0.5081
  137SAPE   H5Y14915   1.567   2.278  10.095  1.5853  0.5985  0.3435
  137SAPE   C3614916   1.721   2.411  10.154 -0.3807  0.1315 -1.2808
  137SAPE   H6X14917   1.757   2.339  10.231  0.9493  0.5080 -1.5313
  137SAPE   H6Y14918   1.742   2.513  10.193  0.2172  1.2248 -4.2338
  137SAPE   C3714919   1.820   2.389  10.039  0.1932  0.4554  0.2406
  137SAPE   H7X14920   1.790   2.296   9.986 -1.6148  0.2738  1.4700
  137SAPE   H7Y14921   1.919   2.371  10.085 -0.0456 -1.0310  0.2175
  137SAPE   C3814922   1.831   2.509   9.942  0.1935  0.4077 -0.0063
  137SAPE   H8X14923   1.929   2.503   9.890  0.2847  1.6042  0.0092
  137SAPE   H8Y14924   1.826   2.610   9.988 -2.9298  1.5073 -2.3594
  137SAPE   C3914925   1.718   2.519   9.832  0.1702 -0.0377  0.2288
  137SAPE   H9X14926   1.733   2.599   9.756  0.5206  0.1805  0.5287
  137SAPE   H9Y14927   1.630   2.545   9.894  2.1411  0.2813  3.0415
  137SAPE  C31014928   1.686   2.384   9.757 -0.1546 -0.6933 -0.1488
  137SAPE  H10X14929   1.591   2.394   9.701 -0.4809 -1.1106  0.3198
  137SAPE  H10Y14930   1.665   2.300   9.826 -1.0692 -0.0909  0.3228
  137SAPE  C31114931   1.790   2.331   9.659 -0.0996 -0.6511  0.6069
  137SAPE  H11X14932   1.764   2.234   9.612 -0.2231  0.6578 -2.2007
  137SAPE  H11Y14933   1.884   2.317   9.717 -0.3720  1.1368  1.5414
  137SAPE  C31214934   1.806   2.434   9.541 -0.0112  0.2004  0.0810
  137SAPE  H12X14935   1.872   2.513   9.583  0.6447  0.3466 -1.1895
  137SAPE  H12Y14936   1.710   2.482   9.510 -0.3053 -0.7983 -0.5808
  137SAPE  C31314937   1.870   2.380   9.412  0.1861  0.1043 -0.2264
  137SAPE  H13X14938   1.808   2.295   9.376 -2.1348  1.7996 -0.4957
  137SAPE  H13Y14939   1.974   2.347   9.428  1.3077  1.7169 -3.2903
  137SAPE  C31414940   1.874   2.488   9.304 -0.2577 -0.7136  0.2331
  137SAPE  H14X14941   1.950   2.564   9.332 -0.4210 -1.2562  2.3510
  137SAPE  H14Y14942   1.774   2.537   9.295 -0.4138 -0.6966  1.7446
  137SAPE  C31514943   1.912   2.418   9.173 -0.6781 -0.4138  0.1086
  137SAPE  H15X14944   1.835   2.340   9.158 -0.1639 -0.6296 -1.6259
  137SAPE  H15Y14945   2.012   2.371   9.186  0.5750  1.9758 -0.3699
  137SAPE  C31614946   1.930   2.514   9.052  0.6639  0.4681 -0.2266
  137SAPE  H16X14947   1.836   2.571   9.032  0.8286  1.9337  2.6463
  137SAPE  H16Y14948   1.948   2.455   8.960 -0.3401  0.2530 -0.2970
  137SAPE  C31714949   2.041   2.620   9.079  0.5882 -0.4443  0.3922
  137SAPE  H17X14950   2.007   2.685   9.162 -0.3316 -1.5601  0.9167
  137SAPE  H17Y14951   2.044   2.683   8.987  0.7742 -1.0146 -0.0049
  137SAPE  C31814952   2.180   2.560   9.094 -0.5849 -0.1681 -0.4096
  137SAPE  H18X14953   2.177   2.468   9.156 -2.4218  0.2967  0.2314
  137SAPE  H18Y14954   2.246   2.625   9.156 -0.7763  0.6917 -1.0721
  137SAPE  H18Z14955   2.239   2.543   9.001  1.4519  0.0214  0.7974
  138SAPE     N14956   6.090   3.090  10.935 -0.0960  0.1038  0.2859
  138SAPE   HN114957   6.054   3.165  10.996  0.1548  0.7876 -0.3922
  138SAPE   HN214958   6.114   3.019  11.008 -4.2661 -0.8293  0.9979
  138SAPE   HN314959   6.171   3.130  10.883 -0.2735  1.0966  0.7550
  138SAPE   C1214960   5.989   3.006  10.856  0.7784 -1.0761 -0.1912
  138SAPE  H12A14961   5.933   2.949  10.933 -0.3200  1.9950  1.4466
  138SAPE  H12B14962   6.047   2.942  10.785  0.1829 -0.8544 -0.8904
  138SAPE   C1114963   5.892   3.105  10.782  0.2767  0.6251  0.0967
  138SAPE  H11A14964   5.833   3.163  10.856  0.6343 -0.4668  1.2698
  138SAPE  H11B14965   5.822   3.047  10.718  0.0130  0.4328  0.5569
  138SAPE     P14966   5.914   3.286  10.597 -0.1693  0.1358  0.0056
  138SAPE   O1314967   5.816   3.373  10.664  0.4259  0.2683 -0.4608
  138SAPE   O1414968   6.031   3.346  10.530  0.0162 -0.2910  0.0629
  138SAPE   O1214969   5.972   3.186  10.701  0.5562  0.0901  0.1217
  138SAPE   O1114970   5.836   3.197  10.503  0.5885 -0.1097  0.0643
  138SAPE    C114971   5.749   3.237  10.402  0.5032 -0.2690  0.5123
  138SAPE    HA14972   5.703   3.336  10.424 -1.1779 -1.3732  2.3251
  138SAPE    HB14973   5.802   3.232  10.305 -0.0158 -0.0882  0.2142
  138SAPE    C214974   5.632   3.132  10.378  0.3158  0.2300 -0.2061
  138SAPE    HS14975   5.588   3.111  10.478 -1.3882  2.5089 -0.4067
  138SAPE   O2114976   5.683   3.012  10.326  0.2972  0.0087 -0.0265
  138SAPE   C2114977   5.623   2.901  10.355 -0.3527  0.1237  1.1406
  138SAPE   O2214978   5.522   2.898  10.421  0.1867 -0.1056  0.0625
  138SAPE   C2214979   5.679   2.786  10.270  0.4353 -0.0364  0.1597
  138SAPE   H2R14980   5.763   2.822  10.207  0.8717 -1.8970 -0.3713
  138SAPE   H2S14981   5.720   2.717  10.348  0.0045  0.1079  0.5187
  138SAPE    C314982   5.525   3.193  10.279 -0.1979 -0.1064  0.2108
  138SAPE    HX14983   5.586   3.240  10.199 -1.0415  0.5629 -0.0534
  138SAPE    HY14984   5.486   3.276  10.342 -0.6028  0.1626 -0.3865
  138SAPE   O3114985   5.427   3.103  10.222  0.5373 -0.3495 -0.2029
  138SAPE   C3114986   5.324   3.072  10.311 -0.2307  0.2605 -0.0317
  138SAPE   O3214987   5.300   3.133  10.414 -0.1054  0.3029 -0.4752
  138SAPE   C3214988   5.239   2.957  10.263 -0.2462 -0.5612 -0.4074
  138SAPE   H2X14989   5.237   2.879  10.342  0.9749  1.0266  1.2893
  138SAPE   H2Y14990   5.278   2.918  10.166  0.7039  1.0215 -0.6856
  138SAPE   C2314991   5.568   2.712  10.177 -0.1211 -0.3025  0.5636
  138SAPE   H3R14992   5.472   2.720  10.233 -0.5194 -0.2725 -0.1196
  138SAPE   H3S14993   5.590   2.603  10.173 -0.2018 -0.3069  0.2642
  138SAPE   C2414994   5.562   2.777  10.039  0.9734 -0.9429 -0.1246
  138SAPE   H4R14995   5.659   2.758   9.987  1.5701  0.2129  0.5191
  138SAPE   H4S14996   5.560   2.884  10.067  3.7016 -1.3299  2.1416
  138SAPE   C2514997   5.438   2.739   9.957  0.5568  1.1486 -0.1014
  138SAPE   H5R14998   5.377   2.655   9.993 -3.8742  3.5959 -1.0896
  138SAPE   C2614999   5.389   2.815   9.855 -0.1185  0.8319 -0.5621
  138SAPE   H6R15000   5.305   2.783   9.791 -1.0928  0.6525  0.7480
  138SAPE   C2715001   5.454   2.933   9.791  0.1305  0.3619 -0.7873
  138SAPE   H7R15002   5.415   2.945   9.688 -0.7017 -0.0796 -0.5349
  138SAPE   H7S15003   5.561   2.903   9.794 -0.1292 -0.5798 -0.5946
  138SAPE   C2815004   5.416   3.056   9.868 -0.7765  0.3576 -0.1453
  138SAPE   H8R15005   5.436   3.050   9.977 -0.1433  2.3806 -0.0962
  138SAPE   C2915006   5.365   3.173   9.815  0.1035  0.6022 -0.2786
  138SAPE   H9R15007   5.337   3.255   9.884  0.0529  0.6830 -0.3939
  138SAPE  C21015008   5.342   3.205   9.668 -0.5666 -0.1224 -0.4804
  138SAPE  H10R15009   5.266   3.132   9.634 -0.4629 -0.7779  0.6784
  138SAPE  H10S15010   5.428   3.182   9.601 -0.4624  0.2066 -0.4637
  138SAPE  C21115011   5.286   3.342   9.644  0.2067 -0.0311 -0.2461
  138SAPE  H11R15012   5.197   3.364   9.703  0.3290 -2.2278  0.8378
  138SAPE  C21215013   5.327   3.431   9.554  0.2429  0.2959  0.6060
  138SAPE  H12R15014   5.276   3.528   9.565 -0.3661  0.1687 -0.8359
  138SAPE  C21315015   5.432   3.429   9.443 -0.0636 -1.0253  0.3958
  138SAPE  H13R15016   5.457   3.323   9.420 -1.3590 -1.1290 -0.6607
  138SAPE  H13S15017   5.523   3.482   9.479 -1.0631  1.3093 -0.3965
  138SAPE  C21415018   5.394   3.498   9.312 -0.1634 -0.0587  0.0555
  138SAPE  H14R15019   5.327   3.584   9.321  0.8887  0.7462  0.3662
  138SAPE  C21515020   5.430   3.461   9.186 -0.1104  0.5279 -0.8130
  138SAPE  H15R15021   5.397   3.528   9.105 -1.3737  1.8693  0.7397
  138SAPE  C21615022   5.522   3.349   9.147 -0.2592  1.2540 -0.0152
  138SAPE  H16R15023   5.508   3.262   9.214 -0.2747  2.5497  1.7563
  138SAPE  H16S15024   5.630   3.373   9.158 -0.7401  3.5759  0.2178
  138SAPE  C21715025   5.487   3.297   9.011  0.0288  0.3429  0.2890
  138SAPE  H17R15026   5.571   3.233   8.978 -1.1336 -0.8306 -0.4822
  138SAPE  H17S15027   5.481   3.385   8.944 -1.2678  0.9491  1.1652
  138SAPE  C21815028   5.344   3.232   8.995  0.2177  0.1588 -0.5923
  138SAPE  H18R15029   5.267   3.307   9.022 -0.8604 -1.5888  1.4671
  138SAPE  H18S15030   5.339   3.145   9.063 -0.4909 -0.1489 -1.0331
  138SAPE  C21915031   5.317   3.166   8.861 -0.0385  0.4611  0.0816
  138SAPE  H19R15032   5.413   3.122   8.825 -0.3669  1.4452 -2.2030
  138SAPE  H19S15033   5.286   3.250   8.796  1.3536  1.1076  0.2017
  138SAPE  C22015034   5.206   3.052   8.862  0.0409 -0.7556  0.0207
  138SAPE  H20R15035   5.238   2.972   8.932  1.0587  0.5623  1.1197
  138SAPE  H20S15036   5.191   3.012   8.759 -0.1281  0.5420 -0.4733
  138SAPE  H20T15037   5.107   3.076   8.904  1.2798 -0.1861  2.8385
  138SAPE   C3315038   5.101   3.015  10.204  0.2326 -0.2686  0.0146
  138SAPE   H3X15039   5.049   3.093  10.262 -1.5573 -0.6519 -0.9957
  138SAPE   H3Y15040   5.024   2.935  10.207 -0.2437  0.2155  0.9596
  138SAPE   C3415041   5.113   3.050  10.055  0.7444 -0.1953  0.1465
  138SAPE   H4X15042   5.141   2.964   9.990 -2.2666 -0.6984 -0.6124
  138SAPE   H4Y15043   5.195   3.125  10.052  0.2387  0.4015  1.0177
  138SAPE   C3515044   4.982   3.113  10.002  0.1503 -0.4957 -0.3518
  138SAPE   H5X15045   4.970   3.199  10.072  1.8836 -0.9048  0.4853
  138SAPE   H5Y15046   4.896   3.044  10.013 -1.1373  0.9072 -1.0845
  138SAPE   C3615047   5.003   3.172   9.862  0.3356 -0.1666  0.6615
  138SAPE   H6X15048   5.039   3.085   9.804  0.3107 -0.3238  0.8774
  138SAPE   H6Y15049   5.071   3.259   9.849 -1.1084  0.5120 -3.7540
  138SAPE   C3715050   4.871   3.227   9.799  0.5804  0.4643 -0.3399
  138SAPE   H7X15051   4.822   3.297   9.870  0.7206 -0.9905  1.2479
  138SAPE   H7Y15052   4.795   3.147   9.783  1.7876 -0.8508  0.2401
  138SAPE   C3815053   4.890   3.282   9.655 -0.1913 -0.4764 -0.2782
  138SAPE   H8X15054   4.951   3.210   9.597 -0.8567  0.0470 -1.6722
  138SAPE   H8Y15055   4.948   3.376   9.669  2.3412 -2.0781  0.7325
  138SAPE   C3915056   4.760   3.320   9.580 -0.0460  0.5580  0.3749
  138SAPE   H9X15057   4.791   3.345   9.477  1.0118 -1.0106  0.2760
  138SAPE   H9Y15058   4.728   3.416   9.626  0.2536 -0.4893  2.9881
  138SAPE  C31015059   4.642   3.224   9.587 -0.2160 -0.0162  1.0208
  138SAPE  H10X15060   4.616   3.221   9.695 -0.2612  0.0401  1.0116
  138SAPE  H10Y15061   4.661   3.121   9.549  1.2527  0.3565  0.6713
  138SAPE  C31115062   4.524   3.278   9.509 -0.8038  0.0510 -0.8437
  138SAPE  H11X15063   4.551   3.291   9.402 -0.3358  0.0803 -0.7216
  138SAPE  H11Y15064   4.518   3.380   9.551  1.2376 -0.9800  2.3394
  138SAPE  C31215065   4.394   3.196   9.532  0.0324  0.1980  0.7562
  138SAPE  H12X15066   4.359   3.201   9.637 -2.5688 -1.3031  0.0466
  138SAPE  H12Y15067   4.402   3.087   9.511 -0.6717 -0.0146  1.5463
  138SAPE  C31315068   4.279   3.248   9.436 -0.0924 -0.2280 -0.1183
  138SAPE  H13X15069   4.333   3.265   9.340  0.2702 -0.7365 -0.0143
  138SAPE  H13Y15070   4.247   3.350   9.464  1.5407  0.9393 -2.1794
  138SAPE  C31415071   4.181   3.131   9.404 -0.0311  0.6184  0.1053
  138SAPE  H14X15072   4.145   3.111   9.508  1.0458  0.5466  0.4789
  138SAPE  H14Y15073   4.237   3.042   9.367 -0.3645  0.5400 -0.2097
  138SAPE  C31515074   4.074   3.176   9.303  0.4820  0.3907  0.0151
  138SAPE  H15X15075   3.996   3.231   9.360 -1.8272  0.0484 -2.6015
  138SAPE  H15Y15076   4.019   3.091   9.258 -0.2338 -0.9676  3.2066
  138SAPE  C31615077   4.131   3.265   9.192 -1.0305  0.0213 -0.9531
  138SAPE  H16X15078   4.218   3.216   9.144  1.4373  1.4907  1.6902
  138SAPE  H16Y15079   4.167   3.363   9.231 -0.5158 -0.3970 -0.3653
  138SAPE  C31715080   4.024   3.303   9.089 -0.9623 -0.1682 -0.6809
  138SAPE  H17X15081   3.947   3.355   9.149  2.1853  1.9131  1.9507
  138SAPE  H17Y15082   3.990   3.206   9.048 -0.7828 -0.7403  0.5005
  138SAPE  C31815083   4.060   3.409   8.989 -0.4982 -0.4509  0.2873
  138SAPE  H18X15084   4.117   3.363   8.906 -1.3958 -1.7261  0.3451
  138SAPE  H18Y15085   4.119   3.487   9.042 -0.7583 -1.6526  2.4870
  138SAPE  H18Z15086   3.966   3.454   8.950 -1.3561 -1.8391  0.6491
  139SAPE     N15087   4.241   0.720  10.761  0.5828 -0.2151  0.4958
  139SAPE   HN115088   4.240   0.630  10.812 -0.3213  0.4442  1.6885
  139SAPE   HN215089   4.296   0.796  10.805  2.0930  0.7774 -2.8095
  139SAPE   HN315090   4.142   0.753  10.762 -0.1320 -2.2115  0.9491
  139SAPE   C1215091   4.296   0.704  10.621  0.0664 -0.3910  0.0480
  139SAPE  H12A15092   4.216   0.661  10.557  2.1509 -0.6109 -2.6031
  139SAPE  H12B15093   4.380   0.631  10.624  0.2285 -0.2138 -0.0921
  139SAPE   C1115094   4.336   0.839  10.549 -0.2641 -0.4743 -0.3094
  139SAPE  H11A15095   4.336   0.829  10.439  1.0438 -0.7997 -0.2987
  139SAPE  H11B15096   4.438   0.873  10.578 -1.3356  2.4691  0.2991
  139SAPE     P15097   4.283   1.092  10.524  0.0246 -0.1815 -0.3269
  139SAPE   O1315098   4.194   1.194  10.576 -0.1944  0.2661  0.2390
  139SAPE   O1415099   4.427   1.113  10.536 -0.2309 -0.8226  0.1064
  139SAPE   O1215100   4.250   0.943  10.585 -0.1624 -0.0992  0.1737
  139SAPE   O1115101   4.238   1.084  10.371  0.0586  0.2831  0.3824
  139SAPE    C115102   4.104   1.054  10.325 -0.4105  0.0674  0.1508
  139SAPE    HA15103   4.036   1.032  10.410  0.0547  0.1846  0.5614
  139SAPE    HB15104   4.069   1.148  10.277  0.0902  0.6814  0.9569
  139SAPE    C215105   4.093   0.935  10.218 -0.1820 -0.0446 -0.2886
  139SAPE    HS15106   3.997   0.944  10.164 -0.9721 -0.5758  0.9791
  139SAPE   O2115107   4.109   0.814  10.288 -0.1441  0.4606 -0.3657
  139SAPE   C2115108   4.082   0.708  10.215  0.1210  0.4695  0.1081
  139SAPE   O2215109   4.029   0.707  10.105 -0.8542  0.7355 -0.1239
  139SAPE   C2215110   4.111   0.572  10.286  0.0968  0.1079  0.4929
  139SAPE   H2R15111   4.198   0.591  10.352  1.7470 -2.2068 -0.8694
  139SAPE   H2S15112   4.028   0.569  10.360 -0.9063 -3.2222 -0.6036
  139SAPE    C315113   4.211   0.955  10.124  0.3674 -0.8011  0.5920
  139SAPE    HX15114   4.214   0.874  10.048 -1.2872  0.1094 -0.5126
  139SAPE    HY15115   4.301   0.962  10.188 -0.5401 -1.8233  2.0496
  139SAPE   O3115116   4.185   1.078  10.047 -0.5124 -0.1139  0.2084
  139SAPE   C3115117   4.286   1.124   9.983 -0.0682  0.4638  0.2951
  139SAPE   O3215118   4.398   1.075   9.976  0.2053 -0.0011  0.2772
  139SAPE   C3215119   4.243   1.263   9.924  0.2522 -0.0797  1.0089
  139SAPE   H2X15120   4.288   1.341   9.990 -0.4886  1.8266 -0.6687
  139SAPE   H2Y15121   4.133   1.268   9.939 -0.1539 -5.1485  1.6286
  139SAPE   C2315122   4.111   0.439  10.205 -0.1043  0.8738  0.1165
  139SAPE   H3R15123   4.015   0.427  10.149 -0.2808  1.0826  0.3719
  139SAPE   H3S15124   4.126   0.357  10.278  0.8048  1.2379  0.3497
  139SAPE   C2415125   4.233   0.427  10.108  0.0634 -0.1430 -0.3549
  139SAPE   H4R15126   4.241   0.524  10.056 -0.2376 -0.2228 -0.5538
  139SAPE   H4S15127   4.209   0.345  10.036  0.8432 -1.4110  0.7794
  139SAPE   C2515128   4.363   0.403  10.176  0.3010  0.1569 -0.3892
  139SAPE   H5R15129   4.362   0.317  10.246 -1.4261 -0.1700 -0.7728
  139SAPE   C2615130   4.480   0.468  10.152 -0.2948 -0.8460  0.0437
  139SAPE   H6R15131   4.575   0.440  10.200 -0.2083  1.0088  1.0413
  139SAPE   C2715132   4.498   0.583  10.057 -0.6059 -0.4994 -0.1422
  139SAPE   H7R15133   4.599   0.627  10.070 -0.2440 -1.1177 -0.7601
  139SAPE   H7S15134   4.426   0.665  10.078 -0.4096 -0.1905 -0.6769
  139SAPE   C2815135   4.480   0.541   9.910 -0.1184  0.3853  0.1827
  139SAPE   H8R15136   4.480   0.434   9.883  0.6073  0.3984  0.1274
  139SAPE   C2915137   4.461   0.623   9.805  0.0844  0.3871  0.5696
  139SAPE   H9R15138   4.450   0.582   9.703 -3.4212  0.3727  0.8403
  139SAPE  C21015139   4.437   0.775   9.801 -0.9317 -0.3018  0.4556
  139SAPE  H10R15140   4.451   0.813   9.905  1.7556 -1.7323  0.7214
  139SAPE  H10S15141   4.330   0.791   9.779 -1.6029 -2.8111  1.5238
  139SAPE  C21115142   4.504   0.860   9.690  0.3361  0.8011 -0.3596
  139SAPE  H11R15143   4.558   0.944   9.738 -0.8047  1.2311  0.2079
  139SAPE  C21215144   4.502   0.841   9.560 -0.5219 -0.5108  0.1069
  139SAPE  H12R15145   4.561   0.910   9.497  0.1639 -0.4863  0.7675
  139SAPE  C21315146   4.430   0.733   9.480 -0.1088  0.2127 -0.9857
  139SAPE  H13R15147   4.354   0.781   9.415 -1.1173 -1.3779 -1.0570
  139SAPE  H13S15148   4.363   0.664   9.536 -0.9818 -0.1657 -2.4404
  139SAPE  C21415149   4.506   0.635   9.387  0.3275  0.5394  0.1421
  139SAPE  H14R15150   4.532   0.538   9.430 -0.8217 -0.0369 -0.4206
  139SAPE  C21515151   4.558   0.673   9.270  0.5553  0.5830  0.1734
  139SAPE  H15R15152   4.606   0.600   9.203  0.1545  2.3972 -2.2644
  139SAPE  C21615153   4.547   0.811   9.208  0.0428  0.0645  0.1737
  139SAPE  H16R15154   4.645   0.843   9.165 -0.4383 -0.2321 -1.2166
  139SAPE  H16S15155   4.532   0.883   9.291  0.7984  0.5502 -0.0951
  139SAPE  C21715156   4.428   0.827   9.105 -0.5195 -0.3098 -0.5927
  139SAPE  H17R15157   4.344   0.779   9.159  0.6491  0.7749  2.3949
  139SAPE  H17S15158   4.438   0.773   9.008 -3.4953 -2.1984  0.0129
  139SAPE  C21815159   4.386   0.976   9.096 -0.0401 -0.1341  0.1545
  139SAPE  H18R15160   4.460   1.023   9.027  0.8842 -0.0433  1.1865
  139SAPE  H18S15161   4.415   1.024   9.191 -0.0390  0.1867 -0.0073
  139SAPE  C21915162   4.239   0.988   9.069  0.2432 -0.0406  0.1884
  139SAPE  H19R15163   4.207   1.092   9.092  1.8440  0.3212  0.8498
  139SAPE  H19S15164   4.186   0.931   9.148 -0.0434 -0.3503 -0.2180
  139SAPE  C22015165   4.199   0.932   8.926  0.0878 -0.0287 -0.5524
  139SAPE  H20R15166   4.255   0.985   8.846 -0.9798  1.2717 -0.4605
  139SAPE  H20S15167   4.094   0.955   8.901  0.4948  1.4892 -0.9325
  139SAPE  H20T15168   4.214   0.821   8.927  0.1015 -0.0654  2.1846
  139SAPE   C3315169   4.273   1.281   9.775  0.2035  0.3193  0.1785
  139SAPE   H3X15170   4.214   1.367   9.737  0.6365  0.9648  0.9256
  139SAPE   H3Y15171   4.253   1.192   9.711 -0.9220  0.7259 -0.0687
  139SAPE   C3415172   4.418   1.313   9.744  0.4529 -0.2352  0.0766
  139SAPE   H4X15173   4.478   1.230   9.786  1.7539  1.0250  0.7691
  139SAPE   H4Y15174   4.453   1.399   9.806  1.5822 -1.9327  1.8965
  139SAPE   C3515175   4.436   1.317   9.585  0.9310  0.0087  0.7682
  139SAPE   H5X15176   4.355   1.383   9.545  2.1602  1.6212  0.8227
  139SAPE   H5Y15177   4.428   1.216   9.539 -0.8014  0.0755  0.8434
  139SAPE   C3615178   4.575   1.370   9.535  0.7100  0.3527  0.4205
  139SAPE   H6X15179   4.652   1.292   9.555 -1.0070 -1.5192  0.1339
  139SAPE   H6Y15180   4.605   1.450   9.605  1.5891  0.5099 -0.1280
  139SAPE   C3715181   4.572   1.419   9.387  0.2567 -0.9309  1.1222
  139SAPE   H7X15182   4.671   1.463   9.363 -0.8650  1.9672  1.4545
  139SAPE   H7Y15183   4.488   1.488   9.364  2.0198  0.4010 -1.7420
  139SAPE   C3815184   4.537   1.300   9.291 -0.7190 -0.4064  0.2173
  139SAPE   H8X15185   4.433   1.281   9.326 -1.1386  2.0628  0.4263
  139SAPE   H8Y15186   4.613   1.222   9.312 -0.6018  0.6003  4.2613
  139SAPE   C3915187   4.518   1.342   9.144  0.2085  0.1029  0.8660
  139SAPE   H9X15188   4.447   1.427   9.133 -0.3088 -0.3033  1.0432
  139SAPE   H9Y15189   4.474   1.255   9.092 -2.8341  1.1141  1.5688
  139SAPE  C31015190   4.647   1.379   9.068 -0.5879  0.5950  0.2409
  139SAPE  H10X15191   4.720   1.295   9.075  1.9147  2.5601 -0.4078
  139SAPE  H10Y15192   4.687   1.472   9.114 -0.0943  0.5114 -0.0113
  139SAPE  C31115193   4.626   1.416   8.921  0.4383 -0.5134 -0.4693
  139SAPE  H11X15194   4.567   1.510   8.912  2.3672  0.8236  0.1758
  139SAPE  H11Y15195   4.572   1.334   8.870 -1.0517  0.1773 -0.0688
  139SAPE  C31215196   4.760   1.416   8.846 -0.8267 -0.5826 -0.2482
  139SAPE  H12X15197   4.815   1.326   8.880  0.2319 -0.0977 -0.6188
  139SAPE  H12Y15198   4.818   1.506   8.877 -2.3752 -0.8154  3.9597
  139SAPE  C31315199   4.749   1.398   8.694  0.5682  0.4188 -0.4528
  139SAPE  H13X15200   4.692   1.488   8.663 -1.4986 -0.6089  0.1959
  139SAPE  H13Y15201   4.694   1.306   8.667 -1.5035  1.1631  1.0223
  139SAPE  C31415202   4.894   1.396   8.635 -0.3947  0.1458  0.0033
  139SAPE  H14X15203   4.927   1.292   8.616  0.6098 -0.1148  2.7826
  139SAPE  H14Y15204   4.965   1.423   8.716  2.1029  1.7690 -2.5186
  139SAPE  C31515205   4.914   1.497   8.523  0.1700  0.3453  0.1640
  139SAPE  H15X15206   5.015   1.483   8.480 -1.2972  1.2215 -4.1446
  139SAPE  H15Y15207   4.909   1.605   8.551 -1.5362  1.0879 -2.5075
  139SAPE  C31615208   4.813   1.462   8.409 -0.0889  0.2877 -0.4551
  139SAPE  H16X15209   4.827   1.352   8.395 -0.4632  0.4609 -2.3951
  139SAPE  H16Y15210   4.710   1.489   8.439  0.4521  0.8300  0.9863
  139SAPE  C31715211   4.858   1.529   8.277  0.4306  0.1143 -0.0736
  139SAPE  H17X15212   4.967   1.517   8.258  0.9952  3.2980  0.7316
  139SAPE  H17Y15213   4.846   1.638   8.289  1.5317  0.0960  1.3859
  139SAPE  C31815214   4.766   1.490   8.160  0.1002 -0.2749 -0.5936
  139SAPE  H18X15215   4.664   1.535   8.162  0.1575 -0.1418 -0.5967
  139SAPE  H18Y15216   4.754   1.382   8.138 -1.7113 -0.2261  0.0198
  139SAPE  H18Z15217   4.805   1.540   8.069 -0.6578 -1.4867 -1.5994
  140SAPE     N15218   0.368   5.503  10.886 -0.3559 -0.6538  0.7610
  140SAPE   HN115219   0.269   5.494  10.855 -0.1971 -1.0108  0.3471
  140SAPE   HN215220   0.388   5.420  10.945 -0.1884  1.1332  3.4047
  140SAPE   HN315221   0.382   5.589  10.943 -2.0641 -0.4929  0.9782
  140SAPE   C1215222   0.443   5.529  10.763  0.1261  0.6317  0.2740
  140SAPE  H12A15223   0.417   5.633  10.734  1.2350  1.0714  0.8026
  140SAPE  H12B15224   0.397   5.472  10.680  1.1610  1.3365 -0.8128
  140SAPE   C1115225   0.594   5.510  10.782 -0.2760 -0.1636  0.1692
  140SAPE  H11A15226   0.637   5.504  10.679 -1.2861 -1.3358 -0.2036
  140SAPE  H11B15227   0.623   5.412  10.825  2.0761  0.0979 -0.6578
  140SAPE     P15228   0.799   5.623  10.900 -0.0808 -0.1447 -0.0787
  140SAPE   O1315229   0.844   5.753  10.951  0.1764  0.0797  0.1019
  140SAPE   O1415230   0.829   5.509  10.991 -0.2536  0.0018 -0.1852
  140SAPE   O1215231   0.651   5.621  10.855 -0.3590 -0.0584  0.3456
  140SAPE   O1115232   0.875   5.604  10.763  0.3921 -0.5931  0.0304
  140SAPE    C115233   0.861   5.696  10.661 -0.3772 -0.0552  0.2439
  140SAPE    HA15234   0.778   5.769  10.672 -0.8849 -0.6044  0.0322
  140SAPE    HB15235   0.954   5.758  10.658 -0.7944  0.5506 -0.2450
  140SAPE    C215236   0.848   5.626  10.525  0.0938  0.1561 -0.2493
  140SAPE    HS15237   0.744   5.586  10.530  0.1392  0.0556 -0.1098
  140SAPE   O2115238   0.953   5.528  10.505  0.0860  0.0241 -0.6079
  140SAPE   C2115239   0.925   5.442  10.402  0.4386 -0.4125 -0.1729
  140SAPE   O2215240   0.812   5.432  10.350 -0.7370 -0.3084  0.2136
  140SAPE   C2215241   1.041   5.365  10.352  0.0179 -0.2382  0.2237
  140SAPE   H2R15242   1.087   5.424  10.270 -0.3437  0.0623  0.2287
  140SAPE   H2S15243   1.118   5.363  10.433 -1.8957  1.5127  2.2433
  140SAPE    C315244   0.847   5.744  10.419  0.0043 -1.5218  0.0393
  140SAPE    HX15245   0.846   5.847  10.460 -2.8739 -1.0363 -1.0156
  140SAPE    HY15246   0.761   5.725  10.351  0.4406  0.3908 -1.1110
  140SAPE   O3115247   0.959   5.725  10.330  0.3904  0.3492  0.2951
  140SAPE   C3115248   1.069   5.790  10.364  0.1620  0.3289 -0.2439
  140SAPE   O3215249   1.085   5.877  10.447 -0.5199 -0.0659  0.4441
  140SAPE   C3215250   1.190   5.739  10.287 -0.4169 -0.3660 -0.2001
  140SAPE   H2X15251   1.230   5.644  10.328 -1.0896 -0.2081  0.8566
  140SAPE   H2Y15252   1.260   5.820  10.260  1.0867 -1.9365 -1.2206
  140SAPE   C2315253   1.016   5.231  10.289 -0.5063 -0.3421  0.1857
  140SAPE   H3R15254   0.930   5.229  10.218 -0.1449  1.8975 -0.3799
  140SAPE   H3S15255   0.983   5.169  10.375  0.8758 -0.5019  0.6242
  140SAPE   C2415256   1.130   5.158  10.227 -0.3432  0.3390  0.1252
  140SAPE   H4R15257   1.105   5.086  10.146  0.2662  0.1934  0.0585
  140SAPE   H4S15258   1.159   5.082  10.303 -2.6628 -0.9361 -0.1896
  140SAPE   C2515259   1.246   5.238  10.178  0.5769  0.1788 -0.3783
  140SAPE   H5R15260   1.325   5.262  10.250  0.3075 -0.5294  0.1612
  140SAPE   C2615261   1.251   5.289  10.055  0.8219 -0.0887  0.4744
  140SAPE   H6R15262   1.329   5.363  10.034 -0.6198  0.8218 -2.0230
  140SAPE   C2715263   1.134   5.275   9.952 -0.4598 -0.0394  0.2429
  140SAPE   H7R15264   1.065   5.362   9.959 -0.2854 -0.0020  1.6932
  140SAPE   H7S15265   1.069   5.186   9.965 -2.3349  1.0222 -1.2116
  140SAPE   C2815266   1.195   5.254   9.819  0.8453 -0.7571  0.3785
  140SAPE   H8R15267   1.296   5.211   9.813  2.0982  2.0736 -0.2336
  140SAPE   C2915268   1.142   5.284   9.699  0.1582  0.0870  0.2664
  140SAPE   H9R15269   1.201   5.263   9.609 -0.2780 -4.2954  0.7526
  140SAPE  C21015270   1.012   5.359   9.671  0.2220  0.0972 -0.1170
  140SAPE  H10R15271   1.020   5.419   9.577 -0.4079 -0.2039 -0.3715
  140SAPE  H10S15272   0.997   5.441   9.743  1.0734  1.4087 -1.3724
  140SAPE  C21115273   0.891   5.266   9.668 -0.5961  0.0478 -0.1200
  140SAPE  H11R15274   0.859   5.235   9.768 -2.0666 -0.4950 -0.7372
  140SAPE  C21215275   0.821   5.213   9.564 -0.3123 -0.7022  0.0337
  140SAPE  H12R15276   0.730   5.153   9.582 -0.4471 -0.7425 -0.7689
  140SAPE  C21315277   0.832   5.246   9.420  0.2630 -0.2758 -0.4893
  140SAPE  H13R15278   0.936   5.275   9.395 -0.1286 -0.0404 -1.9042
  140SAPE  H13S15279   0.770   5.336   9.396  0.2645 -0.6010 -1.7962
  140SAPE  C21415280   0.812   5.134   9.324  0.0648  0.4089  0.1969
  140SAPE  H14R15281   0.862   5.038   9.346  1.1506  0.9584  0.2116
  140SAPE  C21515282   0.742   5.140   9.211  0.7309  0.0423 -0.0133
  140SAPE  H15R15283   0.721   5.049   9.154  1.6496  0.0675 -0.4102
  140SAPE  C21615284   0.657   5.257   9.177  0.8596 -0.2562 -0.4987
  140SAPE  H16R15285   0.725   5.339   9.147 -1.8124  1.5915 -1.9792
  140SAPE  H16S15286   0.600   5.295   9.265  0.2666 -2.1937 -0.0143
  140SAPE  C21715287   0.558   5.230   9.063  0.1443  0.2891  0.1023
  140SAPE  H17R15288   0.619   5.236   8.970 -1.6282  1.7101 -1.0135
  140SAPE  H17S15289   0.480   5.308   9.053 -1.2269 -1.1471 -0.7748
  140SAPE  C21815290   0.472   5.103   9.073  0.3094 -0.0457  0.6123
  140SAPE  H18R15291   0.444   5.104   9.180  0.1843  3.1289  0.6617
  140SAPE  H18S15292   0.526   5.007   9.061 -3.1326 -2.0107 -0.3546
  140SAPE  C21915293   0.353   5.115   8.983  0.5704  0.1884 -0.2433
  140SAPE  H19R15294   0.387   5.136   8.879 -2.1990 -0.9595 -1.4859
  140SAPE  H19S15295   0.297   5.206   9.015 -0.0510  1.0034 -3.2880
  140SAPE  C22015296   0.259   4.996   8.992  0.0134 -0.2990  0.2347
  140SAPE  H20R15297   0.210   4.981   9.090 -1.7202 -0.4976 -0.6199
  140SAPE  H20S15298   0.320   4.903   8.985  2.7279  1.4650 -1.9474
  140SAPE  H20T15299   0.188   4.994   8.907  0.7434 -0.5547 -0.3803
  140SAPE   C3315300   1.153   5.692  10.147 -0.0512 -0.4881  0.4784
  140SAPE   H3X15301   1.061   5.631  10.145 -0.5416  0.2451 -0.0021
  140SAPE   H3Y15302   1.234   5.636  10.097 -1.2828 -1.5471 -0.3861
  140SAPE   C3415303   1.117   5.815  10.059 -0.1525 -0.5591  0.8649
  140SAPE   H4X15304   1.201   5.887  10.047  0.0055 -0.9453 -0.3904
  140SAPE   H4Y15305   1.038   5.870  10.115  0.7542  2.4205 -0.5651
  140SAPE   C3515306   1.054   5.782   9.924  0.3223  0.0176 -0.2156
  140SAPE   H5X15307   0.952   5.744   9.945  0.0533  1.1280  0.5456
  140SAPE   H5Y15308   1.106   5.703   9.866  0.2754  0.1214 -0.4021
  140SAPE   C3615309   1.036   5.911   9.832 -0.2685  0.6256  0.1497
  140SAPE   H6X15310   1.126   5.975   9.828 -1.7321  2.8589  1.1022
  140SAPE   H6Y15311   0.951   5.973   9.866 -0.4115  1.9650 -2.3785
  140SAPE   C3715312   0.995   5.861   9.695  0.0263 -0.4967 -0.3983
  140SAPE   H7X15313   0.959   5.955   9.649 -2.8445 -0.1811  2.2146
  140SAPE   H7Y15314   0.898   5.808   9.698 -0.8804  1.1411  0.8474
  140SAPE   C3815315   1.098   5.785   9.614 -0.1458  0.0599  0.0658
  140SAPE   H8X15316   1.139   5.704   9.678 -0.3486 -0.1834 -0.1107
  140SAPE   H8Y15317   1.184   5.854   9.599  0.1626 -0.1875  0.6924
  140SAPE   C3915318   1.060   5.723   9.480  0.2538 -0.1779  0.2680
  140SAPE   H9X15319   1.025   5.795   9.403  1.5035  0.8995  0.6608
  140SAPE   H9Y15320   0.976   5.653   9.498 -0.2990  0.5765  0.6672
  140SAPE  C31015321   1.182   5.658   9.415 -0.1096 -0.2572  0.1273
  140SAPE  H10X15322   1.249   5.613   9.491 -1.9358  0.8271  2.5287
  140SAPE  H10Y15323   1.244   5.743   9.381  1.1062 -0.8943  0.6796
  140SAPE  C31115324   1.155   5.558   9.295  0.1234  0.9180  0.6929
  140SAPE  H11X15325   1.112   5.463   9.332  0.3914  0.3720 -0.3674
  140SAPE  H11Y15326   1.255   5.539   9.251  0.3325  0.7180  1.2471
  140SAPE  C31215327   1.068   5.614   9.185  0.9664 -0.2126  0.5811
  140SAPE  H12X15328   0.980   5.658   9.237 -0.1297 -2.6369  0.8987
  140SAPE  H12Y15329   1.044   5.535   9.112  0.4855  0.0647  0.4333
  140SAPE  C31315330   1.163   5.701   9.102  0.3918 -0.4957 -0.1707
  140SAPE  H13X15331   1.213   5.766   9.176  2.3538 -2.1759  0.0381
  140SAPE  H13Y15332   1.097   5.770   9.044  0.3371  1.0303  1.6159
  140SAPE  C31415333   1.267   5.632   9.002  0.5328  0.5305  0.6424
  140SAPE  H14X15334   1.212   5.553   8.946  2.4979 -0.5749  0.1602
  140SAPE  H14Y15335   1.347   5.579   9.058 -1.1940 -0.8092  1.9647
  140SAPE  C31515336   1.315   5.731   8.894 -0.3881  0.0961  0.0605
  140SAPE  H15X15337   1.356   5.816   8.952  0.8683  0.2469 -1.0282
  140SAPE  H15Y15338   1.233   5.771   8.830 -0.4553  2.5355  1.5164
  140SAPE  C31615339   1.422   5.653   8.814  0.3185  0.5335 -0.0966
  140SAPE  H16X15340   1.401   5.544   8.811  0.6044  0.4863 -0.4486
  140SAPE  H16Y15341   1.517   5.652   8.871 -0.4090 -1.4857  1.2040
  140SAPE  C31715342   1.422   5.693   8.668 -0.7105  0.3243 -0.2990
  140SAPE  H17X15343   1.468   5.794   8.665 -1.1434  0.5538  0.4691
  140SAPE  H17Y15344   1.321   5.709   8.626 -0.1423  0.7690 -1.5477
  140SAPE  C31815345   1.519   5.603   8.578  0.2769 -0.7801  0.0231
  140SAPE  H18X15346   1.542   5.641   8.477 -1.0033  1.1688  0.4112
  140SAPE  H18Y15347   1.496   5.495   8.589  0.9729 -0.8634  0.7706
  140SAPE  H18Z15348   1.614   5.595   8.634  0.7255 -0.3324 -0.6588
  141SAPE     N15349   1.703   5.363  10.904 -0.6739 -0.0521 -0.0021
  141SAPE   HN115350   1.748   5.453  10.877  0.2110 -1.2495 -2.9332
  141SAPE   HN215351   1.627   5.375  10.974  0.0232  2.6797  0.4346
  141SAPE   HN315352   1.779   5.310  10.952  0.1282  2.4393  1.7254
  141SAPE   C1215353   1.637   5.281  10.795  0.7918 -0.3162 -0.0107
  141SAPE  H12A15354   1.654   5.333  10.698 -0.9464 -1.0677 -0.7555
  141SAPE  H12B15355   1.528   5.268  10.806  1.2426 -3.7331  1.5835
  141SAPE   C1115356   1.685   5.143  10.795 -0.1992 -0.0764  0.5215
  141SAPE  H11A15357   1.789   5.151  10.757 -0.8096  1.0603 -1.0107
  141SAPE  H11B15358   1.646   5.080  10.713 -0.8349  0.5370  0.3461
  141SAPE     P15359   1.520   5.013  10.951  0.0870  0.7036  0.4969
  141SAPE   O1315360   1.546   4.894  11.042  0.3802 -0.2616 -0.2816
  141SAPE   O1415361   1.435   5.121  11.004  0.2218  0.0628  0.4334
  141SAPE   O1215362   1.660   5.073  10.914 -0.2831 -0.2206  0.1852
  141SAPE   O1115363   1.460   4.959  10.817  0.9073  0.1993 -0.0157
  141SAPE    C115364   1.530   4.839  10.773 -0.1756  0.2220  0.6175
  141SAPE    HA15365   1.640   4.839  10.789 -0.2019 -0.2697  0.8310
  141SAPE    HB15366   1.487   4.753  10.828  1.5748 -0.2119  1.3462
  141SAPE    C215367   1.492   4.802  10.628 -0.7846 -0.3294 -0.0956
  141SAPE    HS15368   1.505   4.896  10.570 -0.3024 -0.0908  0.3946
  141SAPE   O2115369   1.360   4.758  10.630 -0.8629  0.1727  0.1135
  141SAPE   C2115370   1.297   4.786  10.519  0.1695  0.3416  0.2937
  141SAPE   O2215371   1.342   4.822  10.414 -0.4071  0.3975 -0.2004
  141SAPE   C2215372   1.140   4.774  10.539  0.1550 -0.1480 -0.5724
  141SAPE   H2R15373   1.132   4.699  10.621  0.2302  2.3237  1.8549
  141SAPE   H2S15374   1.102   4.875  10.562  0.9193  0.4240 -1.7292
  141SAPE    C315375   1.589   4.687  10.576  0.2784  0.7881  0.3257
  141SAPE    HX15376   1.563   4.594  10.632 -0.7292 -1.0601 -2.8951
  141SAPE    HY15377   1.691   4.725  10.596 -0.6802  2.9812  1.2805
  141SAPE   O3115378   1.573   4.643  10.432  0.0683 -0.1496 -0.0303
  141SAPE   C3115379   1.640   4.711  10.337 -0.6567 -0.2782  0.3338
  141SAPE   O3215380   1.718   4.800  10.358 -0.4423 -0.4801 -0.3409
  141SAPE   C3215381   1.594   4.648  10.199 -0.2112 -1.3066 -0.3010
  141SAPE   H2X15382   1.491   4.687  10.186  0.1764 -0.1823 -0.1548
  141SAPE   H2Y15383   1.606   4.538  10.209 -0.3891 -1.2262  1.0052
  141SAPE   C2315384   1.059   4.708  10.415 -0.3114  0.1137  0.1078
  141SAPE   H3R15385   0.966   4.666  10.458  1.1019 -1.0923  2.1554
  141SAPE   H3S15386   1.115   4.622  10.373 -1.5357 -1.5148  1.6599
  141SAPE   C2415387   1.015   4.807  10.304 -0.2418  0.0857  0.0246
  141SAPE   H4R15388   1.109   4.847  10.262  0.0420 -0.7189 -0.1354
  141SAPE   H4S15389   0.960   4.887  10.358 -0.8548  0.3129 -0.9120
  141SAPE   C2515390   0.934   4.743  10.194  0.1418  0.0241  0.6073
  141SAPE   H5R15391   0.824   4.744  10.205 -0.0617 -0.0218 -1.1263
  141SAPE   C2615392   0.981   4.704  10.075  0.0063 -0.1843  0.2841
  141SAPE   H6R15393   0.923   4.641  10.007  1.4538 -0.7191 -0.5087
  141SAPE   C2715394   1.126   4.716  10.024  0.8642  0.1312  0.0333
  141SAPE   H7R15395   1.153   4.626   9.965 -0.2540 -0.5871  0.5882
  141SAPE   H7S15396   1.182   4.694  10.117 -0.2888  0.3115  0.7881
  141SAPE   C2815397   1.172   4.846   9.961  0.2617 -0.5252 -0.6028
  141SAPE   H8R15398   1.181   4.925  10.037  0.5323 -1.7046  0.6303
  141SAPE   C2915399   1.181   4.873   9.826  0.1744 -0.6963 -0.8615
  141SAPE   H9R15400   1.232   4.966   9.797 -2.3957  1.0118 -0.2169
  141SAPE  C21015401   1.159   4.773   9.716 -0.0604  0.6524  0.2743
  141SAPE  H10R15402   1.101   4.684   9.750  1.2038 -0.5642 -0.6411
  141SAPE  H10S15403   1.257   4.730   9.687 -1.7199 -1.2736 -3.1469
  141SAPE  C21115404   1.105   4.843   9.595 -0.4649 -1.2738  0.8147
  141SAPE  H11R15405   1.038   4.928   9.616  1.0954 -0.2683  1.9668
  141SAPE  C21215406   1.120   4.811   9.462  0.2371  0.0122 -0.5885
  141SAPE  H12R15407   1.075   4.881   9.390 -0.9152  1.7257  1.6888
  141SAPE  C21315408   1.202   4.691   9.413  0.6344  0.5557 -0.7870
  141SAPE  H13R15409   1.170   4.596   9.461 -0.7014  1.9897  1.3676
  141SAPE  H13S15410   1.306   4.698   9.451  0.4339  1.4585 -0.3670
  141SAPE  C21415411   1.189   4.656   9.268 -0.0573  0.0298 -0.2801
  141SAPE  H14R15412   1.090   4.625   9.231  1.2267 -4.0326 -0.7807
  141SAPE  C21515413   1.289   4.632   9.173  0.3266  0.4279 -0.2525
  141SAPE  H15R15414   1.251   4.597   9.076  0.5143 -2.6728  0.7049
  141SAPE  C21615415   1.440   4.628   9.206  0.6210  0.5104  0.4425
  141SAPE  H16R15416   1.479   4.525   9.190 -1.1427 -0.2166  0.5734
  141SAPE  H16S15417   1.450   4.634   9.317  3.0697  1.9323  0.2034
  141SAPE  C21715418   1.519   4.731   9.130 -0.4541 -0.0525 -0.5921
  141SAPE  H17R15419   1.608   4.743   9.194  0.4660 -2.6094 -1.2685
  141SAPE  H17S15420   1.459   4.825   9.128 -0.6162 -0.1074  1.0861
  141SAPE  C21815421   1.559   4.696   8.988 -0.4123  0.2259  0.3043
  141SAPE  H18R15422   1.465   4.671   8.933  0.8975 -0.8924 -1.5276
  141SAPE  H18S15423   1.626   4.608   9.002  0.6708  0.1750 -3.9660
  141SAPE  C21915424   1.642   4.808   8.922 -0.3631 -0.2729  0.2048
  141SAPE  H19R15425   1.718   4.828   9.001  0.0475  1.0736 -0.5042
  141SAPE  H19S15426   1.569   4.889   8.901 -2.8325 -2.3133  0.3454
  141SAPE  C22015427   1.714   4.768   8.798 -0.9846  0.4206 -0.5497
  141SAPE  H20R15428   1.776   4.682   8.830 -0.4842  0.6089 -1.0059
  141SAPE  H20S15429   1.782   4.852   8.771  0.1294 -0.1642  0.3370
  141SAPE  H20T15430   1.642   4.737   8.719 -0.6294  2.4672 -1.7369
  141SAPE   C3315431   1.680   4.694  10.079  0.6137  0.1587 -0.1125
  141SAPE   H3X15432   1.788   4.670  10.092  0.9431  1.4242 -0.3654
  141SAPE   H3Y15433   1.680   4.804  10.068  0.2047  0.0744 -1.0515
  141SAPE   C3415434   1.632   4.637   9.948 -0.2500  0.2440  0.8080
  141SAPE   H4X15435   1.523   4.617   9.955 -0.3463 -0.8264 -2.2753
  141SAPE   H4Y15436   1.682   4.542   9.921  2.0942  1.0832  1.9158
  141SAPE   C3515437   1.645   4.729   9.830 -0.7679 -0.2216 -0.4721
  141SAPE   H5X15438   1.747   4.772   9.835 -0.8801  0.0610 -0.5679
  141SAPE   H5Y15439   1.568   4.807   9.848 -1.5812 -0.9004 -0.9416
  141SAPE   C3615440   1.609   4.675   9.683 -0.2179 -0.2336  0.7345
  141SAPE   H6X15441   1.513   4.620   9.683 -1.7041  2.1493 -1.3379
  141SAPE   H6Y15442   1.691   4.601   9.675  0.1475  0.1450  0.9006
  141SAPE   C3715443   1.614   4.787   9.582  0.2470  0.2757 -0.0364
  141SAPE   H7X15444   1.607   4.749   9.478 -0.0413  2.0873 -0.7206
  141SAPE   H7Y15445   1.708   4.845   9.591  0.8241 -0.5389 -0.6314
  141SAPE   C3815446   1.503   4.895   9.591  0.5426 -0.0650  0.3749
  141SAPE   H8X15447   1.523   4.960   9.679  1.3810 -0.1454  0.2494
  141SAPE   H8Y15448   1.404   4.848   9.610  1.8793 -2.9356  0.8327
  141SAPE   C3915449   1.509   4.983   9.466  0.1029  0.1235 -0.1684
  141SAPE   H9X15450   1.460   4.943   9.375  0.3065 -0.3111 -0.0868
  141SAPE   H9Y15451   1.614   5.007   9.439 -0.3952  2.0822 -0.4940
  141SAPE  C31015452   1.437   5.124   9.497 -0.1603 -0.3258  0.9923
  141SAPE  H10X15453   1.476   5.174   9.588  1.7911 -1.5848  0.9158
  141SAPE  H10Y15454   1.336   5.078   9.511  0.3245 -2.7775 -2.3234
  141SAPE  C31115455   1.450   5.228   9.390 -0.2923 -0.0858 -0.4450
  141SAPE  H11X15456   1.559   5.239   9.372 -0.1872 -2.4482 -1.5594
  141SAPE  H11Y15457   1.413   5.325   9.431 -1.1175  0.3929 -2.2298
  141SAPE  C31215458   1.392   5.202   9.251 -0.1911 -0.0966 -0.0828
  141SAPE  H12X15459   1.454   5.126   9.199 -1.1553 -0.0901 -1.2900
  141SAPE  H12Y15460   1.389   5.300   9.199 -2.4656  1.0548  2.0178
  141SAPE  C31315461   1.242   5.171   9.259  0.3570 -0.5195 -0.3546
  141SAPE  H13X15462   1.200   5.257   9.314 -0.2754 -0.0651 -1.5068
  141SAPE  H13Y15463   1.220   5.073   9.307  0.8068 -1.2462 -1.5791
  141SAPE  C31415464   1.169   5.166   9.121  0.2577 -0.0088 -0.2119
  141SAPE  H14X15465   1.202   5.244   9.049  2.2213  0.2846  0.9403
  141SAPE  H14Y15466   1.062   5.181   9.146  0.2023 -0.0324 -0.4336
  141SAPE  C31515467   1.185   5.025   9.059 -0.4675  0.5364 -0.2038
  141SAPE  H15X15468   1.145   4.945   9.126 -0.7151 -0.3095 -1.3232
  141SAPE  H15Y15469   1.295   5.017   9.041 -0.8612 -1.3046 -2.1838
  141SAPE  C31615470   1.110   5.026   8.928  0.0888 -0.1381  0.4645
  141SAPE  H16X15471   1.137   5.115   8.867 -3.1841  0.2314 -0.6407
  141SAPE  H16Y15472   1.004   5.028   8.962  0.5136  1.5746  1.8529
  141SAPE  C31715473   1.138   4.896   8.859  0.2226  0.1855 -0.0661
  141SAPE  H17X15474   1.243   4.867   8.881  0.2660 -0.0228 -0.5423
  141SAPE  H17Y15475   1.117   4.902   8.751 -0.3000  0.3289  0.0440
  141SAPE  C31815476   1.051   4.786   8.904  0.3641  0.1850  0.2683
  141SAPE  H18X15477   1.087   4.759   9.005 -1.3354 -0.6283  0.6934
  141SAPE  H18Y15478   1.059   4.701   8.834  1.1880 -0.4003  1.0477
  141SAPE  H18Z15479   0.944   4.816   8.905  0.5439  1.1478 -2.0212
  142SAPE     N15480   1.787   3.252  11.147  0.3807  0.1602  0.7787
  142SAPE   HN115481   1.693   3.285  11.114  0.3014 -0.5068  0.3157
  142SAPE   HN215482   1.767   3.152  11.168  1.2390  0.1437  1.5816
  142SAPE   HN315483   1.811   3.307  11.232  2.1011  0.6098  0.0355
  142SAPE   C1215484   1.896   3.301  11.055 -0.5741 -0.7078  0.2956
  142SAPE  H12A15485   1.869   3.275  10.950  1.0663 -0.7711 -0.1483
  142SAPE  H12B15486   1.987   3.247  11.092  1.0794  1.7957  0.0991
  142SAPE   C1115487   1.911   3.451  11.054 -0.3668 -0.3120 -0.5398
  142SAPE  H11A15488   1.831   3.504  10.998 -1.5663 -0.0924  1.3053
  142SAPE  H11B15489   2.007   3.459  10.998  0.5567  1.1920  1.1658
  142SAPE     P15490   2.014   3.638  11.215 -0.2385 -0.0374 -0.0846
  142SAPE   O1315491   1.930   3.735  11.285  0.4842 -0.3525  0.1340
  142SAPE   O1415492   2.129   3.599  11.294  0.0532 -0.0209  0.1193
  142SAPE   O1215493   1.929   3.506  11.186 -0.7659 -0.1080 -0.3808
  142SAPE   O1115494   2.050   3.691  11.070  0.1350 -0.2566  0.3569
  142SAPE    C115495   2.185   3.687  11.032  0.7188  0.0939  0.4647
  142SAPE    HA15496   2.235   3.779  11.072 -0.6577  0.4830  1.3567
  142SAPE    HB15497   2.234   3.601  11.082  0.4878  0.3583  1.1590
  142SAPE    C215498   2.201   3.683  10.872  0.1584 -0.7465  0.2214
  142SAPE    HS15499   2.176   3.781  10.827 -0.4718 -1.8211 -1.8948
  142SAPE   O2115500   2.115   3.586  10.810  0.2750  0.2289  0.1383
  142SAPE   C2115501   2.010   3.635  10.745 -0.4798  1.1895  0.2289
  142SAPE   O2215502   1.951   3.741  10.753 -0.3522 -0.0939  0.2210
  142SAPE   C2215503   1.968   3.514  10.656  0.6573  0.9526 -0.0175
  142SAPE   H2R15504   2.050   3.487  10.587  0.2949 -0.2886  0.0118
  142SAPE   H2S15505   1.938   3.422  10.711  3.8480  0.4004  1.0002
  142SAPE    C315506   2.347   3.633  10.832  0.6713  1.1066 -0.4619
  142SAPE    HX15507   2.345   3.525  10.856  0.4563  1.2159  0.0101
  142SAPE    HY15508   2.427   3.677  10.895 -0.0072  0.7320  0.6764
  142SAPE   O3115509   2.385   3.652  10.696  1.1176  0.3297 -0.2341
  142SAPE   C3115510   2.393   3.777  10.669  0.8670 -0.4511  0.6889
  142SAPE   O3215511   2.388   3.868  10.744 -0.0379  0.1224  0.3914
  142SAPE   C3215512   2.413   3.800  10.521  0.5052  0.0817  0.7505
  142SAPE   H2X15513   2.317   3.782  10.468 -1.4195  1.7013  3.4179
  142SAPE   H2Y15514   2.488   3.725  10.488 -2.4743 -2.6287 -0.3026
  142SAPE   C2315515   1.863   3.557  10.552  0.2429  1.0847  0.6002
  142SAPE   H3R15516   1.883   3.659  10.512  0.3186  1.2766  1.1270
  142SAPE   H3S15517   1.766   3.566  10.604  0.3026  0.6678  0.7863
  142SAPE   C2415518   1.855   3.452  10.438 -0.0334 -0.0256 -0.4758
  142SAPE   H4R15519   1.859   3.351  10.483  0.6278  0.4459  0.5885
  142SAPE   H4S15520   1.945   3.456  10.374  1.3670 -2.3122  1.2109
  142SAPE   C2515521   1.727   3.481  10.360 -0.0325 -0.3901 -0.1537
  142SAPE   H5R15522   1.640   3.515  10.417  0.1479  0.9289 -0.6426
  142SAPE   C2615523   1.710   3.479  10.222  0.5568 -0.2401  0.4536
  142SAPE   H6R15524   1.611   3.499  10.179  0.6506  0.1735  0.4266
  142SAPE   C2715525   1.817   3.442  10.116 -0.8180  0.0058 -0.5253
  142SAPE   H7R15526   1.912   3.399  10.155 -0.3788  0.6282 -0.8980
  142SAPE   H7S15527   1.848   3.530  10.056  1.7792 -1.6279 -1.7475
  142SAPE   C2815528   1.756   3.339  10.023  0.6151 -0.5362 -0.0890
  142SAPE   H8R15529   1.713   3.247  10.064 -1.1166  0.0605 -0.4540
  142SAPE   C2915530   1.750   3.342   9.888  0.4458  0.5006  1.0977
  142SAPE   H9R15531   1.707   3.255   9.837 -0.2073  2.3344 -1.6835
  142SAPE  C21015532   1.814   3.451   9.806 -0.2270 -0.1918  0.2209
  142SAPE  H10R15533   1.803   3.547   9.861 -0.7463  1.7118 -2.9835
  142SAPE  H10S15534   1.766   3.470   9.708  0.5073  1.7411  0.2067
  142SAPE  C21115535   1.962   3.420   9.785  0.7929  0.3069  0.0914
  142SAPE  H11R15536   2.019   3.427   9.879 -0.0974  0.6414  0.6240
  142SAPE  C21215537   2.011   3.378   9.667 -0.2205  0.6477 -0.1425
  142SAPE  H12R15538   2.118   3.353   9.665 -0.1154  0.8065  1.6968
  142SAPE  C21315539   1.934   3.348   9.536 -0.3590 -0.3236 -0.5143
  142SAPE  H13R15540   1.832   3.308   9.552 -0.0997 -0.6634  0.3739
  142SAPE  H13S15541   2.005   3.284   9.479  1.0425  0.6468  0.0690
  142SAPE  C21415542   1.910   3.488   9.468  0.0586  0.5977  0.8082
  142SAPE  H14R15543   1.866   3.565   9.533 -1.7155 -1.2655  1.8820
  142SAPE  C21515544   1.931   3.507   9.337 -0.1379  0.5410 -0.4545
  142SAPE  H15R15545   1.900   3.603   9.294  0.2925  1.2715  0.8225
  142SAPE  C21615546   1.985   3.407   9.246  0.8925  0.0262  0.0380
  142SAPE  H16R15547   1.910   3.412   9.164 -0.6653  0.9616  1.4404
  142SAPE  H16S15548   1.991   3.300   9.274  0.1093 -0.6242 -2.0934
  142SAPE  C21715549   2.128   3.444   9.200 -0.2886  0.5983  0.5665
  142SAPE  H17R15550   2.209   3.410   9.268 -1.1519 -1.9470  0.4203
  142SAPE  H17S15551   2.131   3.555   9.200  1.0406  0.6043 -0.6095
  142SAPE  C21815552   2.151   3.392   9.045 -0.1600 -0.1734 -0.3249
  142SAPE  H18R15553   2.071   3.444   8.987 -0.6664  0.7803  1.1738
  142SAPE  H18S15554   2.142   3.282   9.046 -2.4810 -0.0446  1.2371
  142SAPE  C21915555   2.294   3.423   8.973 -0.1381 -0.1622  0.5408
  142SAPE  H19R15556   2.367   3.387   9.049 -0.1853  0.5260  0.9170
  142SAPE  H19S15557   2.302   3.534   8.969  0.7174 -0.2474 -1.5307
  142SAPE  C22015558   2.316   3.357   8.832  0.0890 -0.5120  0.1212
  142SAPE  H20R15559   2.222   3.383   8.778 -0.3452  1.5736  1.7137
  142SAPE  H20S15560   2.333   3.248   8.839 -1.1437 -0.7665 -0.4757
  142SAPE  H20T15561   2.399   3.406   8.777  1.2141 -2.0066  0.4394
  142SAPE   C3315562   2.463   3.940  10.481 -0.0431 -0.4639 -0.4882
  142SAPE   H3X15563   2.560   3.956  10.532 -1.4711 -0.3261  2.3663
  142SAPE   H3Y15564   2.404   4.024  10.522  0.4289  0.4818 -1.6739
  142SAPE   C3415565   2.458   3.951  10.328  0.5419  0.6598 -0.3369
  142SAPE   H4X15566   2.464   4.059  10.302  0.2481  0.6134 -0.6097
  142SAPE   H4Y15567   2.368   3.900  10.287 -0.4689  0.5401  1.8820
  142SAPE   C3515568   2.581   3.880  10.266  0.0208  0.3406 -0.6818
  142SAPE   H5X15569   2.564   3.774  10.293  1.0059  0.1433 -0.8021
  142SAPE   H5Y15570   2.675   3.907  10.318  0.6269 -1.8439 -0.5359
  142SAPE   C3615571   2.584   3.894  10.120  0.2241  0.6880  0.1177
  142SAPE   H6X15572   2.588   4.002  10.098 -0.2996  0.3695 -1.6444
  142SAPE   H6Y15573   2.492   3.850  10.076  2.1561 -4.0940  0.2476
  142SAPE   C3715574   2.701   3.827  10.051 -0.5619  0.3621 -0.0472
  142SAPE   H7X15575   2.692   3.718  10.071 -2.1466  0.3501 -0.6615
  142SAPE   H7Y15576   2.794   3.859  10.102  0.4005  0.0015 -1.5117
  142SAPE   C3815577   2.711   3.854   9.898  0.2947  0.0183  0.4121
  142SAPE   H8X15578   2.747   3.957   9.881  0.3179  0.1935  1.4404
  142SAPE   H8Y15579   2.611   3.836   9.853  0.2106  0.4649  0.4188
  142SAPE   C3915580   2.803   3.759   9.831  0.2885  0.2253 -1.1158
  142SAPE   H9X15581   2.769   3.654   9.845  0.3705  0.5233  2.1554
  142SAPE   H9Y15582   2.905   3.787   9.867  0.3603  0.9714 -1.8609
  142SAPE  C31015583   2.808   3.795   9.686  0.5479  0.6855  0.2556
  142SAPE  H10X15584   2.849   3.898   9.675 -3.2758  2.2434 -0.8704
  142SAPE  H10Y15585   2.704   3.812   9.652  0.9812  1.8390 -0.5689
  142SAPE  C31115586   2.880   3.686   9.612 -0.2075  0.5849 -0.1602
  142SAPE  H11X15587   2.804   3.608   9.587 -1.7340  2.0895 -0.3899
  142SAPE  H11Y15588   2.971   3.653   9.665 -0.3815 -2.8354 -1.7352
  142SAPE  C31215589   2.924   3.740   9.478  0.9708 -0.0204 -0.0355
  142SAPE  H12X15590   2.983   3.833   9.495 -1.5254  1.4654  1.0444
  142SAPE  H12Y15591   2.832   3.777   9.429  0.9709 -0.5689 -0.4623
  142SAPE  C31315592   3.012   3.646   9.399  0.4050 -0.8707  0.0189
  142SAPE  H13X15593   2.955   3.551   9.413 -0.6312 -0.3836 -0.7568
  142SAPE  H13Y15594   3.110   3.628   9.448  0.8126 -0.9516 -0.8082
  142SAPE  C31415595   3.026   3.669   9.252 -0.0279 -0.0741 -0.2281
  142SAPE  H14X15596   3.051   3.777   9.241  0.2962 -0.2139 -0.9076
  142SAPE  H14Y15597   2.929   3.662   9.197 -1.1195 -0.8984  1.6873
  142SAPE  C31515598   3.130   3.576   9.178 -0.3948  0.2882 -0.8641
  142SAPE  H15X15599   3.084   3.480   9.144 -0.1049 -0.1792  0.0212
  142SAPE  H15Y15600   3.200   3.548   9.259 -2.2885 -2.1884  0.0679
  142SAPE  C31615601   3.193   3.629   9.049 -1.1322  0.2109 -0.6459
  142SAPE  H16X15602   3.249   3.546   8.999  3.4658  1.6464  1.6022
  142SAPE  H16Y15603   3.269   3.703   9.082 -1.0446  0.5976 -1.6868
  142SAPE  C31715604   3.098   3.679   8.936 -0.5245  1.0530  0.7477
  142SAPE  H17X15605   3.028   3.752   8.983 -2.1644 -1.1038  1.8867
  142SAPE  H17Y15606   3.042   3.591   8.898  1.6038  0.1174 -0.3487
  142SAPE  C31815607   3.177   3.745   8.826 -0.1343  0.4171 -0.5174
  142SAPE  H18X15608   3.107   3.764   8.742 -0.7851 -2.5315 -0.7679
  142SAPE  H18Y15609   3.256   3.678   8.785  0.5583  0.0303  1.3291
  142SAPE  H18Z15610   3.239   3.828   8.864 -0.2205  0.1470  0.2433
  143SAPE     N15611   2.691   5.873  10.939 -0.8345 -0.1717 -0.2793
  143SAPE   HN115612   2.670   5.815  10.856 -0.4964 -2.3171  1.0744
  143SAPE   HN215613   2.760   5.948  10.916  0.5203 -1.2362  0.2021
  143SAPE   HN315614   2.746   5.815  11.006 -1.6918  0.3146  0.8804
  143SAPE   C1215615   2.573   5.933  11.008  0.0754  0.2514  0.3245
  143SAPE  H12A15616   2.533   5.848  11.065 -0.6869  0.3416 -0.0612
  143SAPE  H12B15617   2.498   5.961  10.931  1.2172  1.1573 -0.5173
  143SAPE   C1115618   2.627   6.050  11.090  0.4831  0.1604  0.2318
  143SAPE  H11A15619   2.711   6.026  11.158  0.8126  0.4326 -0.0735
  143SAPE  H11B15620   2.547   6.079  11.161  0.3994  1.6767 -0.4444
  143SAPE     P15621   2.796   6.214  10.977  0.1689 -0.0306 -0.1731
  143SAPE   O1315622   2.848   6.307  11.079 -0.5490  0.2345 -0.2043
  143SAPE   O1415623   2.879   6.094  10.949  0.1416 -0.1306  0.1300
  143SAPE   O1215624   2.653   6.163  11.002  0.2812 -0.3844  0.3742
  143SAPE   O1115625   2.799   6.298  10.844 -0.1294 -0.2043 -0.0414
  143SAPE    C115626   2.683   6.321  10.763  0.1552 -0.0187  0.2385
  143SAPE    HA15627   2.596   6.346  10.827  0.2500 -1.1209  0.8346
  143SAPE    HB15628   2.691   6.407  10.695 -1.1483  0.9928  1.2967
  143SAPE    C215629   2.637   6.197  10.670 -0.3336 -0.2594 -0.4867
  143SAPE    HS15630   2.630   6.107  10.734  4.6670 -0.6656 -0.0829
  143SAPE   O2115631   2.738   6.190  10.567 -0.5901 -0.2538  0.5523
  143SAPE   C2115632   2.803   6.074  10.563  0.5043  0.2434 -0.3189
  143SAPE   O2215633   2.773   5.977  10.630 -1.1334  0.5054 -0.0334
  143SAPE   C2215634   2.918   6.086  10.464 -0.0905  0.3677 -0.2088
  143SAPE   H2R15635   2.885   6.138  10.372  0.8424  1.1929 -0.0873
  143SAPE   H2S15636   2.993   6.156  10.507 -0.5046 -0.0118  1.1745
  143SAPE    C315637   2.495   6.224  10.619  0.6220 -0.0190 -0.6607
  143SAPE    HX15638   2.501   6.323  10.569 -3.7401 -0.1032 -1.7076
  143SAPE    HY15639   2.435   6.218  10.712  2.8501 -2.1010  0.7693
  143SAPE   O3115640   2.459   6.123  10.532  0.4970  0.3181 -0.7276
  143SAPE   C3115641   2.409   6.010  10.581  0.3969  0.1997 -0.3784
  143SAPE   O3215642   2.416   5.972  10.698 -0.3245  0.2577 -0.2843
  143SAPE   C3215643   2.332   5.935  10.470  0.0385  0.7326  0.3182
  143SAPE   H2X15644   2.234   5.987  10.461  0.0192  0.8794  1.3012
  143SAPE   H2Y15645   2.317   5.830  10.505 -0.0959  0.5925 -0.1508
  143SAPE   C2315646   2.977   5.940  10.435  0.2939 -0.5812 -0.1812
  143SAPE   H3R15647   2.897   5.866  10.410  0.7678 -1.6782  1.4157
  143SAPE   H3S15648   3.026   5.908  10.530 -0.7107 -1.1451  0.1645
  143SAPE   C2415649   3.076   5.941  10.318  0.2367 -0.2720  0.1773
  143SAPE   H4R15650   3.127   6.040  10.324 -0.6030  0.0981  2.0025
  143SAPE   H4S15651   3.013   5.947  10.227 -1.5364  0.5952  1.3901
  143SAPE   C2515652   3.176   5.828  10.326 -0.4228  0.2839 -0.3727
  143SAPE   H5R15653   3.221   5.820  10.426 -1.0194 -0.4762 -0.1544
  143SAPE   C2615654   3.208   5.742  10.234  0.0214  0.5057  0.2199
  143SAPE   H6R15655   3.289   5.673  10.261 -0.1417  0.8731  1.7327
  143SAPE   C2715656   3.169   5.748  10.090  0.3973 -0.4348 -0.5955
  143SAPE   H7R15657   3.258   5.734  10.025  1.1367  2.2642 -0.2841
  143SAPE   H7S15658   3.143   5.848  10.048 -0.2298 -0.1135  0.5162
  143SAPE   C2815659   3.065   5.645  10.061 -0.7694 -0.2974  0.0755
  143SAPE   H8R15660   3.058   5.569  10.140  1.8536  0.0451  0.7062
  143SAPE   C2915661   2.988   5.639   9.951  0.0814 -0.3982  0.2160
  143SAPE   H9R15662   2.915   5.557   9.954 -1.0555  0.6255  1.3857
  143SAPE  C21015663   2.977   5.739   9.836 -0.3908 -0.3135  0.0273
  143SAPE  H10R15664   3.064   5.808   9.841  0.4907 -1.1772 -2.3038
  143SAPE  H10S15665   2.882   5.796   9.835  0.0744  0.4846 -1.3050
  143SAPE  C21115666   3.005   5.667   9.709 -0.0340  0.3592 -0.6798
  143SAPE  H11R15667   3.082   5.590   9.728  0.2196  0.7667 -0.0075
  143SAPE  C21215668   2.954   5.679   9.590 -0.0267 -0.3112 -0.5261
  143SAPE  H12R15669   2.995   5.626   9.503 -0.5002 -0.3458 -0.7342
  143SAPE  C21315670   2.851   5.777   9.549 -0.5268 -0.4080 -0.4554
  143SAPE  H13R15671   2.874   5.808   9.445 -0.3854  0.9721 -0.0329
  143SAPE  H13S15672   2.861   5.873   9.605 -1.4777  0.2468 -1.3698
  143SAPE  C21415673   2.708   5.731   9.544  0.4500  0.0910 -0.4312
  143SAPE  H14R15674   2.647   5.769   9.627  0.5887  2.6460 -1.3814
  143SAPE  C21515675   2.639   5.655   9.455  0.2797  0.3281  0.5796
  143SAPE  H15R15676   2.531   5.644   9.466  0.3452 -0.2566  0.6304
  143SAPE  C21615677   2.696   5.590   9.328  0.4378 -0.3296 -0.0006
  143SAPE  H16R15678   2.646   5.492   9.316 -1.8057  0.4153  2.5025
  143SAPE  H16S15679   2.806   5.575   9.339  0.6319 -0.0600 -1.3184
  143SAPE  C21715680   2.680   5.671   9.203  0.1202 -0.5519 -1.1866
  143SAPE  H17R15681   2.719   5.775   9.216  0.3399 -0.6423 -1.1126
  143SAPE  H17S15682   2.572   5.690   9.186  0.2509  2.9897  0.8338
  143SAPE  C21815683   2.732   5.623   9.063 -0.2388  0.9083 -0.4604
  143SAPE  H18R15684   2.715   5.516   9.041  2.6499  0.4954 -1.0966
  143SAPE  H18S15685   2.843   5.633   9.063  0.0824 -1.8785  0.4277
  143SAPE  C21915686   2.678   5.705   8.945 -0.1618 -0.4756 -0.1104
  143SAPE  H19R15687   2.712   5.811   8.937 -0.4505 -0.4421 -1.0042
  143SAPE  H19S15688   2.568   5.705   8.960  0.1340  0.6808  2.5800
  143SAPE  C22015689   2.735   5.641   8.817 -0.2977  0.0268  0.5580
  143SAPE  H20R15690   2.846   5.643   8.813 -0.2132  1.4969  2.0944
  143SAPE  H20S15691   2.695   5.687   8.724 -4.2851 -0.4416  1.8125
  143SAPE  H20T15692   2.705   5.534   8.820  0.1485 -0.1008  0.4894
  143SAPE   C3315693   2.409   5.923  10.342  0.5524 -0.0684 -0.2809
  143SAPE   H3X15694   2.449   6.019  10.304  0.9725 -0.7677 -1.6688
  143SAPE   H3Y15695   2.343   5.892  10.257  2.2577 -0.4738 -1.5213
  143SAPE   C3415696   2.526   5.822  10.352 -0.5299 -1.0814  0.1247
  143SAPE   H4X15697   2.486   5.723  10.385 -1.8564 -0.5052  0.3255
  143SAPE   H4Y15698   2.601   5.862  10.424 -0.9823 -3.4584  2.0592
  143SAPE   C3515699   2.605   5.789  10.219 -0.4461  0.1818  0.2292
  143SAPE   H5X15700   2.697   5.731  10.244  0.3835  1.7201  0.9180
  143SAPE   H5Y15701   2.641   5.885  10.176  0.8804 -0.0960  0.6588
  143SAPE   C3615702   2.524   5.704  10.116  0.7009  0.9105  0.4108
  143SAPE   H6X15703   2.440   5.764  10.075  1.1393  0.3076 -1.4961
  143SAPE   H6Y15704   2.477   5.623  10.176  0.4883  0.2603 -0.6125
  143SAPE   C3715705   2.613   5.643  10.009  0.7198  0.3620 -0.1030
  143SAPE   H7X15706   2.688   5.576  10.057  0.6608  1.3517  1.4464
  143SAPE   H7Y15707   2.673   5.716   9.951  0.1240 -0.5711 -1.9937
  143SAPE   C3815708   2.527   5.576   9.910 -0.0749  0.0783 -0.1498
  143SAPE   H8X15709   2.478   5.649   9.842  1.4850  2.7981  1.4322
  143SAPE   H8Y15710   2.449   5.519   9.964  1.2178 -0.5994  1.0734
  143SAPE   C3915711   2.598   5.465   9.833 -0.7204  0.4876  0.4149
  143SAPE   H9X15712   2.633   5.371   9.881 -1.0833 -0.8812 -1.8503
  143SAPE   H9Y15713   2.689   5.512   9.790 -0.1837 -0.8546  0.0312
  143SAPE  C31015714   2.513   5.417   9.720  0.2648 -0.0321 -0.4333
  143SAPE  H10X15715   2.462   5.502   9.670 -0.6501  0.5402  1.3880
  143SAPE  H10Y15716   2.436   5.351   9.767  0.2165  0.5830  0.3596
  143SAPE  C31115717   2.581   5.331   9.614 -0.0467  0.1237  0.0827
  143SAPE  H11X15718   2.630   5.240   9.654 -0.4163  0.6270  1.7278
  143SAPE  H11Y15719   2.651   5.399   9.560 -0.5693  0.4186 -0.2372
  143SAPE  C31215720   2.486   5.283   9.507  0.2521  0.4890 -0.1601
  143SAPE  H12X15721   2.546   5.265   9.415  0.1562 -1.5096  0.1401
  143SAPE  H12Y15722   2.406   5.359   9.491  0.1458  0.9589  2.1601
  143SAPE  C31315723   2.411   5.152   9.553 -0.2589 -0.1252 -0.1948
  143SAPE  H13X15724   2.358   5.165   9.649  0.2330  1.2840 -0.1046
  143SAPE  H13Y15725   2.486   5.072   9.568  1.5392  1.7783  1.4399
  143SAPE  C31415726   2.308   5.099   9.451 -0.1550 -0.2473  0.5842
  143SAPE  H14X15727   2.245   5.182   9.414 -0.1550  0.1840  1.5264
  143SAPE  H14Y15728   2.245   5.015   9.485  0.6712 -0.6651  1.1150
  143SAPE  C31515729   2.373   5.049   9.323  0.6555  0.0072  0.0917
  143SAPE  H15X15730   2.451   5.115   9.278 -0.6013  0.7044 -1.1535
  143SAPE  H15Y15731   2.285   5.054   9.254 -1.0028 -2.1463  1.8897
  143SAPE  C31615732   2.420   4.905   9.328 -0.5525 -0.5731  0.2568
  143SAPE  H16X15733   2.350   4.840   9.385  0.3528 -0.7186  1.2562
  143SAPE  H16Y15734   2.523   4.906   9.372 -1.1448 -3.4453  1.9938
  143SAPE  C31715735   2.415   4.844   9.185 -0.2300 -0.4923  0.1732
  143SAPE  H17X15736   2.311   4.851   9.145  0.6587  0.9862 -2.0049
  143SAPE  H17Y15737   2.445   4.737   9.195  1.8128 -0.1255 -1.4708
  143SAPE  C31815738   2.515   4.896   9.080  0.1466  0.1845  0.3991
  143SAPE  H18X15739   2.481   4.852   8.984  2.6204 -1.3690  0.1492
  143SAPE  H18Y15740   2.622   4.880   9.105  0.5585  0.5347 -1.0867
  143SAPE  H18Z15741   2.500   5.005   9.069  1.3410  0.3202 -0.0320
  144SAPE     N15742   6.257   2.123  11.099  0.3047  0.2376 -0.0122
  144SAPE   HN115743   6.227   2.030  11.135 -1.3788  0.3818 -0.9265
  144SAPE   HN215744   6.166   2.173  11.094 -0.6609 -1.4415 -0.2319
  144SAPE   HN315745   6.283   2.110  10.999 -2.6215  2.1278 -1.1559
  144SAPE   C1215746   6.349   2.200  11.182  0.3848  0.1499  0.4166
  144SAPE  H12A15747   6.402   2.123  11.243 -1.0716 -1.1185  0.1118
  144SAPE  H12B15748   6.285   2.272  11.237  0.2734  1.7348 -1.6713
  144SAPE   C1115749   6.450   2.285  11.103 -0.0118 -0.0455  0.4096
  144SAPE  H11A15750   6.526   2.224  11.050  0.5506  1.7238 -0.9342
  144SAPE  H11B15751   6.504   2.356  11.170 -1.1520  2.0580 -0.8052
  144SAPE     P15752   6.320   2.502  10.999  0.2015  0.0936 -0.3368
  144SAPE   O1315753   6.212   2.497  10.899  0.6901 -0.5285 -0.2416
  144SAPE   O1415754   6.287   2.548  11.140  0.0239  0.3694  0.1037
  144SAPE   O1215755   6.383   2.363  11.007 -0.1558  0.3958  0.1557
  144SAPE   O1115756   6.429   2.599  10.936 -0.0439 -0.0573 -0.3783
  144SAPE    C115757   6.547   2.556  10.876 -0.3936  0.4687  0.0529
  144SAPE    HA15758   6.608   2.495  10.946 -0.3834  1.3989  0.8750
  144SAPE    HB15759   6.526   2.472  10.806  0.6994 -0.8427  1.2375
  144SAPE    C215760   6.633   2.666  10.805 -0.0024 -0.4430  0.0480
  144SAPE    HS15761   6.636   2.757  10.868 -1.6898  1.8625 -2.9612
  144SAPE   O2115762   6.580   2.687  10.675 -0.4335  0.2002 -1.1980
  144SAPE   C2115763   6.621   2.805  10.623 -0.1617 -0.8785  1.2933
  144SAPE   O2215764   6.696   2.884  10.677  0.1345  0.0298 -0.0206
  144SAPE   C2215765   6.576   2.829  10.479  0.1932  0.9778  0.6715
  144SAPE   H2R15766   6.590   2.737  10.418  0.1165 -0.0232  2.1175
  144SAPE   H2S15767   6.466   2.845  10.471 -0.2100 -1.2528  1.1003
  144SAPE    C315768   6.781   2.616  10.789  0.2343  0.4001 -0.0506
  144SAPE    HX15769   6.822   2.594  10.890  1.0698  1.6783 -0.0828
  144SAPE    HY15770   6.843   2.701  10.753  0.7047  0.4210  0.7729
  144SAPE   O3115771   6.774   2.496  10.711  0.0618  0.6255 -0.2125
  144SAPE   C3115772   6.822   2.506  10.594  0.5224 -0.0482  0.1097
  144SAPE   O3215773   6.879   2.605  10.548 -0.4281  0.4558 -0.0881
  144SAPE   C3215774   6.809   2.373  10.523  0.0073  0.0253 -0.8448
  144SAPE   H2X15775   6.749   2.305  10.587  0.4653 -0.5083 -0.9761
  144SAPE   H2Y15776   6.913   2.337  10.515  0.9826  0.0093  5.9498
  144SAPE   C2315777   6.649   2.950  10.415  0.0108  0.2462 -0.2475
  144SAPE   H3R15778   6.757   2.933  10.432 -0.1189  0.7678  1.2257
  144SAPE   H3S15779   6.617   3.035  10.478 -0.3636  0.0366 -0.1469
  144SAPE   C2415780   6.600   2.967  10.266  0.6267  0.1360  0.1769
  144SAPE   H4R15781   6.636   3.061  10.220 -1.0293  1.1178  0.8031
  144SAPE   H4S15782   6.490   2.979  10.275  0.9255  3.1934  0.7355
  144SAPE   C2515783   6.646   2.867  10.170  0.2928  0.6374  0.3410
  144SAPE   H5R15784   6.754   2.843  10.164 -0.0955 -1.1879  0.0757
  144SAPE   C2615785   6.568   2.782  10.101 -0.6029  0.1082 -0.6530
  144SAPE   H6R15786   6.620   2.700  10.050 -0.5386 -0.1629 -0.1515
  144SAPE   C2715787   6.418   2.787  10.086 -0.0769 -0.4567 -0.1591
  144SAPE   H7R15788   6.374   2.879  10.042  1.3090 -0.0077 -0.6366
  144SAPE   H7S15789   6.374   2.775  10.188 -0.9955  0.3189 -0.4463
  144SAPE   C2815790   6.373   2.658  10.029 -1.2098 -0.2172  0.0003
  144SAPE   H8R15791   6.403   2.570  10.088 -0.3417  0.7986  1.1252
  144SAPE   C2915792   6.303   2.633   9.915 -0.2444 -0.5454 -1.0226
  144SAPE   H9R15793   6.278   2.530   9.887  2.4415 -1.0046 -1.9978
  144SAPE  C21015794   6.254   2.745   9.826 -0.7206 -0.2320 -0.0278
  144SAPE  H10R15795   6.207   2.824   9.888 -0.3121  0.0116 -0.0220
  144SAPE  H10S15796   6.172   2.701   9.766  0.2459 -3.2276  0.6842
  144SAPE  C21115797   6.372   2.797   9.743  0.1039  0.1557 -0.5422
  144SAPE  H11R15798   6.457   2.830   9.805 -0.3357 -2.6853  1.7850
  144SAPE  C21215799   6.386   2.800   9.610  0.1001  0.2220 -0.1518
  144SAPE  H12R15800   6.480   2.837   9.566  1.0757 -1.5715  0.3398
  144SAPE  C21315801   6.283   2.759   9.507 -0.1110 -0.7555  0.2279
  144SAPE  H13R15802   6.189   2.727   9.559 -1.4104  0.2617 -1.4027
  144SAPE  H13S15803   6.321   2.666   9.461  1.9202  0.3969 -0.5604
  144SAPE  C21415804   6.254   2.853   9.395  0.5051  0.1164  0.0678
  144SAPE  H14R15805   6.154   2.897   9.411 -0.8009 -3.3608  2.7999
  144SAPE  C21515806   6.321   2.867   9.284 -0.2735  0.2990  0.0993
  144SAPE  H15R15807   6.276   2.935   9.209 -0.4413 -0.1283 -0.1893
  144SAPE  C21615808   6.453   2.798   9.240 -0.7888  0.7351 -0.3236
  144SAPE  H16R15809   6.465   2.688   9.243  3.1323  0.9882 -2.1646
  144SAPE  H16S15810   6.544   2.853   9.270  0.8344 -0.9754 -1.9138
  144SAPE  C21715811   6.473   2.817   9.083  0.3550 -0.3303  0.0729
  144SAPE  H17R15812   6.561   2.761   9.044  0.6869 -0.1164  0.5084
  144SAPE  H17S15813   6.488   2.925   9.060  0.7298 -0.0084  1.7115
  144SAPE  C21815814   6.354   2.766   9.002 -0.1531  0.1272 -0.4721
  144SAPE  H18R15815   6.265   2.833   9.011  0.5361  0.8536  1.2859
  144SAPE  H18S15816   6.333   2.665   9.042  2.2264  0.3138  1.4715
  144SAPE  C21915817   6.383   2.751   8.850 -0.4382 -0.5322 -0.0873
  144SAPE  H19R15818   6.478   2.698   8.831  1.9234  3.8792 -2.0914
  144SAPE  H19S15819   6.416   2.847   8.805  1.4589  0.1868  2.5908
  144SAPE  C22015820   6.269   2.694   8.771 -0.2836 -0.3259  0.3041
  144SAPE  H20R15821   6.173   2.745   8.795  1.0995  2.0402  1.0674
  144SAPE  H20S15822   6.266   2.587   8.798  0.5084 -0.5778 -0.5510
  144SAPE  H20T15823   6.289   2.694   8.661 -0.8261  0.3899  0.1985
  144SAPE   C3315824   6.733   2.390  10.386 -0.6135  0.3438  0.2699
  144SAPE   H3X15825   6.641   2.453  10.382 -0.3196  0.7222 -1.9819
  144SAPE   H3Y15826   6.700   2.286  10.366  0.6577  0.2568 -1.6927
  144SAPE   C3415827   6.825   2.445  10.274 -0.4756 -0.1051  0.4868
  144SAPE   H4X15828   6.886   2.353  10.259 -1.0446 -0.5432  0.8573
  144SAPE   H4Y15829   6.882   2.537  10.301  0.1757  0.3641 -2.1524
  144SAPE   C3515830   6.754   2.446  10.140 -0.1944  0.4354 -0.0489
  144SAPE   H5X15831   6.674   2.522  10.150 -0.6653 -0.0473 -0.1142
  144SAPE   H5Y15832   6.720   2.341  10.126  0.8569 -0.1263  1.4101
  144SAPE   C3615833   6.824   2.486  10.017  0.0518 -0.6200 -0.3059
  144SAPE   H6X15834   6.912   2.420  10.004 -0.4760 -1.5286  0.6043
  144SAPE   H6Y15835   6.868   2.585  10.039  1.0740 -1.1975  0.3168
  144SAPE   C3715836   6.739   2.493   9.893  0.3558 -0.3486 -0.2503
  144SAPE   H7X15837   6.645   2.549   9.915  0.8863  1.4689 -2.2287
  144SAPE   H7Y15838   6.703   2.397   9.850  1.3186 -1.1364  0.6709
  144SAPE   C3815839   6.807   2.567   9.779  0.3499 -0.6980 -0.5273
  144SAPE   H8X15840   6.914   2.536   9.781  1.1924  1.9174 -0.4221
  144SAPE   H8Y15841   6.793   2.675   9.800 -2.1203 -1.0533 -0.0643
  144SAPE   C3915842   6.754   2.531   9.644  0.2731  0.2730  0.7087
  144SAPE   H9X15843   6.653   2.575   9.628 -0.1393 -1.1374 -0.9327
  144SAPE   H9Y15844   6.751   2.420   9.631 -0.7499  0.1518  1.7614
  144SAPE  C31015845   6.852   2.582   9.538  0.1113  0.4099 -0.9389
  144SAPE  H10X15846   6.944   2.522   9.552 -1.1997 -1.2078  1.4125
  144SAPE  H10Y15847   6.843   2.688   9.571  0.3369 -0.1522  1.0360
  144SAPE  C31115848   6.792   2.568   9.394 -0.2937 -0.0360 -0.9587
  144SAPE  H11X15849   6.682   2.560   9.389 -0.4955  1.4119  0.3519
  144SAPE  H11Y15850   6.823   2.469   9.357 -0.3725 -0.7603  0.8065
  144SAPE  C31215851   6.839   2.675   9.296 -0.6410 -0.4595 -0.0697
  144SAPE  H12X15852   6.945   2.690   9.325 -0.5041 -0.9603 -0.2914
  144SAPE  H12Y15853   6.790   2.773   9.315 -2.7219 -1.3742 -0.3888
  144SAPE  C31315854   6.830   2.636   9.151  0.1136 -0.2768 -0.2533
  144SAPE  H13X15855   6.722   2.610   9.139 -0.2527  0.5886  0.9380
  144SAPE  H13Y15856   6.899   2.551   9.134  0.4180 -0.4029  1.4075
  144SAPE  C31415857   6.874   2.760   9.073 -0.6533 -1.0623  0.4363
  144SAPE  H14X15858   6.945   2.826   9.127  0.5092 -1.5642 -0.4306
  144SAPE  H14Y15859   6.786   2.817   9.035  1.0502  1.0802 -0.5535
  144SAPE  C31515860   6.959   2.713   8.956 -0.3667  0.2383 -0.3780
  144SAPE  H15X15861   7.030   2.638   8.997 -0.2218  0.9010  0.6362
  144SAPE  H15Y15862   7.006   2.806   8.915 -1.1457 -0.3030 -2.6019
  144SAPE  C31615863   6.889   2.632   8.846 -0.0199 -0.6980 -0.0818
  144SAPE  H16X15864   6.874   2.526   8.876 -0.5632 -0.0345  2.1880
  144SAPE  H16Y15865   6.956   2.635   8.757 -1.4941  0.7562 -1.2067
  144SAPE  C31715866   6.756   2.703   8.805  0.0380 -0.3646  0.0860
  144SAPE  H17X15867   6.688   2.692   8.892  1.7318  0.4237  1.5836
  144SAPE  H17Y15868   6.713   2.640   8.725  1.8083 -0.2403 -1.0100
  144SAPE  C31815869   6.761   2.848   8.759  0.0784 -0.0927  0.3453
  144SAPE  H18X15870   6.833   2.905   8.822  1.1108 -2.6944  1.6560
  144SAPE  H18Y15871   6.661   2.886   8.789  0.6062  1.1822  0.5590
  144SAPE  H18Z15872   6.783   2.870   8.653  2.8129  0.9650  1.0605
  145SAPE     N15873   4.650   4.554  10.816 -0.1640 -0.1813 -0.1583
  145SAPE   HN115874   4.621   4.557  10.716 -0.2007 -1.7718 -0.2238
  145SAPE   HN215875   4.746   4.593  10.827  0.5609 -2.1890  1.2493
  145SAPE   HN315876   4.668   4.456  10.844  0.7591  0.0884  0.2412
  145SAPE   C1215877   4.546   4.606  10.907  0.0434 -0.0329 -0.0825
  145SAPE  H12A15878   4.504   4.702  10.872 -3.3673 -1.8092 -1.3226
  145SAPE  H12B15879   4.592   4.610  11.009 -1.4851 -1.0557  0.6866
  145SAPE   C1115880   4.432   4.512  10.901  0.3475  0.3067 -0.0781
  145SAPE  H11A15881   4.378   4.508  10.804  0.2089  0.2742  0.0017
  145SAPE  H11B15882   4.360   4.549  10.976  0.1121  2.7171 -1.4049
  145SAPE     P15883   4.354   4.267  10.970 -0.1326 -0.1365  0.1454
  145SAPE   O1315884   4.407   4.182  11.080 -0.0715 -0.1417 -0.0671
  145SAPE   O1415885   4.229   4.339  10.999  0.2298 -0.0166  0.2842
  145SAPE   O1215886   4.468   4.379  10.944  1.1248 -0.2338  0.1771
  145SAPE   O1115887   4.343   4.193  10.828 -0.1366  0.3437 -0.1642
  145SAPE    C115888   4.464   4.164  10.749 -0.2835 -0.1063  0.4520
  145SAPE    HA15889   4.559   4.204  10.791 -0.7763 -0.5324  2.0405
  145SAPE    HB15890   4.485   4.056  10.739 -0.4452 -0.0520 -0.6089
  145SAPE    C215891   4.458   4.222  10.608  0.3306 -0.6105  1.3117
  145SAPE    HS15892   4.429   4.329  10.615  1.7385 -0.0669 -0.3221
  145SAPE   O2115893   4.360   4.149  10.531 -0.6569 -0.6716  0.4272
  145SAPE   C2115894   4.234   4.185  10.526  0.2367 -0.2963 -0.5392
  145SAPE   O2215895   4.178   4.277  10.577 -0.2442 -0.0868 -1.3007
  145SAPE   C2215896   4.159   4.084  10.442  0.6946  0.0420  0.0939
  145SAPE   H2R15897   4.183   4.111  10.337 -1.3391  1.1039 -0.1567
  145SAPE   H2S15898   4.202   3.983  10.464 -1.7740 -0.8412  1.2766
  145SAPE    C315899   4.596   4.219  10.540  0.0498  0.0646  0.3609
  145SAPE    HX15900   4.622   4.115  10.511 -1.9470 -1.0975  2.3544
  145SAPE    HY15901   4.669   4.255  10.615 -0.7901  2.0291  0.3154
  145SAPE   O3115902   4.590   4.310  10.424 -0.2657 -0.7220 -0.5743
  145SAPE   C3115903   4.623   4.438  10.441 -0.6840 -0.2606  0.7773
  145SAPE   O3215904   4.676   4.490  10.537  0.3088  0.5379 -0.4201
  145SAPE   C3215905   4.592   4.505  10.304  0.6228  0.3693 -0.1841
  145SAPE   H2X15906   4.645   4.602  10.300  0.3148  0.6314  1.4508
  145SAPE   H2Y15907   4.485   4.535  10.306  0.5016 -0.0803  0.2248
  145SAPE   C2315908   4.008   4.069  10.479  0.0838  0.0994  0.7891
  145SAPE   H3R15909   3.960   4.169  10.472 -0.5674 -0.2993 -1.0193
  145SAPE   H3S15910   4.005   4.025  10.581  2.6282 -0.9440  0.5022
  145SAPE   C2415911   3.938   3.986  10.371  0.0875 -0.2536 -0.3916
  145SAPE   H4R15912   4.005   3.903  10.340  0.2585  0.1862 -1.2317
  145SAPE   H4S15913   3.951   4.042  10.276  1.6197 -1.2163 -0.7939
  145SAPE   C2515914   3.796   3.940  10.404  0.7556 -0.0071  0.8839
  145SAPE   H5R15915   3.793   3.874  10.492 -2.3920 -0.1301  0.8060
  145SAPE   C2615916   3.678   3.980  10.347 -0.3147  0.1902 -0.5195
  145SAPE   H6R15917   3.583   3.941  10.385  1.0465 -1.0535  1.9043
  145SAPE   C2715918   3.662   4.090  10.250  1.1174  0.3504 -0.3184
  145SAPE   H7R15919   3.575   4.067  10.185  2.5454  0.9943 -2.5617
  145SAPE   H7S15920   3.747   4.089  10.178  1.0352  1.0674 -0.4363
  145SAPE   C2815921   3.645   4.220  10.306 -0.0797 -0.5051 -0.6298
  145SAPE   H8R15922   3.568   4.234  10.383  1.3322 -0.8988  0.9151
  145SAPE   C2915923   3.703   4.335  10.258 -0.1484 -0.0256  0.4070
  145SAPE   H9R15924   3.675   4.432  10.300  2.8681  1.2180 -0.2367
  145SAPE  C21015925   3.794   4.350  10.144  0.6746  0.0871  0.1288
  145SAPE  H10R15926   3.770   4.442  10.087 -0.4650  1.1812  2.2589
  145SAPE  H10S15927   3.786   4.270  10.068  3.5020  0.6359 -0.8744
  145SAPE  C21115928   3.941   4.353  10.184 -0.5424 -0.0550 -0.2555
  145SAPE  H11R15929   3.953   4.336  10.292  0.4298  1.1968 -0.1441
  145SAPE  C21215930   4.052   4.350  10.104 -0.0435 -0.5619 -0.1060
  145SAPE  H12R15931   4.156   4.345  10.139 -0.9141 -0.5283  2.8015
  145SAPE  C21315932   4.044   4.351   9.954 -0.5774 -0.0268 -0.0097
  145SAPE  H13R15933   3.939   4.356   9.919 -0.8055  1.3439  0.7978
  145SAPE  H13S15934   4.075   4.248   9.927  1.6310  0.3479  0.9300
  145SAPE  C21415935   4.138   4.443   9.884  0.5084 -0.0440  0.2292
  145SAPE  H14R15936   4.224   4.487   9.936  0.8836  0.9376 -1.1732
  145SAPE  C21515937   4.119   4.482   9.759 -0.4500  0.5366  0.0578
  145SAPE  H15R15938   4.203   4.541   9.721  1.1583 -0.3143  2.0959
  145SAPE  C21615939   4.001   4.446   9.669 -0.1297 -0.3623  0.5034
  145SAPE  H16R15940   3.990   4.336   9.673 -2.5291 -0.1854 -0.0297
  145SAPE  H16S15941   4.033   4.470   9.565 -1.5269 -0.4795  0.0246
  145SAPE  C21715942   3.870   4.507   9.701 -0.1803 -0.0689 -0.4992
  145SAPE  H17R15943   3.863   4.514   9.811  1.9120 -0.0241 -0.3136
  145SAPE  H17S15944   3.781   4.451   9.665  0.1654 -0.4220 -0.8272
  145SAPE  C21815945   3.854   4.645   9.642  0.3117  0.2206 -0.2447
  145SAPE  H18R15946   3.938   4.706   9.683  1.4938 -2.0566  0.8689
  145SAPE  H18S15947   3.763   4.688   9.690  1.5162 -0.2266  2.6818
  145SAPE  C21915948   3.846   4.661   9.491 -0.7908 -0.4670  0.0778
  145SAPE  H19R15949   3.928   4.604   9.441  0.4508  0.6403  0.8155
  145SAPE  H19S15950   3.874   4.767   9.473  0.3342 -0.5281  1.3479
  145SAPE  C22015951   3.718   4.638   9.417 -0.1446  0.3696  0.3117
  145SAPE  H20R15952   3.689   4.530   9.421 -1.4903  0.6162 -1.4076
  145SAPE  H20S15953   3.724   4.659   9.308 -4.0350 -0.4351 -0.1982
  145SAPE  H20T15954   3.631   4.696   9.456 -1.7844 -0.6520 -1.6480
  145SAPE   C3315955   4.618   4.424  10.172  0.5463 -0.4635  0.2626
  145SAPE   H3X15956   4.558   4.331  10.169  1.3592 -1.0534  1.4222
  145SAPE   H3Y15957   4.727   4.402  10.160 -0.0782 -2.1302 -4.1429
  145SAPE   C3415958   4.582   4.500  10.041 -0.0545  0.2847  0.4209
  145SAPE   H4X15959   4.615   4.606  10.042 -0.3095  0.3882 -0.7672
  145SAPE   H4Y15960   4.471   4.506  10.042 -0.2048  0.4017 -3.3803
  145SAPE   C3515961   4.616   4.437   9.902  0.8050  0.0444 -0.5810
  145SAPE   H5X15962   4.580   4.332   9.907  0.5200  0.1992  1.2274
  145SAPE   H5Y15963   4.726   4.444   9.891  0.8947  0.9606  0.6905
  145SAPE   C3615964   4.550   4.510   9.787  0.1524 -0.1050 -0.5408
  145SAPE   H6X15965   4.585   4.615   9.794  0.9859 -0.4228  0.3985
  145SAPE   H6Y15966   4.442   4.514   9.813  0.2397  0.1565 -0.2036
  145SAPE   C3715967   4.589   4.444   9.650 -0.0460  0.4545 -0.4976
  145SAPE   H7X15968   4.545   4.342   9.648 -0.4576  0.5538  1.2999
  145SAPE   H7Y15969   4.699   4.432   9.661 -0.2885 -0.1287  2.0033
  145SAPE   C3815970   4.547   4.524   9.530 -0.4327  0.2526 -0.8398
  145SAPE   H8X15971   4.603   4.618   9.547  2.2034 -1.6762  2.6020
  145SAPE   H8Y15972   4.439   4.548   9.538 -0.3639  0.2271  0.2165
  145SAPE   C3915973   4.583   4.468   9.389 -0.7757 -0.1953 -0.2149
  145SAPE   H9X15974   4.511   4.389   9.358 -3.2159  1.9396 -0.3534
  145SAPE   H9Y15975   4.688   4.433   9.385  0.2707  2.5048  1.1465
  145SAPE  C31015976   4.576   4.576   9.285  0.0039  0.5531  0.3585
  145SAPE  H10X15977   4.638   4.664   9.314  0.0741  1.0685 -1.2093
  145SAPE  H10Y15978   4.472   4.610   9.269 -1.1740 -2.7209  0.3340
  145SAPE  C31115979   4.626   4.525   9.150 -0.2707  0.6367  0.6736
  145SAPE  H11X15980   4.562   4.449   9.101 -0.2293 -0.7790  2.6675
  145SAPE  H11Y15981   4.724   4.472   9.152 -0.6336 -0.0744  0.1428
  145SAPE  C31215982   4.626   4.641   9.046 -0.3336  0.2296  0.3625
  145SAPE  H12X15983   4.690   4.724   9.084 -2.5972  2.7788 -1.0775
  145SAPE  H12Y15984   4.524   4.683   9.037 -0.6967 -0.3117  1.6696
  145SAPE  C31315985   4.678   4.600   8.907  0.2578  0.0928  0.3429
  145SAPE  H13X15986   4.625   4.506   8.882 -0.6694 -0.0559  2.6682
  145SAPE  H13Y15987   4.786   4.578   8.901  0.6575  1.7595  0.9116
  145SAPE  C31415988   4.659   4.712   8.801 -0.0215 -0.1681 -0.0045
  145SAPE  H14X15989   4.714   4.797   8.846  0.5700  1.2439 -3.1337
  145SAPE  H14Y15990   4.549   4.729   8.798  0.4296  3.4318 -0.1565
  145SAPE  C31515991   4.721   4.669   8.667  0.4214 -0.0293  0.3083
  145SAPE  H15X15992   4.671   4.575   8.633  0.7918 -0.5664  1.1930
  145SAPE  H15Y15993   4.827   4.645   8.688  0.6217 -1.4914 -2.0295
  145SAPE  C31615994   4.700   4.776   8.564 -0.0215 -0.7886 -0.4251
  145SAPE  H16X15995   4.730   4.877   8.599  0.7564 -0.5883 -1.6047
  145SAPE  H16Y15996   4.591   4.773   8.545 -0.3840 -1.0856  1.5395
  145SAPE  C31715997   4.774   4.766   8.428 -0.6263 -0.2385 -0.5478
  145SAPE  H17X15998   4.876   4.732   8.458 -0.9637 -0.9997 -0.2640
  145SAPE  H17Y15999   4.780   4.863   8.373  0.3366  0.3498  0.5485
  145SAPE  C31816000   4.720   4.658   8.341 -0.5257 -0.0853 -0.0122
  145SAPE  H18X16001   4.755   4.559   8.378 -0.4746  0.4365  1.3868
  145SAPE  H18Y16002   4.770   4.671   8.243 -1.8883  3.5847 -0.3689
  145SAPE  H18Z16003   4.611   4.667   8.320 -1.4607 -0.7976  3.7494
  146SAPE     N16004   1.975   2.506  11.016 -0.2946 -0.5962  0.5386
  146SAPE   HN116005   1.923   2.468  11.098 -3.2916  0.3724 -0.7477
  146SAPE   HN216006   1.903   2.566  10.970 -0.9525 -0.2643  1.9452
  146SAPE   HN316007   1.996   2.422  10.959 -1.4011 -0.9806  0.6734
  146SAPE   C1216008   2.083   2.608  11.053 -0.5014  0.0265  0.0028
  146SAPE  H12A16009   2.119   2.654  10.959  2.3580 -1.1780  0.4202
  146SAPE  H12B16010   2.169   2.555  11.097  0.8734  0.1739 -2.3405
  146SAPE   C1116011   2.014   2.715  11.143  0.2229  0.5174  0.6980
  146SAPE  H11A16012   2.104   2.774  11.173  1.7272 -1.8131  1.0737
  146SAPE  H11B16013   1.985   2.667  11.239 -2.4990  3.5141  1.5352
  146SAPE     P16014   1.934   2.908  10.994  0.5719 -0.1964 -0.7592
  146SAPE   O1316015   1.820   2.994  10.983 -0.0039  0.0006 -0.1402
  146SAPE   O1416016   2.055   2.966  11.038  0.2879 -0.6279  0.6442
  146SAPE   O1216017   1.904   2.789  11.091 -0.0410  0.0789  0.1403
  146SAPE   O1116018   1.964   2.828  10.864 -0.1560  0.5248  0.4618
  146SAPE    C116019   1.872   2.848  10.755 -0.4940 -0.1000 -0.0198
  146SAPE    HA16020   1.870   2.752  10.699 -0.8210 -0.6797  0.9616
  146SAPE    HB16021   1.768   2.877  10.783 -0.2475  1.6425 -0.7604
  146SAPE    C216022   1.926   2.958  10.650  0.2518  0.5431  0.3242
  146SAPE    HS16023   1.899   3.060  10.684 -1.7969 -0.1550  0.9081
  146SAPE   O2116024   1.880   2.922  10.519  0.1163 -0.5948  0.0304
  146SAPE   C2116025   1.751   2.951  10.507  0.8778 -0.1654 -0.5400
  146SAPE   O2216026   1.682   3.013  10.583  0.3009 -0.3108 -0.0696
  146SAPE   C2216027   1.697   2.892  10.376  0.1834 -0.0839 -0.2672
  146SAPE   H2R16028   1.759   2.799  10.377  0.4603  0.0962 -0.3472
  146SAPE   H2S16029   1.588   2.872  10.382  0.5873 -2.6235 -0.0674
  146SAPE    C316030   2.081   2.960  10.642 -0.1226 -0.1382 -0.2619
  146SAPE    HX16031   2.115   2.857  10.618 -1.5063 -0.4861 -0.8402
  146SAPE    HY16032   2.117   2.981  10.745 -0.9895  0.3975 -0.0623
  146SAPE   O3116033   2.136   3.047  10.543 -0.2045  0.0591 -0.1261
  146SAPE   C3116034   2.187   3.159  10.586 -0.8164 -0.3659  0.0184
  146SAPE   O3216035   2.197   3.198  10.700 -0.4094  0.3409 -0.1512
  146SAPE   C3216036   2.227   3.244  10.462 -0.2220 -0.6232  0.5558
  146SAPE   H2X16037   2.129   3.274  10.420  0.5411 -0.3881 -1.1635
  146SAPE   H2Y16038   2.282   3.184  10.386 -0.7053 -1.8804  1.1797
  146SAPE   C2316039   1.726   2.977  10.251  0.2463  0.5134 -0.2060
  146SAPE   H3R16040   1.822   3.028  10.273  0.4243  0.3485 -0.5826
  146SAPE   H3S16041   1.650   3.049  10.214  0.3617  0.8017  0.1118
  146SAPE   C2416042   1.733   2.886  10.133 -0.8427  0.3946 -0.0242
  146SAPE   H4R16043   1.803   2.806  10.166 -1.7066  0.8330  3.2986
  146SAPE   H4S16044   1.776   2.945  10.049  0.7775 -0.2622  0.3009
  146SAPE   C2516045   1.604   2.822  10.084  1.1389 -0.2466  0.4404
  146SAPE   H5R16046   1.572   2.734  10.143 -1.2182  0.2049 -0.0713
  146SAPE   C2616047   1.528   2.850   9.977  0.4415 -0.1205 -0.0851
  146SAPE   H6R16048   1.453   2.773   9.953  1.4254 -0.7809 -1.1311
  146SAPE   C2716049   1.534   2.958   9.869  0.3670 -1.4519 -0.7427
  146SAPE   H7R16050   1.634   3.006   9.868 -0.1372 -0.2081  1.5212
  146SAPE   H7S16051   1.459   3.040   9.881  1.8125  0.0629 -1.5977
  146SAPE   C2816052   1.497   2.914   9.736  0.3541  1.5458 -0.1324
  146SAPE   H8R16053   1.390   2.902   9.714  0.8151 -0.1250 -1.7048
  146SAPE   C2916054   1.572   2.892   9.628 -0.1656 -0.5495  0.3798
  146SAPE   H9R16055   1.518   2.896   9.533  0.9084 -0.6208 -0.2484
  146SAPE  C21016056   1.724   2.909   9.625  0.6602  0.2844 -0.0859
  146SAPE  H10R16057   1.771   2.889   9.723  2.3620 -0.3426 -0.9776
  146SAPE  H10S16058   1.739   3.011   9.581  0.1735  0.0316 -0.8624
  146SAPE  C21116059   1.791   2.816   9.527 -0.0953 -0.3924 -0.6275
  146SAPE  H11R16060   1.796   2.715   9.571  0.4075 -1.6734 -3.4049
  146SAPE  C21216061   1.828   2.843   9.403  0.1996  0.5111  0.9827
  146SAPE  H12R16062   1.880   2.762   9.349  0.3357  3.1444 -3.2538
  146SAPE  C21316063   1.802   2.968   9.325  0.2198 -0.6991  0.6971
  146SAPE  H13R16064   1.878   3.046   9.349  0.5274 -0.8503  0.2135
  146SAPE  H13S16065   1.707   3.012   9.363 -0.2942  0.9416 -2.1976
  146SAPE  C21416066   1.792   2.944   9.178  0.3563 -0.4050  0.2969
  146SAPE  H14R16067   1.886   2.961   9.124  0.1235  0.8128  0.2512
  146SAPE  C21516068   1.688   2.891   9.107 -0.0895  0.7597  0.9428
  146SAPE  H15R16069   1.693   2.869   9.000  1.0280 -1.3394  1.3764
  146SAPE  C21616070   1.561   2.848   9.182 -1.1670 -0.2666  0.5438
  146SAPE  H16R16071   1.587   2.821   9.287  0.2630 -0.8384  0.0735
  146SAPE  H16S16072   1.532   2.745   9.153 -0.3222 -0.3923  0.1062
  146SAPE  C21716073   1.447   2.943   9.162 -0.2193  0.3026 -0.1212
  146SAPE  H17R16074   1.455   3.033   9.227 -4.2201  1.2840 -0.6892
  146SAPE  H17S16075   1.355   2.889   9.194  0.2598 -0.7508 -0.4779
  146SAPE  C21816076   1.426   2.975   9.015  0.0426  0.5813  0.2723
  146SAPE  H18R16077   1.432   2.883   8.952 -2.6649  0.9680 -0.6969
  146SAPE  H18S16078   1.500   3.051   8.981  0.6446 -0.6182 -1.2397
  146SAPE  C21916079   1.294   3.043   8.981 -0.0093 -0.1073  0.4125
  146SAPE  H19R16080   1.284   3.128   9.053 -0.4768  2.1786 -2.1707
  146SAPE  H19S16081   1.210   2.972   8.997 -0.0091  0.0621  1.2494
  146SAPE  C22016082   1.288   3.094   8.835 -0.5355  0.0862 -0.0649
  146SAPE  H20R16083   1.288   3.005   8.768 -1.9666 -1.4081  1.8128
  146SAPE  H20S16084   1.373   3.164   8.818 -0.3956  0.0907  0.6185
  146SAPE  H20T16085   1.195   3.150   8.813 -1.0886 -1.0800 -0.8094
  146SAPE   C3316086   2.299   3.366  10.506 -0.0707 -0.3552  0.0255
  146SAPE   H3X16087   2.386   3.330  10.565 -1.6522 -1.4892  1.7582
  146SAPE   H3Y16088   2.256   3.447  10.568 -0.4008  2.0321 -3.0596
  146SAPE   C3416089   2.355   3.450  10.385 -0.3841 -0.0900  0.0609
  146SAPE   H4X16090   2.443   3.391  10.351  1.4519  1.6899  1.4511
  146SAPE   H4Y16091   2.383   3.548  10.428 -0.2936 -0.7686  1.6134
  146SAPE   C3516092   2.250   3.489  10.284 -0.6052  0.5099 -0.5884
  146SAPE   H5X16093   2.179   3.553  10.340  0.6294  0.0841  1.5705
  146SAPE   H5Y16094   2.211   3.394  10.241 -0.3289  0.7619 -1.4226
  146SAPE   C3616095   2.301   3.565  10.164 -0.6430  0.4140  0.6666
  146SAPE   H6X16096   2.354   3.654  10.205 -0.8103  1.2829 -0.9286
  146SAPE   H6Y16097   2.221   3.591  10.092  1.4042  2.9531 -0.8578
  146SAPE   C3716098   2.409   3.495  10.064 -0.0045  0.2069  0.2244
  146SAPE   H7X16099   2.489   3.440  10.117 -2.4785 -3.6086  0.3550
  146SAPE   H7Y16100   2.462   3.573  10.003  0.9951 -2.4506 -2.5872
  146SAPE   C3816101   2.343   3.394   9.969  0.2533 -0.3050  0.5021
  146SAPE   H8X16102   2.257   3.450   9.925  0.1475 -0.3001  0.7167
  146SAPE   H8Y16103   2.308   3.301  10.017  0.1222  0.0621  1.1255
  146SAPE   C3916104   2.439   3.335   9.861  0.7261 -0.3906 -0.6571
  146SAPE   H9X16105   2.391   3.263   9.792  1.4746 -1.5541 -0.0056
  146SAPE   H9Y16106   2.531   3.294   9.909  1.5787  2.7960  0.7248
  146SAPE  C31016107   2.471   3.445   9.762  0.1134 -0.6253  0.1385
  146SAPE  H10X16108   2.554   3.504   9.807  1.4794 -1.5080 -1.1554
  146SAPE  H10Y16109   2.387   3.515   9.744 -0.2290 -1.6459 -2.7635
  146SAPE  C31116110   2.521   3.388   9.622  0.2034 -0.0057  0.6450
  146SAPE  H11X16111   2.457   3.306   9.585  0.1199  0.0040  0.7677
  146SAPE  H11Y16112   2.624   3.348   9.634  0.6133  1.0252  0.7190
  146SAPE  C31216113   2.527   3.507   9.519 -0.8588  0.7437 -0.5500
  146SAPE  H12X16114   2.596   3.585   9.559  2.8754 -2.4687 -0.1308
  146SAPE  H12Y16115   2.426   3.549   9.502 -0.5169  0.4333 -4.3908
  146SAPE  C31316116   2.577   3.450   9.384 -0.9497 -0.2851  0.4212
  146SAPE  H13X16117   2.519   3.357   9.368  0.7210 -1.1022 -1.1745
  146SAPE  H13Y16118   2.686   3.431   9.392 -1.1365 -1.0431  1.2966
  146SAPE  C31416119   2.559   3.539   9.260  0.6362  0.0780  0.0835
  146SAPE  H14X16120   2.593   3.639   9.294  0.8120 -0.6627  2.2424
  146SAPE  H14Y16121   2.450   3.541   9.236  0.4476  0.1489  0.9008
  146SAPE  C31516122   2.645   3.491   9.143  0.6129 -0.0717  0.0782
  146SAPE  H15X16123   2.621   3.386   9.116 -1.1453 -0.0258  1.2700
  146SAPE  H15Y16124   2.750   3.480   9.178  0.6360 -0.6579 -0.1623
  146SAPE  C31616125   2.631   3.568   9.016  0.1756  0.0784 -0.5706
  146SAPE  H16X16126   2.657   3.673   9.042  1.0294 -0.1095 -0.6051
  146SAPE  H16Y16127   2.522   3.562   8.997  0.7443 -0.5523 -4.5484
  146SAPE  C31716128   2.712   3.497   8.904  0.1335  0.0952 -0.7132
  146SAPE  H17X16129   2.680   3.392   8.921  2.1897 -0.6796 -1.3297
  146SAPE  H17Y16130   2.820   3.487   8.928 -0.1647 -0.7799  0.3673
  146SAPE  C31816131   2.695   3.530   8.753  0.1808  0.3461 -1.3575
  146SAPE  H18X16132   2.734   3.628   8.721 -1.3380  0.9255 -1.5253
  146SAPE  H18Y16133   2.585   3.536   8.738 -0.2081  2.3718  1.5663
  146SAPE  H18Z16134   2.743   3.457   8.685  0.6821  0.0172 -0.6715
  147SAPE     N16135   6.429   0.399   5.996 -0.4544  0.1234 -0.0448
  147SAPE   HN116136   6.330   0.368   5.999 -1.2887  2.1913 -2.5247
  147SAPE   HN216137   6.455   0.492   6.036  1.7989 -1.1219  1.6118
  147SAPE   HN316138   6.436   0.404   5.893  1.1780 -2.2104 -0.1253
  147SAPE   C1216139   6.522   0.291   6.042  0.1246  0.1967 -0.2836
  147SAPE  H12A16140   6.622   0.331   6.016 -0.3614  0.7716 -1.3181
  147SAPE  H12B16141   6.498   0.194   5.995 -0.5121  0.2909 -0.1698
  147SAPE   C1116142   6.530   0.286   6.196  0.5440 -0.1240  0.0706
  147SAPE  H11A16143   6.591   0.197   6.224 -1.8086 -1.6453  0.7132
  147SAPE  H11B16144   6.433   0.266   6.246 -0.3629  1.1506 -1.1117
  147SAPE     P16145   6.638   0.415   6.391 -0.3937  0.3506 -0.5335
  147SAPE   O1316146   6.772   0.346   6.396 -0.1934  0.3768 -0.4959
  147SAPE   O1416147   6.633   0.555   6.440 -0.4688 -0.3879 -0.2045
  147SAPE   O1216148   6.586   0.402   6.247  0.0892  0.4054 -0.3609
  147SAPE   O1116149   6.536   0.334   6.476  0.2290 -0.1272 -0.4857
  147SAPE    C116150   6.412   0.388   6.526 -0.2211  0.1110  0.8370
  147SAPE    HA16151   6.412   0.499   6.522  3.3441  0.1961 -0.4651
  147SAPE    HB16152   6.325   0.346   6.472  0.1456  1.1112 -0.5889
  147SAPE    C216153   6.379   0.358   6.678  0.0644 -0.6696 -0.2733
  147SAPE    HS16154   6.309   0.439   6.706  1.1625 -0.6931  3.0115
  147SAPE   O2116155   6.497   0.369   6.758  0.0734  0.2505  0.2316
  147SAPE   C2116156   6.558   0.494   6.778  0.2099  0.0305 -0.0470
  147SAPE   O2216157   6.514   0.600   6.733  0.0318 -0.5953  0.0667
  147SAPE   C2216158   6.691   0.475   6.855 -0.1748  0.8186  0.2117
  147SAPE   H2R16159   6.688   0.391   6.928  3.3783 -0.5469 -1.0026
  147SAPE   H2S16160   6.761   0.441   6.775 -3.3517  0.3575 -2.5811
  147SAPE    C316161   6.307   0.226   6.706  0.7354  0.4100  0.3597
  147SAPE    HX16162   6.385   0.147   6.712  0.3837 -0.3295 -2.9400
  147SAPE    HY16163   6.240   0.207   6.620  0.1606  1.1069  0.6508
  147SAPE   O3116164   6.229   0.238   6.828 -0.1319 -0.2733 -0.2246
  147SAPE   C3116165   6.107   0.299   6.820 -0.2074 -0.5747 -0.8938
  147SAPE   O3216166   6.068   0.362   6.725 -0.3517  0.5849 -0.6034
  147SAPE   C3216167   6.031   0.292   6.952 -0.4440  0.3059  0.2004
  147SAPE   H2X16168   5.942   0.358   6.942  0.8163  2.3866  1.8047
  147SAPE   H2Y16169   6.096   0.326   7.035 -0.7628 -2.5984  1.7422
  147SAPE   C2316170   6.729   0.598   6.923 -0.7459 -0.3612  0.4316
  147SAPE   H3R16171   6.641   0.624   6.985 -1.5965  0.2192 -0.9609
  147SAPE   H3S16172   6.735   0.687   6.856 -1.1235  2.2960  3.6595
  147SAPE   C2416173   6.857   0.574   7.009  0.3027 -1.0480  0.0762
  147SAPE   H4R16174   6.937   0.539   6.941  0.8266 -0.3074  0.3060
  147SAPE   H4S16175   6.830   0.493   7.080 -2.2092  0.5210  1.0523
  147SAPE   C2516176   6.891   0.697   7.087  0.2397  0.0755  0.0436
  147SAPE   H5R16177   6.899   0.786   7.022 -0.8033 -0.4094 -0.7851
  147SAPE   C2616178   6.917   0.711   7.221 -0.5905 -0.3255 -0.2127
  147SAPE   H6R16179   6.944   0.808   7.266 -1.8816  0.6669 -1.4664
  147SAPE   C2716180   6.914   0.602   7.327 -0.1936 -0.3215  0.0189
  147SAPE   H7R16181   6.995   0.624   7.400 -0.2760  0.5610 -0.1484
  147SAPE   H7S16182   6.929   0.505   7.276  2.5659  0.0572 -0.0117
  147SAPE   C2816183   6.775   0.583   7.390  0.2425 -0.2455  0.5869
  147SAPE   H8R16184   6.693   0.549   7.325  0.4376 -0.6040  0.5266
  147SAPE   C2916185   6.734   0.600   7.517 -0.3071 -1.0133 -0.5445
  147SAPE   H9R16186   6.628   0.582   7.541 -0.9822  2.5065 -0.2202
  147SAPE  C21016187   6.820   0.641   7.633 -0.0082  0.4611 -0.1498
  147SAPE  H10R16188   6.911   0.580   7.654  2.5006  3.8123 -0.2416
  147SAPE  H10S16189   6.767   0.624   7.729 -0.6329  2.7449 -0.0290
  147SAPE  C21116190   6.857   0.787   7.635  0.3509 -0.8099 -0.4048
  147SAPE  H11R16191   6.904   0.815   7.540  1.6529 -1.7546 -0.0662
  147SAPE  C21216192   6.820   0.878   7.730  0.1815  0.4465  0.3111
  147SAPE  H12R16193   6.850   0.983   7.719 -0.2752  0.5310 -0.1796
  147SAPE  C21316194   6.732   0.858   7.849  0.1712 -0.3509  0.2116
  147SAPE  H13R16195   6.798   0.874   7.936 -1.2419  0.2791  1.1982
  147SAPE  H13S16196   6.699   0.756   7.876 -2.9377  0.7087  0.8153
  147SAPE  C21416197   6.612   0.954   7.871 -0.6890  0.3661  0.4652
  147SAPE  H14R16198   6.617   1.046   7.811  1.4738  0.7430  1.1201
  147SAPE  C21516199   6.507   0.938   7.954  0.4528  0.5118 -0.2570
  147SAPE  H15R16200   6.429   1.015   7.952  0.7807  0.8333 -0.8763
  147SAPE  C21616201   6.496   0.827   8.050  1.0803 -0.6016  0.6186
  147SAPE  H16R16202   6.562   0.844   8.138 -0.0662 -1.8419  1.7586
  147SAPE  H16S16203   6.527   0.734   7.998 -1.1175 -0.7122 -0.6309
  147SAPE  C21716204   6.351   0.796   8.094  0.1553 -0.5931  0.4183
  147SAPE  H17R16205   6.346   0.686   8.107  0.2910 -0.4788  1.4708
  147SAPE  H17S16206   6.276   0.832   8.020  0.1896  1.4521  1.3291
  147SAPE  C21816207   6.318   0.860   8.230  0.3694 -0.2611 -0.0872
  147SAPE  H18R16208   6.348   0.967   8.232  0.0847 -0.1860  0.3268
  147SAPE  H18S16209   6.366   0.806   8.315 -0.1706  0.1719  0.5007
  147SAPE  C21916210   6.168   0.850   8.268  0.1097 -0.2332  0.6419
  147SAPE  H19R16211   6.113   0.890   8.181 -0.0539 -0.7611  0.4957
  147SAPE  H19S16212   6.153   0.913   8.358 -0.5039 -1.0749  1.1411
  147SAPE  C22016213   6.104   0.712   8.293 -0.7613  0.4425  0.2420
  147SAPE  H20R16214   5.999   0.698   8.260 -0.9905 -1.7553  1.6475
  147SAPE  H20S16215   6.104   0.699   8.403 -1.0432  1.5761  0.3823
  147SAPE  H20T16216   6.168   0.631   8.252  1.1557  0.5698  2.7220
  147SAPE   C3316217   5.981   0.147   6.976  0.4135 -0.3588 -0.0689
  147SAPE   H3X16218   6.072   0.085   6.986  1.7640  1.5484  0.1112
  147SAPE   H3Y16219   5.919   0.126   6.887 -0.7058  1.3098  0.2763
  147SAPE   C3416220   5.893   0.147   7.101 -0.2334 -0.2582 -0.1063
  147SAPE   H4X16221   5.834   0.241   7.107  0.2730  0.0267  0.7632
  147SAPE   H4Y16222   5.968   0.149   7.183  1.6355  2.7443 -1.7163
  147SAPE   C3516223   5.807   0.028   7.117  0.1590  0.5817 -0.0638
  147SAPE   H5X16224   5.854  -0.068   7.089 -0.7848  0.7543 -2.4079
  147SAPE   H5Y16225   5.730   0.040   7.038  0.4722 -1.2580 -0.7015
  147SAPE   C3616226   5.725   0.026   7.250  0.2231 -0.5268  0.1889
  147SAPE   H6X16227   5.628  -0.028   7.238  0.3546 -1.0922  1.4142
  147SAPE   H6Y16228   5.697   0.130   7.275 -1.2203 -0.7777 -0.2708
  147SAPE   C3716229   5.803  -0.034   7.360 -0.3170  0.1786 -0.2126
  147SAPE   H7X16230   5.879   0.038   7.398 -0.9213 -0.4053  2.2407
  147SAPE   H7Y16231   5.860  -0.127   7.340  2.6654  1.8987 -0.3657
  147SAPE   C3816232   5.716  -0.070   7.479  0.5297 -0.0992 -0.1652
  147SAPE   H8X16233   5.771  -0.140   7.545 -1.7105 -1.2051  0.6400
  147SAPE   H8Y16234   5.630  -0.128   7.440  1.4693 -0.6026 -1.5625
  147SAPE   C3916235   5.683   0.050   7.573 -0.1700 -0.3943  0.3511
  147SAPE   H9X16236   5.650   0.140   7.517  4.4948  1.1607 -0.3399
  147SAPE   H9Y16237   5.782   0.085   7.611 -0.2744 -0.4972  0.7134
  147SAPE  C31016238   5.595   0.006   7.690 -0.1930 -0.2118 -0.3975
  147SAPE  H10X16239   5.648  -0.079   7.736 -3.0670 -1.4000  0.9829
  147SAPE  H10Y16240   5.502  -0.031   7.642 -0.0668  1.4401 -2.0853
  147SAPE  C31116241   5.579   0.104   7.807  0.2935 -0.4963  0.5664
  147SAPE  H11X16242   5.557   0.208   7.773 -1.0351 -0.6224  0.9812
  147SAPE  H11Y16243   5.681   0.116   7.848  0.1959 -1.1017  0.9897
  147SAPE  C31216244   5.471   0.070   7.908 -0.2349  0.0360  0.3614
  147SAPE  H12X16245   5.491   0.120   8.005  0.0207 -1.7864  1.2909
  147SAPE  H12Y16246   5.465  -0.041   7.919  0.8378  0.1878  3.3788
  147SAPE  C31316247   5.333   0.127   7.854 -0.4106 -0.0598 -1.1207
  147SAPE  H13X16248   5.310   0.056   7.772  1.7352  0.7723 -2.5291
  147SAPE  H13Y16249   5.364   0.227   7.817  1.8228  0.0973  0.8863
  147SAPE  C31416250   5.232   0.137   7.964  0.0008 -0.1171  0.6668
  147SAPE  H14X16251   5.262   0.221   8.030  1.1084  0.2739 -0.3235
  147SAPE  H14Y16252   5.230   0.039   8.017 -0.2008 -1.0640 -1.0325
  147SAPE  C31516253   5.087   0.142   7.923  0.1021  0.4656 -0.0939
  147SAPE  H15X16254   5.076   0.046   7.868  0.1857 -0.4657  1.4591
  147SAPE  H15Y16255   5.070   0.226   7.853 -0.6947 -0.8199 -1.5019
  147SAPE  C31616256   4.985   0.162   8.034 -0.5011 -0.0659 -0.3034
  147SAPE  H16X16257   5.019   0.254   8.086 -0.7121 -1.0490  1.6713
  147SAPE  H16Y16258   4.985   0.081   8.111  1.7444  0.9341  0.8373
  147SAPE  C31716259   4.845   0.180   7.980 -0.5183  0.0383  0.1065
  147SAPE  H17X16260   4.814   0.100   7.909  0.5109  0.2464 -0.6102
  147SAPE  H17Y16261   4.853   0.272   7.919  1.3678 -1.0260 -1.3698
  147SAPE  C31816262   4.747   0.200   8.091  0.3838 -0.1431  0.2950
  147SAPE  H18X16263   4.766   0.296   8.143  3.5071  0.6338 -1.9693
  147SAPE  H18Y16264   4.740   0.114   8.160 -1.8083 -0.7211 -0.5642
  147SAPE  H18Z16265   4.648   0.209   8.041 -1.5095  2.4369  4.0015
  148SAPE     N16266   5.474   5.114   6.435  0.9469  0.3438  0.7641
  148SAPE   HN116267   5.381   5.066   6.433  0.7157  0.6913 -2.7534
  148SAPE   HN216268   5.448   5.213   6.451 -0.0670  0.0105  1.3314
  148SAPE   HN316269   5.518   5.112   6.341 -0.6289  1.1368 -0.0265
  148SAPE   C1216270   5.545   5.067   6.560  0.1591 -0.1490  0.1208
  148SAPE  H12A16271   5.493   5.110   6.647 -0.6956 -0.4946 -0.2072
  148SAPE  H12B16272   5.647   5.112   6.559  0.6836 -1.0787  2.8283
  148SAPE   C1116273   5.538   4.912   6.560 -0.3884  0.2025 -0.4568
  148SAPE  H11A16274   5.593   4.872   6.649 -0.9728  1.3818  0.4564
  148SAPE  H11B16275   5.590   4.865   6.474 -0.1817 -2.1384  0.8523
  148SAPE     P16276   5.306   4.803   6.650 -0.2194  0.0129  0.0880
  148SAPE   O1316277   5.189   4.901   6.656 -0.5121  0.4616  0.3709
  148SAPE   O1416278   5.286   4.667   6.606  0.6971 -0.2991  0.4119
  148SAPE   O1216279   5.407   4.873   6.550  0.0786 -0.0703  0.3233
  148SAPE   O1116280   5.392   4.810   6.778 -0.6776  0.0580  0.2877
  148SAPE    C116281   5.333   4.830   6.904 -0.3227 -0.6078 -0.2287
  148SAPE    HA16282   5.399   4.891   6.969 -0.0258  2.9499 -3.5031
  148SAPE    HB16283   5.246   4.898   6.911  0.5250  0.5356 -0.6501
  148SAPE    C216284   5.294   4.692   6.974 -0.2775  0.1078  0.0196
  148SAPE    HS16285   5.279   4.715   7.082 -1.8833  1.0513 -0.3673
  148SAPE   O2116286   5.397   4.599   6.951  0.2840  0.2664  0.4339
  148SAPE   C2116287   5.511   4.621   6.999 -0.5910  0.2557 -0.9690
  148SAPE   O2216288   5.545   4.712   7.077  0.6592  0.0170  0.2535
  148SAPE   C2216289   5.615   4.529   6.938 -0.6386  0.5917 -0.2631
  148SAPE   H2R16290   5.579   4.457   6.862  2.6503  0.1413 -1.5399
  148SAPE   H2S16291   5.681   4.602   6.886 -0.2417 -0.6454 -1.5668
  148SAPE    C316292   5.160   4.637   6.926  0.6181 -0.2195  0.3604
  148SAPE    HX16293   5.159   4.593   6.824  0.9656  0.6459 -0.0236
  148SAPE    HY16294   5.084   4.717   6.911  1.4463  0.5703  0.3208
  148SAPE   O3116295   5.094   4.548   7.016 -0.0975  0.1091  0.4130
  148SAPE   C3116296   5.114   4.419   7.001 -0.6740  0.4009 -0.0406
  148SAPE   O3216297   5.185   4.361   6.918  0.0485 -0.2439 -0.4349
  148SAPE   C3216298   5.043   4.340   7.111 -0.0853  0.5263  0.0697
  148SAPE   H2X16299   5.057   4.233   7.083 -0.4918  1.4395 -4.3690
  148SAPE   H2Y16300   4.936   4.365   7.091 -0.5487 -0.1870  1.4948
  148SAPE   C2316301   5.701   4.458   7.049 -0.2291 -0.0823  0.5816
  148SAPE   H3R16302   5.745   4.544   7.106  1.7566  1.4907 -2.9945
  148SAPE   H3S16303   5.784   4.401   7.004  0.2763  0.8228  0.3309
  148SAPE   C2416304   5.612   4.370   7.139  0.3616  0.6446  0.0273
  148SAPE   H4R16305   5.533   4.318   7.080 -1.0152 -1.5160  3.4128
  148SAPE   H4S16306   5.549   4.432   7.206 -1.1590 -0.5136 -0.2592
  148SAPE   C2516307   5.690   4.268   7.216 -0.6585 -0.9303 -0.6168
  148SAPE   H5R16308   5.729   4.178   7.166 -0.0389 -1.8832  1.4569
  148SAPE   C2616309   5.722   4.288   7.348 -0.4112 -0.2222  0.3203
  148SAPE   H6R16310   5.775   4.210   7.406  1.5521  1.4127  0.8393
  148SAPE   C2716311   5.674   4.415   7.417  0.0694 -0.3203  0.4479
  148SAPE   H7R16312   5.565   4.416   7.439  0.1168 -1.8741  0.9059
  148SAPE   H7S16313   5.677   4.507   7.355 -1.7755 -0.3675  0.2465
  148SAPE   C2816314   5.753   4.443   7.540 -1.0618  0.3696 -0.1321
  148SAPE   H8R16315   5.836   4.373   7.561 -1.2681 -0.7481 -2.6985
  148SAPE   C2916316   5.735   4.547   7.623  0.0446  1.1909  0.3991
  148SAPE   H9R16317   5.800   4.552   7.712 -0.9700 -0.1973  1.2707
  148SAPE  C21016318   5.629   4.652   7.619  0.1813  0.5098  0.0404
  148SAPE  H10R16319   5.538   4.603   7.580 -0.9495 -0.8151  3.8711
  148SAPE  H10S16320   5.649   4.739   7.553 -0.8913  0.9406  0.2557
  148SAPE  C21116321   5.587   4.711   7.756 -0.4969 -0.0543 -0.6786
  148SAPE  H11R16322   5.566   4.645   7.841 -2.2940  1.6123  0.2632
  148SAPE  C21216323   5.564   4.839   7.790  0.0914 -0.5949  0.8114
  148SAPE  H12R16324   5.548   4.862   7.897  1.1669  0.9970  0.6757
  148SAPE  C21316325   5.576   4.960   7.699 -0.0658 -0.3652  0.6830
  148SAPE  H13R16326   5.680   4.961   7.660  0.8711  0.2739  3.0193
  148SAPE  H13S16327   5.564   5.054   7.757 -1.3819 -0.1829  0.1481
  148SAPE  C21416328   5.480   4.986   7.587  0.2350  0.1675  0.1535
  148SAPE  H14R16329   5.389   5.039   7.618 -0.6490 -2.3354  2.2250
  148SAPE  C21516330   5.505   4.970   7.457  0.1790  0.2054  0.6583
  148SAPE  H15R16331   5.428   4.998   7.384 -1.5809 -1.3910  1.8352
  148SAPE  C21616332   5.628   4.930   7.380 -0.6316  0.2744  0.3251
  148SAPE  H16R16333   5.594   4.849   7.312 -2.3967  0.2949  1.1349
  148SAPE  H16S16334   5.710   4.893   7.445  1.0918  0.0575 -1.8184
  148SAPE  C21716335   5.668   5.040   7.280 -0.4973  0.2866 -0.1734
  148SAPE  H17R16336   5.775   5.024   7.256 -0.5021 -1.0368  0.5901
  148SAPE  H17S16337   5.652   5.139   7.327  2.1802 -0.0220  1.6101
  148SAPE  C21816338   5.598   5.021   7.146 -0.0431  0.0726  0.3417
  148SAPE  H18R16339   5.487   5.016   7.152 -0.1203  0.5309 -0.5306
  148SAPE  H18S16340   5.633   4.927   7.098  0.2176  0.6806 -0.7116
  148SAPE  C21916341   5.639   5.130   7.048 -0.0392 -0.8762 -0.5167
  148SAPE  H19R16342   5.750   5.133   7.042  0.1033 -0.1669  1.6971
  148SAPE  H19S16343   5.602   5.228   7.084  1.5517  0.2274 -1.7019
  148SAPE  C22016344   5.594   5.114   6.905 -0.1595  0.0514 -0.6500
  148SAPE  H20R16345   5.484   5.104   6.891 -0.4207  0.1813  1.0732
  148SAPE  H20S16346   5.645   5.021   6.871 -0.3548 -0.9437  1.5940
  148SAPE  H20T16347   5.628   5.200   6.843 -1.4944  1.9961  1.1798
  148SAPE   C3316348   5.105   4.370   7.245 -0.8894 -0.1030 -0.4485
  148SAPE   H3X16349   5.046   4.333   7.332  0.7176 -1.1411  0.2518
  148SAPE   H3Y16350   5.128   4.478   7.258 -1.0995 -0.2660  1.7592
  148SAPE   C3416351   5.243   4.297   7.271 -0.7963  0.0384  0.2213
  148SAPE   H4X16352   5.325   4.363   7.235 -0.9946 -0.5877 -1.5022
  148SAPE   H4Y16353   5.251   4.213   7.198  1.1762 -1.0569  1.5997
  148SAPE   C3516354   5.265   4.224   7.404  0.2372 -0.5860  0.2524
  148SAPE   H5X16355   5.367   4.180   7.403  0.5046  0.0259 -1.0078
  148SAPE   H5Y16356   5.189   4.143   7.413  0.9440 -1.1261  1.6917
  148SAPE   C3616357   5.263   4.320   7.526  0.2665  0.0067  1.0234
  148SAPE   H6X16358   5.166   4.373   7.533 -1.5298 -3.2532  3.7840
  148SAPE   H6Y16359   5.338   4.400   7.507 -2.1151  1.8053 -1.3816
  148SAPE   C3716360   5.271   4.239   7.655 -1.1363 -0.0210 -0.1698
  148SAPE   H7X16361   5.363   4.176   7.660  0.1940  1.7490 -0.9604
  148SAPE   H7Y16362   5.181   4.177   7.638 -1.3484  0.0858  0.5350
  148SAPE   C3816363   5.250   4.318   7.781 -0.8266 -0.0946  0.2934
  148SAPE   H8X16364   5.234   4.265   7.877  0.1751 -0.0549  0.5024
  148SAPE   H8Y16365   5.167   4.390   7.764  1.1078  2.1459 -0.2593
  148SAPE   C3916366   5.374   4.401   7.814 -0.1019  0.0544  1.0357
  148SAPE   H9X16367   5.400   4.461   7.724  3.4900  0.1671  1.9904
  148SAPE   H9Y16368   5.456   4.329   7.834 -0.0217 -0.2785 -0.3925
  148SAPE  C31016369   5.353   4.496   7.930  0.0207 -0.3890 -0.0106
  148SAPE  H10X16370   5.439   4.565   7.936 -1.9805  2.3322 -0.5273
  148SAPE  H10Y16371   5.353   4.439   8.025  3.9419  1.4290  1.2885
  148SAPE  C31116372   5.239   4.593   7.911 -0.3969  0.0170  0.2833
  148SAPE  H11X16373   5.152   4.525   7.921  1.6202 -2.7135  0.1753
  148SAPE  H11Y16374   5.237   4.640   7.810 -1.2120 -0.5780  0.0162
  148SAPE  C31216375   5.235   4.700   8.019 -0.1813 -0.3376 -0.3434
  148SAPE  H12X16376   5.336   4.746   8.023 -0.2945 -0.0542 -0.6973
  148SAPE  H12Y16377   5.227   4.644   8.114  0.0439 -0.3190 -0.3129
  148SAPE  C31316378   5.137   4.811   7.992  0.7032  0.5071 -0.7111
  148SAPE  H13X16379   5.028   4.789   7.986  0.6841  0.8223 -1.6604
  148SAPE  H13Y16380   5.156   4.881   7.909 -1.8071  1.4094 -0.6087
  148SAPE  C31416381   5.141   4.900   8.115  0.5259 -0.1295 -0.2306
  148SAPE  H14X16382   5.247   4.920   8.142  0.6683 -0.8254 -0.2395
  148SAPE  H14Y16383   5.098   4.853   8.207  0.5897 -0.0264 -0.1482
  148SAPE  C31516384   5.059   5.030   8.094 -0.5103  0.1916  0.2045
  148SAPE  H15X16385   4.964   5.004   8.043  0.4183 -0.7086 -1.1112
  148SAPE  H15Y16386   5.121   5.087   8.022 -0.4130  0.2408  0.3265
  148SAPE  C31616387   5.046   5.116   8.224  0.7185  0.3963  0.5661
  148SAPE  H16X16388   5.028   5.224   8.203  0.1540 -0.1611 -2.4018
  148SAPE  H16Y16389   5.141   5.102   8.279  2.2532  0.1081 -1.9817
  148SAPE  C31716390   4.932   5.065   8.315  0.4826 -0.1306  1.1729
  148SAPE  H17X16391   4.948   4.957   8.337  1.5051 -0.5749 -1.3932
  148SAPE  H17Y16392   4.846   5.076   8.247  0.1451 -0.9597  1.4505
  148SAPE  C31816393   4.920   5.145   8.434  0.2810 -0.7470 -0.0627
  148SAPE  H18X16394   4.984   5.111   8.518 -0.1007  1.9290  1.4548
  148SAPE  H18Y16395   4.818   5.154   8.476  0.2419 -2.1926  0.2032
  148SAPE  H18Z16396   4.959   5.247   8.413  0.7952 -0.5212  1.8033
  149SAPE     N16397   4.619   6.746   6.223 -0.3076 -0.0317  0.2033
  149SAPE   HN116398   4.528   6.719   6.266  0.5081 -1.9005  0.8777
  149SAPE   HN216399   4.618   6.663   6.160  0.2695  0.0088  0.1307
  149SAPE   HN316400   4.695   6.740   6.294  1.0173 -1.2446 -1.2439
  149SAPE   C1216401   4.618   6.879   6.152  0.9547 -0.8477  0.0192
  149SAPE  H12A16402   4.547   6.870   6.067 -0.4981  0.7289  1.0186
  149SAPE  H12B16403   4.717   6.907   6.111  0.1631  1.4847 -0.4325
  149SAPE   C1116404   4.580   6.997   6.245 -0.6453 -0.6998 -0.2067
  149SAPE  H11A16405   4.489   6.953   6.292 -1.3535 -1.2389 -1.9971
  149SAPE  H11B16406   4.548   7.088   6.190 -0.2637 -0.2811  0.2532
  149SAPE     P16407   4.691   7.153   6.421  0.5302  0.3207  0.2012
  149SAPE   O1316408   4.826   7.196   6.447 -1.1752 -0.0069  0.0111
  149SAPE   O1416409   4.611   7.253   6.341 -0.0585  0.8886  0.2583
  149SAPE   O1216410   4.690   7.025   6.341 -0.4913  0.4666  0.1162
  149SAPE   O1116411   4.613   7.123   6.557  0.3191 -0.0033  0.3734
  149SAPE    C116412   4.544   7.001   6.593 -0.5366  0.5245 -0.2810
  149SAPE    HA16413   4.577   6.911   6.535 -0.3500 -0.3449  1.1346
  149SAPE    HB16414   4.563   6.970   6.698  0.9978 -1.3783 -1.0364
  149SAPE    C216415   4.392   7.006   6.582  0.1581 -0.7152  0.3464
  149SAPE    HS16416   4.365   7.032   6.478  0.0294  0.9868  0.7617
  149SAPE   O2116417   4.353   7.110   6.671  0.1967 -0.9849 -0.5381
  149SAPE   C2116418   4.230   7.146   6.640  0.0421 -0.4795  0.4938
  149SAPE   O2216419   4.161   7.100   6.549  0.3325 -0.0797  0.3300
  149SAPE   C2216420   4.198   7.281   6.720  0.1838  0.5068 -0.2542
  149SAPE   H2R16421   4.292   7.333   6.748  0.0794  1.0871 -0.9636
  149SAPE   H2S16422   4.140   7.342   6.648 -3.2897 -0.9250  1.0721
  149SAPE    C316423   4.330   6.864   6.629  0.1629  0.5560  0.6668
  149SAPE    HX16424   4.363   6.791   6.552  0.8739  3.0111 -1.5230
  149SAPE    HY16425   4.219   6.863   6.634  0.2087  1.3886  2.1758
  149SAPE   O3116426   4.386   6.816   6.751 -0.0475 -0.6846  0.1623
  149SAPE   C3116427   4.329   6.858   6.863  0.4344  0.6148  0.1766
  149SAPE   O3216428   4.227   6.925   6.875  0.0235 -0.0614  0.3628
  149SAPE   C3216429   4.419   6.840   6.984  0.0970 -0.5714  0.5379
  149SAPE   H2X16430   4.448   6.938   7.027 -1.1625  1.2414 -2.3774
  149SAPE   H2Y16431   4.513   6.797   6.942 -0.6432 -1.6054 -0.1228
  149SAPE   C2316432   4.099   7.257   6.840 -0.6171 -0.2162 -0.1005
  149SAPE   H3R16433   4.151   7.195   6.917 -0.6276  1.9831  1.7836
  149SAPE   H3S16434   4.016   7.202   6.791  0.3172  0.7047 -2.9177
  149SAPE   C2416435   4.047   7.387   6.917 -0.3562  0.4175  0.1545
  149SAPE   H4R16436   3.961   7.340   6.970  0.2778 -1.9622 -0.8137
  149SAPE   H4S16437   4.010   7.461   6.843 -1.7931  0.1144  0.5459
  149SAPE   C2516438   4.147   7.443   7.013  0.4608  0.0071  0.5181
  149SAPE   H5R16439   4.207   7.526   6.974 -0.3421 -0.4643 -1.8574
  149SAPE   C2616440   4.183   7.389   7.137  0.3447  0.1391  0.3501
  149SAPE   H6R16441   4.275   7.427   7.184  1.3802 -1.7092 -0.0709
  149SAPE   C2716442   4.118   7.271   7.209  0.5099 -0.0053  0.9015
  149SAPE   H7R16443   4.020   7.248   7.163 -0.0208  1.5011  1.2154
  149SAPE   H7S16444   4.078   7.319   7.301 -1.1140  1.4755 -0.5016
  149SAPE   C2816445   4.182   7.142   7.232 -0.7131  0.2171 -0.2064
  149SAPE   H8R16446   4.211   7.096   7.136 -0.0716 -1.6234  0.8079
  149SAPE   C2916447   4.211   7.077   7.349  0.1708 -0.4252  0.2712
  149SAPE   H9R16448   4.270   6.985   7.346  1.8006  0.4920  2.0475
  149SAPE  C21016449   4.184   7.129   7.486  0.0709  0.0727  0.1368
  149SAPE  H10R16450   4.183   7.044   7.557 -2.2731  0.3481  0.5406
  149SAPE  H10S16451   4.079   7.165   7.498  0.5540  1.3686  0.6906
  149SAPE  C21116452   4.280   7.231   7.537 -0.3116 -0.2973 -0.6297
  149SAPE  H11R16453   4.332   7.300   7.468  2.0332 -1.4573 -0.1303
  149SAPE  C21216454   4.304   7.259   7.668  0.1298  0.1379 -0.2636
  149SAPE  H12R16455   4.364   7.344   7.704  0.0755  0.8402 -1.7503
  149SAPE  C21316456   4.241   7.183   7.780  0.0569  0.7112  0.1034
  149SAPE  H13R16457   4.132   7.177   7.761 -0.0992  1.2550  0.7975
  149SAPE  H13S16458   4.252   7.243   7.873  0.5835 -0.2962  0.7062
  149SAPE  C21416459   4.299   7.045   7.800 -0.3260  0.3440  0.1175
  149SAPE  H14R16460   4.352   7.013   7.710 -1.3812  1.5582 -0.9692
  149SAPE  C21516461   4.292   6.966   7.912  0.1589  0.0539 -0.2110
  149SAPE  H15R16462   4.323   6.861   7.910 -0.5348 -0.2169  1.6486
  149SAPE  C21616463   4.224   7.010   8.041  0.5029 -0.1922  0.5411
  149SAPE  H16R16464   4.171   6.921   8.081 -1.0794  1.7361  3.0122
  149SAPE  H16S16465   4.149   7.088   8.016  1.6900  0.7389 -0.2579
  149SAPE  C21716466   4.328   7.057   8.136  0.2388  0.6104 -0.2718
  149SAPE  H17R16467   4.370   7.151   8.092 -1.1380  1.8086  0.8769
  149SAPE  H17S16468   4.406   6.980   8.152 -1.1445 -1.1850 -1.7119
  149SAPE  C21816469   4.261   7.104   8.268 -0.7767  0.0068  0.1690
  149SAPE  H18R16470   4.208   7.015   8.308  1.8286 -1.7993 -0.1798
  149SAPE  H18S16471   4.193   7.189   8.246  0.1595  0.7460  0.0822
  149SAPE  C21916472   4.374   7.154   8.370  0.3916 -0.0270  0.0631
  149SAPE  H19R16473   4.423   7.235   8.312  1.6589 -1.6509 -1.2427
  149SAPE  H19S16474   4.443   7.073   8.402 -0.6067 -2.4229 -3.2694
  149SAPE  C22016475   4.301   7.206   8.495 -0.0614 -0.4541  0.1418
  149SAPE  H20R16476   4.246   7.121   8.541  0.4091 -1.0779 -0.4171
  149SAPE  H20S16477   4.232   7.285   8.460 -0.6065 -1.3323 -0.8091
  149SAPE  H20T16478   4.375   7.245   8.569  0.1919  0.9028 -0.7841
  149SAPE   C3316479   4.355   6.761   7.104  0.0336  0.3306 -0.4701
  149SAPE   H3X16480   4.303   6.672   7.063 -0.0050 -0.4691  1.2561
  149SAPE   H3Y16481   4.280   6.830   7.148  1.5691  1.1960  0.9006
  149SAPE   C3416482   4.457   6.726   7.211 -0.0120 -0.5438 -0.1294
  149SAPE   H4X16483   4.523   6.816   7.212 -0.0296 -0.4826 -1.5631
  149SAPE   H4Y16484   4.510   6.634   7.179  0.6420 -0.2296  0.0351
  149SAPE   C3516485   4.399   6.700   7.349  0.4845 -0.1398  0.0766
  149SAPE   H5X16486   4.337   6.608   7.349  1.2370 -0.7116 -2.0000
  149SAPE   H5Y16487   4.328   6.781   7.376  3.1846  2.8285 -0.9873
  149SAPE   C3616488   4.508   6.710   7.453  0.1024  0.2887 -0.4117
  149SAPE   H6X16489   4.567   6.802   7.434  2.6228 -1.4853 -1.7910
  149SAPE   H6Y16490   4.567   6.619   7.430 -0.9328 -0.4531 -0.1736
  149SAPE   C3716491   4.470   6.701   7.600 -0.3663  0.5580  0.6344
  149SAPE   H7X16492   4.400   6.615   7.611 -0.3479  0.7391  2.5058
  149SAPE   H7Y16493   4.426   6.796   7.637 -2.4104 -0.0681 -0.0320
  149SAPE   C3816494   4.593   6.660   7.686  0.1019  0.6019 -0.2748
  149SAPE   H8X16495   4.685   6.721   7.677  2.5471 -2.5434  1.1995
  149SAPE   H8Y16496   4.630   6.558   7.661 -2.1664 -1.1211  2.7310
  149SAPE   C3916497   4.546   6.663   7.838  0.1655  0.8909  0.4994
  149SAPE   H9X16498   4.436   6.666   7.848 -0.1941 -0.0571 -2.3081
  149SAPE   H9Y16499   4.585   6.766   7.859 -1.7573  1.4731  1.4494
  149SAPE  C31016500   4.611   6.555   7.920 -0.3036 -0.3082  0.0915
  149SAPE  H10X16501   4.722   6.561   7.920 -0.3292  0.2411 -0.2742
  149SAPE  H10Y16502   4.581   6.456   7.878 -0.6808 -0.3799  0.5204
  149SAPE  C31116503   4.555   6.552   8.070 -0.3604  0.1665  0.9337
  149SAPE  H11X16504   4.592   6.469   8.134  1.6763  0.7835  0.5957
  149SAPE  H11Y16505   4.444   6.549   8.062 -0.4333  0.5919  1.7135
  149SAPE  C31216506   4.583   6.681   8.154  1.0685 -0.6821  0.1412
  149SAPE  H12X16507   4.589   6.768   8.085 -1.0344 -2.5009 -2.5207
  149SAPE  H12Y16508   4.683   6.668   8.201 -0.6900 -2.3535  3.8566
  149SAPE  C31316509   4.485   6.701   8.271  0.0953  0.2996  0.4634
  149SAPE  H13X16510   4.460   6.607   8.324 -1.5350 -1.0936 -2.5071
  149SAPE  H13Y16511   4.384   6.735   8.239 -0.7703 -3.2452 -1.0169
  149SAPE  C31416512   4.549   6.801   8.376  0.0193  0.4111 -0.5329
  149SAPE  H14X16513   4.465   6.860   8.419  0.3856 -0.0722  0.8851
  149SAPE  H14Y16514   4.613   6.876   8.325 -1.3804  0.3670 -2.4872
  149SAPE  C31516515   4.606   6.727   8.496 -0.6737 -0.0225  0.1510
  149SAPE  H15X16516   4.698   6.675   8.461 -1.6446 -1.3919 -0.4646
  149SAPE  H15Y16517   4.528   6.657   8.530 -0.7378  0.0289  0.1094
  149SAPE  C31616518   4.644   6.822   8.612  0.2230  0.6645 -0.5174
  149SAPE  H16X16519   4.559   6.890   8.638  0.8870  1.8530 -1.3415
  149SAPE  H16Y16520   4.732   6.883   8.582  1.4405 -0.1614  1.2161
  149SAPE  C31716521   4.680   6.740   8.736  0.5255  0.5443  0.0830
  149SAPE  H17X16522   4.600   6.673   8.775  2.9734 -2.9369 -0.3573
  149SAPE  H17Y16523   4.692   6.813   8.819 -2.3411  2.9446 -1.4563
  149SAPE  C31816524   4.812   6.656   8.738  0.1992 -0.0289  0.2619
  149SAPE  H18X16525   4.906   6.707   8.710  1.5934  0.2981  4.8008
  149SAPE  H18Y16526   4.793   6.567   8.674 -1.6171 -0.5475  1.4307
  149SAPE  H18Z16527   4.837   6.638   8.844 -0.5538  0.1947  0.4822
  150SAPE     N16528   4.296   1.268   5.950  0.2628 -0.0779  0.1861
  150SAPE   HN116529   4.298   1.249   5.848  0.0881 -3.0681  0.6513
  150SAPE   HN216530   4.285   1.181   6.006 -1.2822  0.3272  0.5535
  150SAPE   HN316531   4.208   1.320   5.970 -0.2296 -1.5757  2.2446
  150SAPE   C1216532   4.405   1.357   6.007 -0.5146  0.0910  0.6746
  150SAPE  H12A16533   4.399   1.458   5.962  3.8852 -0.2557 -1.1558
  150SAPE  H12B16534   4.504   1.318   5.974 -1.7171 -1.8315 -0.9546
  150SAPE   C1116535   4.375   1.366   6.164 -0.1647 -0.1597  0.6616
  150SAPE  H11A16536   4.446   1.442   6.203  2.4846 -1.6427 -0.9602
  150SAPE  H11B16537   4.402   1.264   6.201  1.5714  0.0080 -0.0219
  150SAPE     P16538   4.192   1.476   6.312 -0.2566 -0.0249  0.4976
  150SAPE   O1316539   4.295   1.587   6.332  0.3192  0.6096 -0.4670
  150SAPE   O1416540   4.054   1.513   6.283  0.1774  0.1653 -0.2429
  150SAPE   O1216541   4.238   1.387   6.194 -0.1628 -0.5917 -0.3672
  150SAPE   O1116542   4.196   1.376   6.442  0.1131 -0.4292  0.1019
  150SAPE    C116543   4.082   1.296   6.477 -0.0719  0.3796  0.0306
  150SAPE    HA16544   4.030   1.256   6.387  1.3070 -1.9775  0.1960
  150SAPE    HB16545   4.115   1.202   6.524  2.0054  1.4995  0.9466
  150SAPE    C216546   3.987   1.370   6.574  0.5220  0.1305 -0.2452
  150SAPE    HS16547   3.964   1.476   6.546  0.1417  0.3229  0.7670
  150SAPE   O2116548   4.051   1.359   6.705  0.6482 -0.5499 -0.3162
  150SAPE   C2116549   4.117   1.467   6.735  0.2923  0.3499 -0.8049
  150SAPE   O2216550   4.115   1.574   6.675  0.0509  0.0244  0.0031
  150SAPE   C2216551   4.214   1.426   6.842  0.8624  0.0946 -1.3473
  150SAPE   H2R16552   4.245   1.321   6.826 -0.6153 -0.3187 -1.6635
  150SAPE   H2S16553   4.306   1.488   6.853  1.3341 -0.9929  2.5456
  150SAPE    C316554   3.855   1.296   6.580  0.1327 -0.4547  0.1492
  150SAPE    HX16555   3.862   1.190   6.612  0.8300 -0.0069  1.5214
  150SAPE    HY16556   3.806   1.293   6.480 -1.0038  2.0811  0.5522
  150SAPE   O3116557   3.768   1.365   6.661  0.6981 -0.1867 -0.0486
  150SAPE   C3116558   3.755   1.321   6.785 -0.0826 -0.9785 -0.3828
  150SAPE   O3216559   3.809   1.218   6.828 -0.1026 -0.3750 -0.1456
  150SAPE   C3216560   3.681   1.417   6.867 -0.1766 -0.2935  0.2602
  150SAPE   H2X16561   3.575   1.388   6.884 -0.1653 -0.6438 -0.2324
  150SAPE   H2Y16562   3.693   1.521   6.833 -0.4535  0.3816  2.0737
  150SAPE   C2316563   4.165   1.427   6.993  0.7221  0.4652  0.1279
  150SAPE   H3R16564   4.245   1.370   7.045  4.2053  1.4996 -3.5461
  150SAPE   H3S16565   4.067   1.380   7.011  0.5155  0.8676  0.0693
  150SAPE   C2416566   4.142   1.565   7.054  0.5082  0.1928  0.4979
  150SAPE   H4R16567   4.071   1.560   7.139  1.3904  1.4766  1.3545
  150SAPE   H4S16568   4.099   1.620   6.968  2.3791 -1.2533 -1.4650
  150SAPE   C2516569   4.270   1.634   7.097 -0.2854  0.3026  0.2014
  150SAPE   H5R16570   4.313   1.698   7.017 -1.4744  0.1114 -0.6140
  150SAPE   C2616571   4.335   1.595   7.207 -0.0025  0.8907 -0.9000
  150SAPE   H6R16572   4.427   1.649   7.233 -0.1893  0.1564  1.5207
  150SAPE   C2716573   4.299   1.484   7.307 -0.3428  0.5293 -0.3693
  150SAPE   H7R16574   4.359   1.401   7.265 -3.9311 -3.1456  1.1962
  150SAPE   H7S16575   4.191   1.459   7.300 -0.4513  0.6139  0.7554
  150SAPE   C2816576   4.325   1.515   7.451  0.2058  0.1085  0.4871
  150SAPE   H8R16577   4.242   1.567   7.501 -0.4529 -0.4995  0.0447
  150SAPE   C2916578   4.445   1.498   7.512 -0.1149  0.5235  0.8149
  150SAPE   H9R16579   4.458   1.517   7.620  1.1978 -0.7276  0.9074
  150SAPE  C21016580   4.570   1.458   7.439 -0.1406  0.1348 -0.3905
  150SAPE  H10R16581   4.657   1.523   7.464  0.5108 -0.5496 -0.8040
  150SAPE  H10S16582   4.565   1.477   7.329  0.6944  3.3468  0.0220
  150SAPE  C21116583   4.608   1.313   7.459 -0.3620  0.0810  0.6851
  150SAPE  H11R16584   4.568   1.246   7.381  1.7770 -0.8493  0.3192
  150SAPE  C21216585   4.677   1.263   7.559  0.2604 -0.0801  0.0723
  150SAPE  H12R16586   4.697   1.155   7.549 -1.1580 -0.2412 -1.3052
  150SAPE  C21316587   4.731   1.335   7.676 -0.0655  0.4787 -0.2965
  150SAPE  H13R16588   4.652   1.356   7.752  1.6108  0.1327  1.6071
  150SAPE  H13S16589   4.769   1.433   7.640 -0.6631 -0.2937 -3.2565
  150SAPE  C21416590   4.838   1.265   7.756 -0.2512  0.5514  0.1260
  150SAPE  H14R16591   4.825   1.156   7.755  0.9571  0.3408  2.0224
  150SAPE  C21516592   4.943   1.318   7.825  0.5362 -0.0684  0.6975
  150SAPE  H15R16593   5.002   1.247   7.884 -0.1579 -2.2591 -1.1078
  150SAPE  C21616594   4.991   1.460   7.845 -0.6122  0.1323 -0.3482
  150SAPE  H16R16595   4.990   1.483   7.954  0.0449  0.5208 -0.4199
  150SAPE  H16S16596   4.924   1.531   7.792 -0.2391  0.1988 -0.7358
  150SAPE  C21716597   5.129   1.499   7.792 -0.1445  0.1879  0.3840
  150SAPE  H17R16598   5.199   1.432   7.846  0.0174  0.0017 -0.0484
  150SAPE  H17S16599   5.164   1.602   7.814 -1.8633  0.6385  1.1469
  150SAPE  C21816600   5.156   1.486   7.642  0.1167  0.4383  0.3333
  150SAPE  H18R16601   5.069   1.526   7.587 -0.4794  0.0958  1.0153
  150SAPE  H18S16602   5.181   1.379   7.622  0.1339  0.6123 -0.6472
  150SAPE  C21916603   5.272   1.583   7.599  0.0350 -0.2324  0.5248
  150SAPE  H19R16604   5.240   1.686   7.626  0.6628  1.0162 -2.9955
  150SAPE  H19S16605   5.277   1.577   7.488 -2.4508 -0.4060  0.3604
  150SAPE  C22016606   5.405   1.559   7.663  0.1315  0.8505 -0.2752
  150SAPE  H20R16607   5.392   1.543   7.772 -2.4169  1.7172 -0.3768
  150SAPE  H20S16608   5.484   1.633   7.641  0.5927  0.9613  1.5747
  150SAPE  H20T16609   5.446   1.463   7.626 -2.9120 -1.1102  0.9580
  150SAPE   C3316610   3.736   1.421   7.013 -0.2414  0.4113 -0.4083
  150SAPE   H3X16611   3.673   1.500   7.059 -0.6316 -0.2159  0.1594
  150SAPE   H3Y16612   3.844   1.442   7.027  0.0945  0.1354 -2.3388
  150SAPE   C3416613   3.700   1.292   7.096 -0.4446 -0.2880 -0.0845
  150SAPE   H4X16614   3.750   1.197   7.064 -0.6688 -0.1929 -0.7246
  150SAPE   H4Y16615   3.594   1.262   7.086 -0.7588  0.8168 -0.1179
  150SAPE   C3516616   3.730   1.320   7.240 -0.0776 -0.3468 -0.1317
  150SAPE   H5X16617   3.658   1.391   7.287  0.9407  1.5841 -1.3584
  150SAPE   H5Y16618   3.829   1.369   7.248  1.1444 -2.8168  0.8627
  150SAPE   C3616619   3.730   1.190   7.320  0.0722 -0.3967 -0.5508
  150SAPE   H6X16620   3.805   1.129   7.265  0.3283 -0.4486 -0.1515
  150SAPE   H6Y16621   3.638   1.128   7.313 -0.1532 -0.5138  2.1983
  150SAPE   C3716622   3.767   1.214   7.469  0.0071 -0.3415 -0.0462
  150SAPE   H7X16623   3.759   1.115   7.518 -0.2869  1.1484  3.1448
  150SAPE   H7Y16624   3.687   1.271   7.521  2.0911  1.2354  1.5891
  150SAPE   C3816625   3.900   1.291   7.500  0.5690  1.0629  0.6532
  150SAPE   H8X16626   3.906   1.377   7.430 -2.3766 -0.4811 -1.7799
  150SAPE   H8Y16627   3.983   1.219   7.484 -0.5015 -0.3862  1.4095
  150SAPE   C3916628   3.894   1.347   7.647  0.6837 -0.1087  0.1630
  150SAPE   H9X16629   3.864   1.262   7.712  0.1522  0.0713  0.1516
  150SAPE   H9Y16630   3.808   1.416   7.639  1.6235  0.9102 -2.0255
  150SAPE  C31016631   4.015   1.421   7.694  0.0697  0.2871 -0.3003
  150SAPE  H10X16632   4.063   1.472   7.608  1.8409 -0.4626  0.2001
  150SAPE  H10Y16633   4.083   1.349   7.743 -0.7243 -0.6467 -0.5259
  150SAPE  C31116634   3.979   1.521   7.806 -0.1533  0.0852  0.2128
  150SAPE  H11X16635   3.914   1.599   7.761  1.8158  1.5650 -0.2297
  150SAPE  H11Y16636   4.070   1.577   7.837 -0.7601  1.5385 -0.5290
  150SAPE  C31216637   3.914   1.460   7.929 -0.5603  0.1499  0.1527
  150SAPE  H12X16638   3.829   1.394   7.901 -1.2375  1.9300 -2.3259
  150SAPE  H12Y16639   3.882   1.541   7.998  3.5582  1.6940  0.5546
  150SAPE  C31316640   4.022   1.382   8.008  0.5356 -0.3700 -0.5831
  150SAPE  H13X16641   4.104   1.457   8.010 -0.6750  0.9726 -0.1012
  150SAPE  H13Y16642   4.056   1.290   7.956  1.7207 -0.3473  0.1083
  150SAPE  C31416643   3.968   1.349   8.141 -1.0093  0.1050 -0.2773
  150SAPE  H14X16644   3.901   1.260   8.137 -0.8570 -0.3641  3.8798
  150SAPE  H14Y16645   3.900   1.430   8.174  0.1818  0.4456  1.4602
  150SAPE  C31516646   4.075   1.314   8.246  0.7546 -0.6604 -0.3311
  150SAPE  H15X16647   4.144   1.401   8.243 -0.6467  0.4477 -2.5013
  150SAPE  H15Y16648   4.131   1.224   8.213  0.7816 -0.1412 -1.7476
  150SAPE  C31616649   4.021   1.290   8.386 -0.0599  0.6664 -0.5923
  150SAPE  H16X16650   3.967   1.193   8.384 -0.4713  0.8158  1.3831
  150SAPE  H16Y16651   3.957   1.375   8.416  1.5336  2.8060 -2.9035
  150SAPE  C31716652   4.126   1.280   8.502  0.2577 -0.4204 -0.2939
  150SAPE  H17X16653   4.174   1.379   8.520  0.3401 -0.2345 -1.4978
  150SAPE  H17Y16654   4.200   1.202   8.475  0.2602 -0.4773 -0.1252
  150SAPE  C31816655   4.062   1.227   8.626  0.2201  0.4657 -0.0104
  150SAPE  H18X16656   4.005   1.135   8.602  1.7063 -0.7668  0.9817
  150SAPE  H18Y16657   3.978   1.282   8.673  0.1602 -0.2338  0.7049
  150SAPE  H18Z16658   4.138   1.218   8.706  1.1066  2.3241 -0.5859
  151SAPE     N16659   6.584   5.857   6.459 -0.2880 -0.1143 -0.1062
  151SAPE   HN116660   6.507   5.898   6.516 -0.0501  1.1253 -0.6270
  151SAPE   HN216661   6.557   5.774   6.403 -1.7525 -0.0484  0.4588
  151SAPE   HN316662   6.655   5.835   6.532 -1.0648 -0.6986  0.4920
  151SAPE   C1216663   6.637   5.963   6.368  0.0317 -0.4319  0.6843
  151SAPE  H12A16664   6.672   6.047   6.432  2.9400 -0.8548 -0.2223
  151SAPE  H12B16665   6.553   5.999   6.305  0.4164 -0.2748  0.2587
  151SAPE   C1116666   6.759   5.915   6.277 -0.1657 -0.1484  0.0010
  151SAPE  H11A16667   6.807   6.000   6.225  0.1210 -0.5660 -0.4188
  151SAPE  H11B16668   6.719   5.841   6.205 -0.9166  1.2931 -1.1153
  151SAPE     P16669   7.006   5.835   6.322  0.0317  0.4288 -0.3715
  151SAPE   O1316670   7.014   5.739   6.208 -0.8365 -0.0877  0.4309
  151SAPE   O1416671   7.079   5.965   6.300 -0.8672 -0.1608 -0.7983
  151SAPE   O1216672   6.856   5.855   6.367 -0.1283  0.1095 -0.0719
  151SAPE   O1116673   7.067   5.757   6.450 -0.0106 -0.3629 -0.0605
  151SAPE    C116674   6.997   5.641   6.498 -0.2232  0.4172  0.2835
  151SAPE    HA16675   6.892   5.636   6.463 -0.1831  2.6009 -0.3390
  151SAPE    HB16676   7.054   5.555   6.456 -1.9141  0.1919 -1.6998
  151SAPE    C216677   6.986   5.621   6.648 -0.0029  0.2434  1.3779
  151SAPE    HS16678   6.902   5.550   6.667  2.1134 -2.0388  2.8254
  151SAPE   O2116679   6.977   5.746   6.710  0.2600 -1.1350  0.1945
  151SAPE   C2116680   6.864   5.818   6.689 -0.0262  0.5423  0.4440
  151SAPE   O2216681   6.764   5.773   6.638 -0.0574 -0.1932 -0.2469
  151SAPE   C2216682   6.883   5.963   6.742  0.5421  0.5994  1.1152
  151SAPE   H2R16683   6.946   5.955   6.833 -1.3839 -2.6476  2.3501
  151SAPE   H2S16684   6.941   6.017   6.665 -0.2798  4.1837  2.7793
  151SAPE    C316685   7.111   5.552   6.695 -0.0667 -0.0267  0.0864
  151SAPE    HX16686   7.197   5.616   6.667  1.1142 -0.9570  1.4380
  151SAPE    HY16687   7.122   5.452   6.647  1.6614 -0.8712  2.0997
  151SAPE   O3116688   7.097   5.528   6.841  0.0783  0.1932  0.1222
  151SAPE   C3116689   7.218   5.503   6.903  0.4610 -0.1732  0.6048
  151SAPE   O3216690   7.321   5.497   6.843 -0.5271  0.1313  0.2340
  151SAPE   C3216691   7.200   5.480   7.049 -0.1206  0.0896 -0.9264
  151SAPE   H2X16692   7.130   5.395   7.063 -2.1223  1.9826  1.6088
  151SAPE   H2Y16693   7.157   5.575   7.089 -1.4788 -0.3917 -1.2016
  151SAPE   C2316694   6.750   6.046   6.768 -0.2772 -0.1969 -0.3074
  151SAPE   H3R16695   6.687   6.079   6.683  0.8764  2.7320 -0.1366
  151SAPE   H3S16696   6.807   6.136   6.801  1.8959 -1.9815  1.1538
  151SAPE   C2416697   6.663   5.986   6.878  0.6183  0.5305 -0.2346
  151SAPE   H4R16698   6.643   5.879   6.853 -1.6042  0.9526 -0.4810
  151SAPE   H4S16699   6.562   6.032   6.872  0.8932  1.0228 -1.2365
  151SAPE   C2516700   6.721   5.975   7.014  0.3506 -0.2428 -0.0353
  151SAPE   H5R16701   6.830   5.991   7.008  0.7952 -3.0048 -0.5826
  151SAPE   C2616702   6.643   5.953   7.127 -1.0249 -0.0500  0.7867
  151SAPE   H6R16703   6.700   5.951   7.222 -0.3538 -0.3445  0.3839
  151SAPE   C2716704   6.493   5.940   7.137  0.1269 -0.0285  0.4498
  151SAPE   H7R16705   6.469   5.872   7.222 -0.7059 -1.3590 -0.7993
  151SAPE   H7S16706   6.457   5.894   7.042  1.4584  0.3614 -0.2654
  151SAPE   C2816707   6.434   6.077   7.149  0.5259 -0.0493  0.1654
  151SAPE   H8R16708   6.458   6.137   7.060 -1.5674  0.5938 -0.0371
  151SAPE   C2916709   6.384   6.128   7.257 -0.3305  0.5298  0.3378
  151SAPE   H9R16710   6.345   6.231   7.254  0.3472  0.7758 -0.3682
  151SAPE  C21016711   6.363   6.059   7.397  1.1434 -0.1457  0.1003
  151SAPE  H10R16712   6.447   6.090   7.463 -0.0066  1.1456  1.0111
  151SAPE  H10S16713   6.386   5.952   7.381 -1.3818 -1.0001  1.7617
  151SAPE  C21116714   6.221   6.053   7.461 -0.5743 -1.1289  0.5647
  151SAPE  H11R16715   6.143   6.058   7.383  1.2615  1.9320 -1.2776
  151SAPE  C21216716   6.174   6.068   7.590 -0.1541 -0.5849 -0.4280
  151SAPE  H12R16717   6.072   6.035   7.613 -0.6824  0.2857 -1.4679
  151SAPE  C21316718   6.264   6.078   7.716 -0.3107 -0.4110  0.4645
  151SAPE  H13R16719   6.355   6.139   7.693 -0.7838  0.1505  0.0404
  151SAPE  H13S16720   6.304   5.982   7.754 -0.9169 -0.9388 -0.2047
  151SAPE  C21416721   6.181   6.145   7.822 -0.2648  0.3781  0.7604
  151SAPE  H14R16722   6.163   6.251   7.797  0.3469 -0.5123 -4.9416
  151SAPE  C21516723   6.151   6.098   7.948 -0.2970 -0.5098  0.4757
  151SAPE  H15R16724   6.087   6.157   8.015  0.9286 -2.1093  3.2086
  151SAPE  C21616725   6.188   5.968   8.014  0.7229 -0.4637 -0.0780
  151SAPE  H16R16726   6.242   5.918   7.931 -0.7933 -0.0006 -1.3861
  151SAPE  H16S16727   6.100   5.906   8.041 -0.2547  0.5085 -0.9520
  151SAPE  C21716728   6.257   5.991   8.153 -0.1042 -0.0608  0.1357
  151SAPE  H17R16729   6.350   6.048   8.131  0.5470 -0.6214  1.3351
  151SAPE  H17S16730   6.297   5.893   8.185  1.8916  0.5117 -0.4942
  151SAPE  C21816731   6.174   6.075   8.264 -0.5014  0.4933  0.1426
  151SAPE  H18R16732   6.076   6.026   8.284 -0.3727 -0.8124 -2.0680
  151SAPE  H18S16733   6.141   6.166   8.210 -2.6985 -0.6705 -0.6149
  151SAPE  C21916734   6.253   6.120   8.380  0.1157 -0.0938 -0.0614
  151SAPE  H19R16735   6.194   6.195   8.436 -0.4421 -1.4139  1.1743
  151SAPE  H19S16736   6.346   6.164   8.337 -0.5852  0.2156 -1.2958
  151SAPE  C22016737   6.285   6.007   8.479 -0.2931 -0.3625 -0.2525
  151SAPE  H20R16738   6.189   5.986   8.531 -0.8038  1.9757 -0.1770
  151SAPE  H20S16739   6.329   5.925   8.418  0.5031  0.1572 -0.3779
  151SAPE  H20T16740   6.353   6.043   8.559  0.3389 -1.8173 -0.0932
  151SAPE   C3316741   7.319   5.421   7.130  0.0557  0.1372 -0.3417
  151SAPE   H3X16742   7.412   5.480   7.112  0.7249 -1.3988 -2.2614
  151SAPE   H3Y16743   7.348   5.318   7.099 -0.3886  0.2395 -1.1284
  151SAPE   C3416744   7.291   5.403   7.283 -0.2335  0.3528 -0.2814
  151SAPE   H4X16745   7.217   5.322   7.301  0.2038  0.1855  0.8303
  151SAPE   H4Y16746   7.256   5.500   7.325  0.1145 -0.4583  2.0413
  151SAPE   C3516747   7.422   5.380   7.359  0.9010  0.7025 -0.1648
  151SAPE   H5X16748   7.464   5.479   7.385 -0.2944  1.1825  0.0189
  151SAPE   H5Y16749   7.493   5.321   7.296 -1.7508  0.4962 -3.2696
  151SAPE   C3616750   7.404   5.290   7.486  0.5740 -0.1315  0.6814
  151SAPE   H6X16751   7.382   5.183   7.466  1.9188 -0.3309  0.1644
  151SAPE   H6Y16752   7.315   5.337   7.533 -1.2324 -0.3829 -2.2860
  151SAPE   C3716753   7.511   5.289   7.591 -0.0405  0.3057 -0.1514
  151SAPE   H7X16754   7.605   5.254   7.543 -0.3435  0.0544 -0.5693
  151SAPE   H7Y16755   7.475   5.217   7.667  0.1799 -0.5176 -0.8099
  151SAPE   C3816756   7.526   5.424   7.659 -0.3233 -0.3506  0.5006
  151SAPE   H8X16757   7.428   5.474   7.677 -0.7295 -0.9187 -0.0680
  151SAPE   H8Y16758   7.568   5.490   7.580 -1.6380 -0.3345 -0.2265
  151SAPE   C3916759   7.611   5.419   7.791 -1.0018  0.0841 -0.7545
  151SAPE   H9X16760   7.620   5.524   7.826  1.0434 -0.9969  2.4507
  151SAPE   H9Y16761   7.716   5.390   7.770 -0.1286  1.1753  1.6927
  151SAPE  C31016762   7.551   5.326   7.905 -0.5009 -0.5150  0.1353
  151SAPE  H10X16763   7.551   5.225   7.859  0.7489 -0.2831 -0.4311
  151SAPE  H10Y16764   7.449   5.365   7.926 -0.2061 -0.0221  0.6919
  151SAPE  C31116765   7.634   5.320   8.029 -0.0349 -0.1259 -0.5659
  151SAPE  H11X16766   7.741   5.326   7.999  0.3085  2.0495  0.8352
  151SAPE  H11Y16767   7.621   5.222   8.079  1.5278  1.8585  4.4104
  151SAPE  C31216768   7.590   5.445   8.112  1.2289 -0.9601  1.0123
  151SAPE  H12X16769   7.482   5.431   8.133  0.9861 -0.3706  0.1837
  151SAPE  H12Y16770   7.615   5.540   8.061  1.2925 -0.9530  1.0562
  151SAPE  C31316771   7.660   5.469   8.240  0.1083  0.2579 -0.5001
  151SAPE  H13X16772   7.768   5.458   8.215  0.0031  0.4971 -1.0880
  151SAPE  H13Y16773   7.639   5.395   8.321 -0.3265  0.7836 -0.1269
  151SAPE  C31416774   7.624   5.587   8.322 -0.9621  0.1120  0.5092
  151SAPE  H14X16775   7.516   5.590   8.351 -1.0105  0.7742  0.2552
  151SAPE  H14Y16776   7.635   5.675   8.257 -3.9849 -1.1356 -1.9631
  151SAPE  C31516777   7.712   5.621   8.445 -0.7539  0.0401 -0.3555
  151SAPE  H15X16778   7.734   5.531   8.506 -0.9187  0.4298  0.2977
  151SAPE  H15Y16779   7.653   5.674   8.523 -1.3788 -0.3588 -0.5551
  151SAPE  C31616780   7.834   5.713   8.429  0.5674  0.6809  0.2975
  151SAPE  H16X16781   7.805   5.794   8.358 -0.9217 -0.6693 -0.6970
  151SAPE  H16Y16782   7.922   5.660   8.388  0.7381 -0.7940  2.4296
  151SAPE  C31716783   7.890   5.771   8.558  0.2689 -0.5773  1.0858
  151SAPE  H17X16784   7.972   5.839   8.526 -1.2869  0.4969 -0.9197
  151SAPE  H17Y16785   7.913   5.688   8.627 -3.7281 -1.3484  1.7385
  151SAPE  C31816786   7.795   5.866   8.635 -0.7822 -0.0273  0.1613
  151SAPE  H18X16787   7.761   5.951   8.572 -0.0624  0.7697  0.8271
  151SAPE  H18Y16788   7.843   5.909   8.725 -1.3904  1.3960 -0.1606
  151SAPE  H18Z16789   7.709   5.802   8.661 -0.3262 -0.0481  1.6880
  152SAPE     N16790   3.480   3.168   5.953  0.0970  0.4178  0.7420
  152SAPE   HN116791   3.493   3.205   6.049  1.4368 -1.2802  1.2567
  152SAPE   HN216792   3.551   3.223   5.900  0.7985  0.3517  1.5896
  152SAPE   HN316793   3.385   3.189   5.917 -0.2400 -1.0768  0.6964
  152SAPE   C1216794   3.539   3.032   5.932  0.0178  0.3679  0.6611
  152SAPE  H12A16795   3.528   2.981   5.834  1.8046 -0.1370  0.6854
  152SAPE  H12B16796   3.497   2.971   6.014 -0.7347  2.3501  1.8161
  152SAPE   C1116797   3.694   3.035   5.947 -0.2352 -0.6241  0.2806
  152SAPE  H11A16798   3.733   3.072   5.850  2.8393 -3.0200  0.4485
  152SAPE  H11B16799   3.741   2.937   5.968 -0.2093 -0.8351 -0.7150
  152SAPE     P16800   3.840   3.094   6.167 -0.1146 -0.5528  0.2910
  152SAPE   O1316801   3.962   3.028   6.118 -0.3223  0.4034 -0.1618
  152SAPE   O1416802   3.861   3.224   6.234 -0.0245  0.2840  0.8702
  152SAPE   O1216803   3.737   3.124   6.047 -0.1153 -0.4741  0.3493
  152SAPE   O1116804   3.755   3.004   6.265  0.3627 -0.3497  0.4452
  152SAPE    C116805   3.652   3.065   6.345  0.4376  0.5370  0.3435
  152SAPE    HA16806   3.608   3.158   6.302 -2.5547 -0.6321  0.5887
  152SAPE    HB16807   3.573   2.987   6.354  1.6181 -1.0491 -1.9167
  152SAPE    C216808   3.704   3.098   6.487  0.9035  0.9284  0.8024
  152SAPE    HS16809   3.777   3.180   6.475  1.1205  0.5540 -0.5702
  152SAPE   O2116810   3.761   2.975   6.542  0.0962 -0.3219  0.0241
  152SAPE   C2116811   3.858   3.001   6.626  0.1372  0.7802  0.4030
  152SAPE   O2216812   3.893   3.108   6.663 -0.7799  0.5163  0.0996
  152SAPE   C2216813   3.912   2.871   6.680 -0.3416  0.8095 -0.2538
  152SAPE   H2R16814   3.888   2.784   6.615 -0.4816  0.3389  0.4176
  152SAPE   H2S16815   4.021   2.886   6.666 -0.0596 -0.9523 -0.1122
  152SAPE    C316816   3.579   3.146   6.574 -0.2184  0.5313  0.7228
  152SAPE    HX16817   3.528   3.049   6.590  0.7293 -0.4098 -1.4767
  152SAPE    HY16818   3.505   3.201   6.512 -1.3138 -1.3298  0.3053
  152SAPE   O3116819   3.628   3.207   6.697  0.3314  0.9558  0.3598
  152SAPE   C3116820   3.523   3.263   6.760  0.7953  0.3301  0.2411
  152SAPE   O3216821   3.409   3.278   6.712  0.3498  0.1807  0.0628
  152SAPE   C3216822   3.547   3.304   6.900  0.2611 -0.1349  0.0824
  152SAPE   H2X16823   3.564   3.413   6.896 -2.4988  0.3588 -1.1178
  152SAPE   H2Y16824   3.630   3.241   6.939 -0.5870 -0.5104  1.3472
  152SAPE   C2316825   3.876   2.851   6.824 -0.0886  0.8498 -0.1109
  152SAPE   H3R16826   3.914   2.941   6.878 -0.9401  0.4165  1.2829
  152SAPE   H3S16827   3.939   2.770   6.867  2.1058  2.0730 -0.8795
  152SAPE   C2416828   3.728   2.823   6.854  0.3770  0.2538 -0.0663
  152SAPE   H4R16829   3.666   2.902   6.807  0.1959 -0.9076 -1.8891
  152SAPE   H4S16830   3.704   2.829   6.962  0.7248 -1.0513  0.1042
  152SAPE   C2516831   3.689   2.687   6.805 -0.5957 -0.7039 -0.2609
  152SAPE   H5R16832   3.666   2.675   6.699  0.4439 -2.0112 -0.3541
  152SAPE   C2616833   3.661   2.580   6.882  0.6731  0.7227  0.8744
  152SAPE   H6R16834   3.648   2.486   6.826  0.2886  1.3848 -0.1868
  152SAPE   C2716835   3.662   2.573   7.033 -0.3215  0.5804  0.1167
  152SAPE   H7R16836   3.566   2.535   7.074 -0.8252 -0.4926 -1.8964
  152SAPE   H7S16837   3.672   2.671   7.083  0.1675  0.1612  0.8647
  152SAPE   C2816838   3.779   2.485   7.076  0.5926 -0.2729 -0.5931
  152SAPE   H8R16839   3.771   2.386   7.028  0.3460 -0.8081  0.5248
  152SAPE   C2916840   3.895   2.511   7.145 -0.2686  0.2996  0.2835
  152SAPE   H9R16841   3.977   2.438   7.152 -0.5512 -0.0043  0.4749
  152SAPE  C21016842   3.942   2.643   7.197 -0.2901  0.1764  0.2682
  152SAPE  H10R16843   3.939   2.629   7.307 -0.1648 -0.4832  0.1931
  152SAPE  H10S16844   3.867   2.725   7.191  0.5524  1.0147  1.0215
  152SAPE  C21116845   4.083   2.685   7.151 -0.0625  0.1004  0.7071
  152SAPE  H11R16846   4.069   2.748   7.062  0.0332  1.0735  1.3678
  152SAPE  C21216847   4.207   2.670   7.206  0.1719 -0.5479  0.1655
  152SAPE  H12R16848   4.297   2.707   7.156  0.7953  1.6715  2.6954
  152SAPE  C21316849   4.232   2.599   7.339 -0.1933  0.3019 -0.2196
  152SAPE  H13R16850   4.153   2.637   7.407  1.4077  0.7659  1.4659
  152SAPE  H13S16851   4.326   2.638   7.384 -1.0424  0.2160  1.7116
  152SAPE  C21416852   4.230   2.450   7.345 -0.1248 -0.0303 -0.5432
  152SAPE  H14R16853   4.235   2.396   7.249 -0.8366 -0.9460 -0.0773
  152SAPE  C21516854   4.233   2.373   7.458  0.6868  0.5034  0.7338
  152SAPE  H15R16855   4.228   2.263   7.450  1.7206  0.5947 -2.6328
  152SAPE  C21616856   4.234   2.432   7.590 -0.6429  0.9660  0.0079
  152SAPE  H16R16857   4.209   2.540   7.581 -0.1098  0.9947 -1.4456
  152SAPE  H16S16858   4.328   2.420   7.649 -0.5618 -1.8292 -0.5426
  152SAPE  C21716859   4.126   2.353   7.666 -0.2856  0.2093  0.2870
  152SAPE  H17R16860   4.157   2.250   7.692  0.2967 -0.0879 -1.4483
  152SAPE  H17S16861   4.032   2.343   7.607 -0.2540 -0.4542  0.3394
  152SAPE  C21816862   4.090   2.419   7.793  0.1988 -0.1636 -0.9841
  152SAPE  H18R16863   4.001   2.375   7.843  0.2438  1.8802  1.0644
  152SAPE  H18S16864   4.078   2.529   7.781  3.7788  0.2452 -1.9651
  152SAPE  C21916865   4.186   2.400   7.911 -0.2549 -0.2284 -0.3021
  152SAPE  H19R16866   4.287   2.438   7.887 -0.8491  1.3330 -0.4428
  152SAPE  H19S16867   4.188   2.290   7.929  0.1373  0.1722  2.5160
  152SAPE  C22016868   4.155   2.485   8.037  0.1629  0.1964 -0.2788
  152SAPE  H20R16869   4.236   2.456   8.109 -0.3495 -0.2167  0.1387
  152SAPE  H20S16870   4.056   2.452   8.074 -0.1658  1.5577  0.1039
  152SAPE  H20T16871   4.142   2.593   8.020 -1.6752 -0.0452 -0.6000
  152SAPE   C3316872   3.433   3.296   6.998  0.3312  0.7165  0.8592
  152SAPE   H3X16873   3.381   3.198   6.996  0.7275  0.5007  0.9173
  152SAPE   H3Y16874   3.360   3.366   6.953 -1.4192 -0.1650  2.1888
  152SAPE   C3416875   3.466   3.336   7.138  0.0560  0.4387  0.0210
  152SAPE   H4X16876   3.374   3.378   7.185 -0.4216  0.0110 -0.5221
  152SAPE   H4Y16877   3.546   3.410   7.157  1.1470 -1.1897  2.1274
  152SAPE   C3516878   3.501   3.202   7.205 -0.0820  0.1465  0.6550
  152SAPE   H5X16879   3.551   3.144   7.125 -1.6485  1.3048 -1.2543
  152SAPE   H5Y16880   3.400   3.161   7.228 -0.8413  3.3715  4.2802
  152SAPE   C3616881   3.585   3.217   7.338  0.2177  0.3204  0.0707
  152SAPE   H6X16882   3.672   3.285   7.326  1.1126 -0.5508  1.3320
  152SAPE   H6Y16883   3.625   3.118   7.367 -0.2348 -0.1742 -0.9482
  152SAPE   C3716884   3.501   3.265   7.457  0.3035  0.3603 -0.7841
  152SAPE   H7X16885   3.406   3.206   7.457  0.7445 -0.3970  0.7111
  152SAPE   H7Y16886   3.468   3.371   7.450 -0.3877  0.3181  1.1045
  152SAPE   C3816887   3.571   3.254   7.597  0.1330  0.4288 -0.0754
  152SAPE   H8X16888   3.659   3.322   7.599 -0.9407  1.8254  0.9707
  152SAPE   H8Y16889   3.615   3.154   7.615 -1.6911 -0.1882  1.1363
  152SAPE   C3916890   3.487   3.297   7.715  0.0271 -0.1405  0.0564
  152SAPE   H9X16891   3.400   3.229   7.725  1.4403 -2.3518 -1.8419
  152SAPE   H9Y16892   3.443   3.394   7.685 -0.0150  0.7875  2.7614
  152SAPE  C31016893   3.572   3.295   7.844  0.2487 -0.1252 -0.2694
  152SAPE  H10X16894   3.666   3.352   7.832 -0.2220  0.9037  0.7615
  152SAPE  H10Y16895   3.606   3.192   7.870  0.7877 -0.4893 -2.2502
  152SAPE  C31116896   3.496   3.355   7.961 -0.2188 -0.0100  0.2137
  152SAPE  H11X16897   3.417   3.283   7.989 -1.6687  2.2928  2.5187
  152SAPE  H11Y16898   3.442   3.446   7.929  2.5573  2.0221  0.9012
  152SAPE  C31216899   3.594   3.380   8.075  0.6134  0.0651  1.3398
  152SAPE  H12X16900   3.654   3.472   8.058 -0.0768  0.8072  2.7682
  152SAPE  H12Y16901   3.660   3.293   8.096 -0.6883 -1.0530  0.9090
  152SAPE  C31316902   3.521   3.411   8.209 -0.3173  0.9415  0.5869
  152SAPE  H13X16903   3.460   3.321   8.229 -1.3576  0.9969 -1.8826
  152SAPE  H13Y16904   3.452   3.495   8.187 -1.3038 -0.0506 -0.2780
  152SAPE  C31416905   3.621   3.430   8.313 -0.1452 -0.1969  0.1715
  152SAPE  H14X16906   3.577   3.452   8.413  0.4086 -1.3785  0.7063
  152SAPE  H14Y16907   3.673   3.522   8.281 -0.1711 -0.3514 -0.3157
  152SAPE  C31516908   3.720   3.315   8.353 -0.0299 -0.5576 -0.1575
  152SAPE  H15X16909   3.788   3.317   8.265 -2.9616  2.9478 -2.6073
  152SAPE  H15Y16910   3.666   3.218   8.356 -0.2310 -0.4277  0.4010
  152SAPE  C31616911   3.797   3.345   8.487  0.0398 -0.1110 -0.3172
  152SAPE  H16X16912   3.725   3.325   8.569  0.9339 -2.6049 -0.0752
  152SAPE  H16Y16913   3.833   3.450   8.491 -1.2423  0.4525 -1.9259
  152SAPE  C31716914   3.926   3.264   8.504  0.8461  0.8110  0.9705
  152SAPE  H17X16915   4.007   3.278   8.429  0.0245  0.3633 -0.0227
  152SAPE  H17Y16916   3.895   3.159   8.486 -0.7855  1.3978  0.1917
  152SAPE  C31816917   3.986   3.284   8.645  0.6166 -0.6360  0.5569
  152SAPE  H18X16918   3.977   3.393   8.663 -1.8499 -0.7191  0.1474
  152SAPE  H18Y16919   4.093   3.255   8.654  0.5790 -0.7128  0.7470
  152SAPE  H18Z16920   3.924   3.230   8.720  0.2798 -0.2088  0.5865
  153SAPE     N16921   6.702   2.496   6.286 -0.2436  0.8587  0.1876
  153SAPE   HN116922   6.629   2.567   6.267 -1.0563 -0.3430 -1.3882
  153SAPE   HN216923   6.746   2.459   6.199  0.0560  2.3264 -0.3302
  153SAPE   HN316924   6.652   2.420   6.336  0.9647  1.7457  2.9584
  153SAPE   C1216925   6.814   2.535   6.381  0.1843 -0.0556 -0.6653
  153SAPE  H12A16926   6.766   2.597   6.460  2.3157  2.3851 -1.1400
  153SAPE  H12B16927   6.881   2.601   6.322 -0.6150 -0.3582 -1.9708
  153SAPE   C1116928   6.898   2.415   6.432  0.8244 -0.2282  0.5397
  153SAPE  H11A16929   6.972   2.453   6.505 -0.6554  0.3061  1.8165
  153SAPE  H11B16930   6.962   2.368   6.354 -1.6719 -1.7772 -0.6880
  153SAPE     P16931   6.784   2.183   6.439 -0.0828  0.6310 -0.1144
  153SAPE   O1316932   6.740   2.079   6.535  0.1586  0.3906  0.5630
  153SAPE   O1416933   6.690   2.213   6.327  0.1735  0.4988  0.3777
  153SAPE   O1216934   6.821   2.323   6.504 -0.0225 -0.2293 -0.3480
  153SAPE   O1116935   6.917   2.134   6.355 -0.0046  0.1961 -0.1051
  153SAPE    C116936   6.995   2.030   6.405 -0.1196 -0.5861  0.1101
  153SAPE    HA16937   6.938   1.941   6.439  0.1320 -0.5899  0.5366
  153SAPE    HB16938   7.055   1.987   6.322 -0.0852  1.6020 -1.0652
  153SAPE    C216939   7.111   2.076   6.501 -0.0727 -0.1783 -0.0453
  153SAPE    HS16940   7.183   1.991   6.493 -0.1072 -0.1469 -0.7783
  153SAPE   O2116941   7.061   2.107   6.631  1.0118 -0.0731  0.5774
  153SAPE   C2116942   7.043   1.995   6.698  0.0938 -0.0039  0.4788
  153SAPE   O2216943   7.066   1.884   6.653  0.5150 -1.0470 -0.2366
  153SAPE   C2216944   6.985   2.032   6.835 -0.1301  0.1284 -0.3322
  153SAPE   H2R16945   6.876   2.046   6.819  0.1277 -0.0398 -2.5135
  153SAPE   H2S16946   6.991   1.943   6.901  2.7401  1.1894  0.9951
  153SAPE    C316947   7.185   2.196   6.440 -0.3712  0.3251 -0.4526
  153SAPE    HX16948   7.113   2.281   6.442 -1.7722 -0.8328  1.6195
  153SAPE    HY16949   7.205   2.178   6.332  0.1819 -1.1953 -0.1125
  153SAPE   O3116950   7.306   2.218   6.507 -0.2418  0.2069 -0.0890
  153SAPE   C3116951   7.324   2.344   6.570  0.4007 -0.6984  0.0024
  153SAPE   O3216952   7.253   2.440   6.546 -0.0349  0.0809 -0.2351
  153SAPE   C3216953   7.443   2.335   6.665  0.9360  0.1834 -0.1249
  153SAPE   H2X16954   7.527   2.363   6.597  0.0787  1.0834 -0.8500
  153SAPE   H2Y16955   7.447   2.226   6.682 -0.7061 -1.0640 -5.6471
  153SAPE   C2316956   7.060   2.141   6.904  0.7526  0.4256  0.4550
  153SAPE   H3R16957   7.007   2.175   6.995 -0.1109  1.3608 -0.3692
  153SAPE   H3S16958   7.055   2.233   6.841 -0.4340 -1.0557 -1.7802
  153SAPE   C2416959   7.211   2.115   6.928  0.0552  0.4751 -0.4633
  153SAPE   H4R16960   7.240   2.211   6.977 -0.8883  0.5438 -0.0153
  153SAPE   H4S16961   7.263   2.109   6.831 -0.8449  0.2521 -0.9491
  153SAPE   C2516962   7.240   2.003   7.024  1.0669  0.4003 -0.2440
  153SAPE   H5R16963   7.299   1.926   6.971  1.1972 -1.4262  2.3486
  153SAPE   C2616964   7.211   1.996   7.161 -0.3554  0.2133 -0.0178
  153SAPE   H6R16965   7.236   1.899   7.206  1.6447  0.0881 -1.3053
  153SAPE   C2716966   7.134   2.094   7.251 -0.3906  0.0046 -0.1880
  153SAPE   H7R16967   7.043   2.040   7.285  0.7295 -2.0294 -0.2688
  153SAPE   H7S16968   7.104   2.186   7.197 -2.1613 -0.0580  0.6179
  153SAPE   C2816969   7.203   2.142   7.373  0.4215  0.4416 -0.0860
  153SAPE   H8R16970   7.286   2.210   7.351  1.1879  0.4253  2.3526
  153SAPE   C2916971   7.181   2.112   7.504  0.3212 -0.6752 -0.0244
  153SAPE   H9R16972   7.257   2.151   7.573  1.4777 -0.5239 -1.3347
  153SAPE  C21016973   7.081   2.024   7.563  0.2338  0.0997  0.1407
  153SAPE  H10R16974   7.130   1.925   7.572 -0.0540 -0.0830 -0.2723
  153SAPE  H10S16975   6.999   2.017   7.489  0.6950  2.5971 -0.7305
  153SAPE  C21116976   7.022   2.074   7.697  0.3722  0.0170 -0.0739
  153SAPE  H11R16977   6.924   2.122   7.686  0.2697  0.0894  1.0237
  153SAPE  C21216978   7.081   2.063   7.819  0.3239  0.3668 -0.2831
  153SAPE  H12R16979   7.033   2.109   7.907  0.6215 -0.3850  0.2937
  153SAPE  C21316980   7.211   1.993   7.853  0.0756  0.6588 -0.2056
  153SAPE  H13R16981   7.246   2.028   7.953  2.2262  1.5445 -1.2088
  153SAPE  H13S16982   7.286   2.043   7.789 -0.8245  0.2623 -1.6120
  153SAPE  C21416983   7.214   1.840   7.843  0.0019 -0.2130 -0.4043
  153SAPE  H14R16984   7.248   1.809   7.743  0.9188 -1.0683  0.1452
  153SAPE  C21516985   7.187   1.750   7.942  1.0255  0.1558  0.4812
  153SAPE  H15R16986   7.227   1.648   7.925  0.5176 -0.3080  1.9491
  153SAPE  C21616987   7.153   1.789   8.079  0.4127  1.1118 -0.0688
  153SAPE  H16R16988   7.053   1.746   8.104 -0.6479  2.7966 -1.2043
  153SAPE  H16S16989   7.141   1.900   8.080 -0.1867  1.0532  0.0264
  153SAPE  C21716990   7.258   1.738   8.181 -0.5393  0.1993 -0.0462
  153SAPE  H17R16991   7.241   1.780   8.283 -1.1927  0.3465 -0.2120
  153SAPE  H17S16992   7.357   1.777   8.151 -0.0199 -0.4426  0.7868
  153SAPE  C21816993   7.248   1.581   8.184 -0.3900 -0.3954 -0.4807
  153SAPE  H18R16994   7.282   1.525   8.095  1.5310 -1.6071  0.9264
  153SAPE  H18S16995   7.144   1.555   8.213 -0.5698  0.7085 -0.0501
  153SAPE  C21916996   7.332   1.524   8.301  0.3790 -0.7225  0.2460
  153SAPE  H19R16997   7.317   1.591   8.388  3.7116  1.1605 -0.4728
  153SAPE  H19S16998   7.440   1.530   8.275 -0.1594  0.6272 -1.8700
  153SAPE  C22016999   7.301   1.381   8.344  0.6980  0.1121  0.4715
  153SAPE  H20R17000   7.349   1.348   8.439  1.8616 -1.4710 -0.6141
  153SAPE  H20S17001   7.353   1.312   8.274  2.1423  1.9138 -0.3186
  153SAPE  H20T17002   7.190   1.373   8.347  0.7609 -1.0316  0.2922
  153SAPE   C3317003   7.443   2.426   6.783 -0.3147 -0.3088 -0.8006
  153SAPE   H3X17004   7.346   2.424   6.838  0.4555 -0.0239  0.6022
  153SAPE   H3Y17005   7.467   2.528   6.746  0.8516  0.5667  2.0894
  153SAPE   C3417006   7.551   2.391   6.883  0.7501 -0.2147  0.0966
  153SAPE   H4X17007   7.647   2.431   6.842  0.4385  4.1706  3.0454
  153SAPE   H4Y17008   7.550   2.280   6.892 -0.0219 -0.2824 -0.7251
  153SAPE   C3517009   7.540   2.462   7.024 -0.1653 -0.2599 -0.1593
  153SAPE   H5X17010   7.436   2.441   7.058 -0.6804  2.8700  0.4810
  153SAPE   H5Y17011   7.566   2.570   7.020 -2.0956  0.2091 -2.1154
  153SAPE   C3617012   7.633   2.392   7.123  0.1210 -0.2200 -0.0305
  153SAPE   H6X17013   7.638   2.449   7.219 -0.6916 -2.4566  1.4017
  153SAPE   H6Y17014   7.737   2.398   7.082 -0.0682 -0.2997 -0.5248
  153SAPE   C3717015   7.588   2.247   7.153 -0.3180 -0.6168 -0.1360
  153SAPE   H7X17016   7.633   2.177   7.079  1.3119 -0.7491  0.9169
  153SAPE   H7Y17017   7.478   2.234   7.153 -0.3450 -0.4094  0.2598
  153SAPE   C3817018   7.645   2.198   7.291  0.3988  0.0201  0.3607
  153SAPE   H8X17019   7.749   2.237   7.287  1.1105 -1.7554  0.5859
  153SAPE   H8Y17020   7.640   2.088   7.297 -2.1869  0.1557  2.1069
  153SAPE   C3917021   7.571   2.254   7.419 -0.2136  0.1397 -0.1861
  153SAPE   H9X17022   7.464   2.229   7.427 -0.1889  0.2606  0.6592
  153SAPE   H9Y17023   7.584   2.364   7.420  0.9482  0.0183 -0.3372
  153SAPE  C31017024   7.633   2.191   7.545 -0.7961 -0.3956  0.5349
  153SAPE  H10X17025   7.742   2.183   7.525 -0.5199  0.5598  1.6291
  153SAPE  H10Y17026   7.606   2.084   7.555 -0.5809 -0.2556  3.2256
  153SAPE  C31117027   7.600   2.272   7.669  0.1596 -0.8391 -0.0315
  153SAPE  H11X17028   7.505   2.329   7.665 -0.0957 -1.2355  0.3354
  153SAPE  H11Y17029   7.675   2.354   7.675 -0.1787 -0.4768 -0.6051
  153SAPE  C31217030   7.618   2.198   7.800  0.3181 -0.2352  0.3285
  153SAPE  H12X17031   7.693   2.120   7.774 -1.6309 -1.2488 -2.8262
  153SAPE  H12Y17032   7.524   2.147   7.827 -1.1392  2.7501  1.3138
  153SAPE  C31317033   7.672   2.285   7.920  0.1195 -0.4232  1.0268
  153SAPE  H13X17034   7.622   2.384   7.909 -0.2111 -0.6203  0.7049
  153SAPE  H13Y17035   7.779   2.308   7.898  0.3241 -1.5172  0.8038
  153SAPE  C31417036   7.631   2.235   8.057 -0.0341  1.0071  0.0477
  153SAPE  H14X17037   7.525   2.265   8.076 -0.5969 -1.1206  0.5900
  153SAPE  H14Y17038   7.694   2.289   8.131 -3.1927  3.4521  1.1710
  153SAPE  C31517039   7.662   2.082   8.077  0.3662  0.4974  0.0182
  153SAPE  H15X17040   7.602   2.017   8.010 -0.7369 -1.4694  2.6862
  153SAPE  H15Y17041   7.629   2.045   8.177  0.9391  0.5202  0.2169
  153SAPE  C31617042   7.813   2.042   8.054  0.3995  0.0603  0.1625
  153SAPE  H16X17043   7.833   2.071   7.948 -1.3551  0.3470 -0.1214
  153SAPE  H16Y17044   7.824   1.932   8.068 -1.2793 -0.2996 -1.0708
  153SAPE  C31717045   7.911   2.121   8.154  0.7669  0.2631 -0.1769
  153SAPE  H17X17046   7.872   2.111   8.257  0.3724  2.2508 -0.0950
  153SAPE  H17Y17047   7.900   2.229   8.130 -0.4570  0.3460  0.6676
  153SAPE  C31817048   8.059   2.071   8.145 -0.0939 -0.0493 -0.3775
  153SAPE  H18X17049   8.124   2.124   8.218  0.3361  1.6410 -1.8936
  153SAPE  H18Y17050   8.103   2.086   8.044 -1.8720 -0.3289 -1.2446
  153SAPE  H18Z17051   8.080   1.970   8.185  2.5642  0.4156 -0.4347
  154SAPE     N17052   4.284   2.204   6.111  0.1155  0.2688  0.0205
  154SAPE   HN117053   4.233   2.176   6.197 -1.8038  0.5209 -0.9821
  154SAPE   HN217054   4.334   2.291   6.141 -0.8020  0.0458  2.4560
  154SAPE   HN317055   4.214   2.229   6.038 -0.8779  1.9282  1.4715
  154SAPE   C1217056   4.365   2.088   6.073 -0.7168 -0.4412 -0.9148
  154SAPE  H12A17057   4.425   2.113   5.983  0.4702  0.1091 -0.0019
  154SAPE  H12B17058   4.289   2.013   6.043  0.0614 -0.9922 -1.5344
  154SAPE   C1117059   4.448   2.046   6.203  0.4028  0.2304  0.0388
  154SAPE  H11A17060   4.370   2.026   6.279  0.4949  1.2966  0.4360
  154SAPE  H11B17061   4.530   2.117   6.229  2.4316 -1.9322 -0.0816
  154SAPE     P17062   4.604   1.854   6.278 -0.0046 -0.3175 -0.0836
  154SAPE   O1317063   4.610   1.711   6.248  0.4964  0.1164 -0.1908
  154SAPE   O1417064   4.733   1.924   6.279 -0.2045 -0.3422 -0.5604
  154SAPE   O1217065   4.511   1.921   6.166 -0.4896  0.2501 -0.4180
  154SAPE   O1117066   4.521   1.873   6.409 -0.2645 -0.2255  0.0630
  154SAPE    C117067   4.554   1.958   6.519 -0.3466 -0.1250  0.2270
  154SAPE    HA17068   4.597   2.056   6.490 -0.9413  0.0356 -0.1274
  154SAPE    HB17069   4.463   1.988   6.575  1.2093  0.5025  2.5754
  154SAPE    C217070   4.653   1.893   6.618 -1.1096 -0.0802  0.0887
  154SAPE    HS17071   4.753   1.893   6.570 -0.3278  0.3149  1.6562
  154SAPE   O2117072   4.603   1.764   6.655 -0.1000  0.1405  0.0761
  154SAPE   C2117073   4.691   1.671   6.668 -0.1245 -0.4380 -1.1709
  154SAPE   O2217074   4.793   1.658   6.606 -0.2766  0.3762 -0.1800
  154SAPE   C2217075   4.624   1.578   6.767 -0.3661 -0.5068  0.4098
  154SAPE   H2R17076   4.591   1.628   6.860  1.5936 -0.0314  0.9111
  154SAPE   H2S17077   4.546   1.520   6.714 -0.9081  1.2748 -0.8590
  154SAPE    C317078   4.678   1.982   6.740 -0.7122  0.2101  0.9208
  154SAPE    HX17079   4.578   2.005   6.784 -0.4519  0.7359  1.2468
  154SAPE    HY17080   4.713   2.080   6.703 -0.9339 -0.7853 -2.2184
  154SAPE   O3117081   4.763   1.922   6.842  0.0079 -0.2552  0.0934
  154SAPE   C3117082   4.702   1.886   6.951  0.4632  0.3515  0.0550
  154SAPE   O3217083   4.585   1.879   6.981  0.2214 -1.0904  0.2562
  154SAPE   C3217084   4.809   1.835   7.038  0.3425 -0.0524 -0.5210
  154SAPE   H2X17085   4.875   1.919   7.066 -0.3461  0.9438 -1.7653
  154SAPE   H2Y17086   4.860   1.752   6.983 -0.0492 -0.7026  0.0750
  154SAPE   C2317087   4.723   1.479   6.819  0.2022 -0.0093 -0.2452
  154SAPE   H3R17088   4.786   1.518   6.902 -1.1496 -0.2362  0.9137
  154SAPE   H3S17089   4.784   1.440   6.734  1.8253  0.3020  0.7378
  154SAPE   C2417090   4.662   1.345   6.863 -1.2729  0.4497  0.1253
  154SAPE   H4R17091   4.738   1.264   6.862 -2.2239 -0.4924  1.0176
  154SAPE   H4S17092   4.589   1.304   6.789 -1.1313  0.2887  0.0758
  154SAPE   C2517093   4.579   1.356   6.985 -0.3911 -0.0141  0.2225
  154SAPE   H5R17094   4.522   1.448   7.000  1.5712  1.5162 -1.2192
  154SAPE   C2617095   4.576   1.256   7.071 -0.0076  0.5478  0.0332
  154SAPE   H6R17096   4.505   1.248   7.155 -0.0479  1.9288  0.1615
  154SAPE   C2717097   4.668   1.132   7.049 -0.0401 -0.2053 -0.1029
  154SAPE   H7R17098   4.689   1.072   7.140  1.0629 -0.1509 -0.3031
  154SAPE   H7S17099   4.769   1.172   7.024  0.1649 -0.4633  0.3028
  154SAPE   C2817100   4.619   1.025   6.952 -0.0971  0.8013 -0.1165
  154SAPE   H8R17101   4.551   1.055   6.871 -1.0444  1.4242  0.8787
  154SAPE   C2917102   4.648   0.891   6.948  0.4835 -0.6432 -0.7066
  154SAPE   H9R17103   4.605   0.827   6.869  1.1147 -1.1918 -0.6176
  154SAPE  C21017104   4.731   0.823   7.060  0.4201  0.3141  0.1632
  154SAPE  H10R17105   4.814   0.886   7.096  0.3193  1.7986 -1.9651
  154SAPE  H10S17106   4.783   0.747   6.998 -0.8484  1.0664 -1.9469
  154SAPE  C21117107   4.650   0.760   7.176  0.0832 -0.7564 -0.5372
  154SAPE  H11R17108   4.615   0.830   7.253  1.3848 -1.5889  0.8595
  154SAPE  C21217109   4.618   0.629   7.187 -0.2545 -0.3871  0.8412
  154SAPE  H12R17110   4.584   0.600   7.288 -1.7454 -1.2312  0.1397
  154SAPE  C21317111   4.649   0.516   7.098  0.7156 -0.1695  0.3778
  154SAPE  H13R17112   4.753   0.519   7.060 -0.1931  2.0744 -2.2918
  154SAPE  H13S17113   4.599   0.545   7.003 -0.7183  3.1149  1.9452
  154SAPE  C21417114   4.594   0.384   7.147  0.0179 -0.8939 -0.8278
  154SAPE  H14R17115   4.493   0.387   7.191  0.4253 -0.7394  0.1312
  154SAPE  C21517116   4.652   0.266   7.168 -0.2180 -0.2957  0.2454
  154SAPE  H15R17117   4.594   0.183   7.211 -1.3482  0.0714 -0.5261
  154SAPE  C21617118   4.796   0.237   7.121  0.0778 -0.3725 -0.7448
  154SAPE  H16R17119   4.856   0.187   7.200  2.0491  0.7684 -1.4644
  154SAPE  H16S17120   4.850   0.329   7.092  0.3864 -0.7178 -1.2838
  154SAPE  C21717121   4.817   0.151   6.995 -0.5930 -0.4149 -0.2980
  154SAPE  H17R17122   4.754   0.199   6.916  0.2375 -0.3354 -0.9283
  154SAPE  H17S17123   4.785   0.046   7.008  0.5911 -0.9405 -1.3901
  154SAPE  C21817124   4.958   0.159   6.930  0.1851  0.1356  0.3146
  154SAPE  H18R17125   5.023   0.102   7.001 -1.4050  1.7752  3.3108
  154SAPE  H18S17126   4.987   0.266   6.928 -1.2101  0.5070 -1.3270
  154SAPE  C21917127   4.965   0.104   6.792 -0.0432  0.7046 -0.5276
  154SAPE  H19R17128   4.885   0.134   6.720 -1.6811 -0.1065  0.9012
  154SAPE  H19S17129   4.960  -0.005   6.809  3.5047  0.9456  3.6737
  154SAPE  C22017130   5.108   0.115   6.723 -0.1936  0.0325 -0.5021
  154SAPE  H20R17131   5.121   0.056   6.630 -0.9489  3.4173 -2.9702
  154SAPE  H20S17132   5.174   0.082   6.806 -0.5409 -2.5270 -1.1529
  154SAPE  H20T17133   5.127   0.221   6.693 -0.1826  0.0278 -0.5109
  154SAPE   C3317134   4.755   1.782   7.176 -0.3389  0.3484 -0.2290
  154SAPE   H3X17135   4.654   1.736   7.175  0.1360 -1.0970  3.1642
  154SAPE   H3Y17136   4.727   1.869   7.238  0.2646  0.3973 -0.0145
  154SAPE   C3417137   4.854   1.686   7.252  0.3652 -0.2178  0.2855
  154SAPE   H4X17138   4.918   1.649   7.169 -1.8563  0.3294 -1.7768
  154SAPE   H4Y17139   4.799   1.601   7.298  0.6773 -1.7638 -2.0217
  154SAPE   C3517140   4.925   1.759   7.363 -0.4150  0.4491 -0.7951
  154SAPE   H5X17141   4.969   1.855   7.330  2.2965 -0.5545 -0.3714
  154SAPE   H5Y17142   5.013   1.701   7.400 -1.1351  1.3023  2.6882
  154SAPE   C3617143   4.848   1.792   7.494  0.0295  0.5059  0.4213
  154SAPE   H6X17144   4.777   1.708   7.515  0.3535  0.2069  0.3348
  154SAPE   H6Y17145   4.777   1.874   7.471  0.1484  0.8207  1.1478
  154SAPE   C3717146   4.951   1.829   7.598 -0.7006 -0.7937 -0.5074
  154SAPE   H7X17147   5.016   1.912   7.564 -2.4340  1.0968  0.6053
  154SAPE   H7Y17148   5.024   1.746   7.611  1.0539  0.2896 -2.7913
  154SAPE   C3817149   4.881   1.861   7.732 -0.2419 -0.0626 -0.6206
  154SAPE   H8X17150   4.818   1.776   7.768 -0.9140  0.9537  0.6875
  154SAPE   H8Y17151   4.811   1.946   7.717 -1.4981 -0.9711 -0.0756
  154SAPE   C3917152   4.982   1.890   7.845 -1.0581  0.3871 -0.1086
  154SAPE   H9X17153   5.053   1.971   7.820  0.0377 -0.1331  1.1954
  154SAPE   H9Y17154   5.051   1.803   7.849 -0.3789  0.8162 -1.9022
  154SAPE  C31017155   4.916   1.921   7.975 -0.2069  0.1323 -0.3921
  154SAPE  H10X17156   4.840   1.840   7.985  1.1120 -1.1273 -0.1728
  154SAPE  H10Y17157   4.860   2.017   7.974  0.3503  0.4534 -0.9660
  154SAPE  C31117158   5.015   1.927   8.095  0.6215  0.2662  0.0529
  154SAPE  H11X17159   4.963   1.961   8.187  1.4626 -0.2284  0.7247
  154SAPE  H11Y17160   5.087   2.008   8.071  1.0852 -0.0431  0.3820
  154SAPE  C31217161   5.093   1.792   8.127  0.1830 -0.0644 -0.7727
  154SAPE  H12X17162   5.153   1.769   8.037 -1.9405  0.1715 -2.3037
  154SAPE  H12Y17163   5.009   1.719   8.126  1.2494 -1.4461  1.6844
  154SAPE  C31317164   5.171   1.798   8.258  0.5764 -0.1674  0.0198
  154SAPE  H13X17165   5.107   1.834   8.341  0.3919 -2.4317  0.9465
  154SAPE  H13Y17166   5.241   1.884   8.251 -0.6124  0.7483 -1.0410
  154SAPE  C31417167   5.250   1.664   8.290  1.0351 -0.3232  0.2670
  154SAPE  H14X17168   5.197   1.568   8.270 -1.2782  1.0628 -0.7377
  154SAPE  H14Y17169   5.272   1.662   8.399  0.1254  0.6389  0.4858
  154SAPE  C31517170   5.378   1.647   8.206  0.1156 -0.4228 -0.1224
  154SAPE  H15X17171   5.465   1.647   8.275  0.1162 -1.9610 -0.0937
  154SAPE  H15Y17172   5.382   1.739   8.143  1.0864 -0.2212  0.2091
  154SAPE  C31617173   5.377   1.522   8.122 -0.1280 -0.0740  0.0478
  154SAPE  H16X17174   5.312   1.528   8.032  1.1303 -0.6677 -0.9280
  154SAPE  H16Y17175   5.338   1.441   8.188 -0.3757 -1.0858 -1.2872
  154SAPE  C31717176   5.512   1.476   8.067 -0.2075 -0.3907 -0.3881
  154SAPE  H17X17177   5.588   1.499   8.144  0.3590 -1.5274 -0.5815
  154SAPE  H17Y17178   5.538   1.523   7.970  1.8726  3.5798  1.8377
  154SAPE  C31817179   5.512   1.326   8.068 -0.0170  0.5056 -0.4336
  154SAPE  H18X17180   5.604   1.291   8.018  0.5568  1.0922  0.1916
  154SAPE  H18Y17181   5.426   1.276   8.018 -0.0702  0.9546 -0.7913
  154SAPE  H18Z17182   5.523   1.281   8.169  1.3755  0.6551 -0.5012
  155SAPE     N17183   4.294   1.780   6.515 -0.6739 -0.0208  0.1110
  155SAPE   HN117184   4.378   1.840   6.500  0.1316 -1.6018 -2.2380
  155SAPE   HN217185   4.309   1.752   6.614 -0.2427  1.3031  0.4392
  155SAPE   HN317186   4.312   1.706   6.445  1.7503 -1.9025  2.4809
  155SAPE   C1217187   4.160   1.843   6.492  0.1060 -1.2612 -0.1291
  155SAPE  H12A17188   4.076   1.773   6.510 -1.4304 -0.2323 -2.7120
  155SAPE  H12B17189   4.152   1.879   6.387 -0.8501 -1.7520 -0.2303
  155SAPE   C1117190   4.144   1.971   6.584 -0.3455 -0.6343 -0.6037
  155SAPE  H11A17191   4.153   1.940   6.691  1.0100 -1.1427 -0.8347
  155SAPE  H11B17192   4.040   2.005   6.571 -0.7118 -0.7226  1.7093
  155SAPE     P17193   4.217   2.195   6.475  0.5650 -0.1354 -0.1785
  155SAPE   O1317194   4.336   2.278   6.484 -0.0462 -0.2082 -0.6723
  155SAPE   O1417195   4.158   2.167   6.346  0.1574  0.0658 -0.5231
  155SAPE   O1217196   4.248   2.068   6.560 -0.9801  0.5440  0.9871
  155SAPE   O1117197   4.107   2.259   6.572 -0.2896  0.9263  0.5773
  155SAPE    C117198   4.130   2.354   6.670 -0.2832 -0.0988  0.4233
  155SAPE    HA17199   4.188   2.441   6.630  0.3754 -0.0954  1.3649
  155SAPE    HB17200   4.033   2.402   6.694 -0.5081 -1.7074  3.0035
  155SAPE    C217201   4.195   2.294   6.795 -0.4950  0.0548 -0.6166
  155SAPE    HS17202   4.279   2.223   6.780 -2.0367 -2.0980  0.2632
  155SAPE   O2117203   4.093   2.229   6.876 -0.3309 -0.0127  0.8218
  155SAPE   C2117204   4.104   2.112   6.929 -0.3569 -0.2796 -0.0418
  155SAPE   O2217205   4.208   2.050   6.940 -0.3888 -0.1576  0.2816
  155SAPE   C2217206   3.967   2.054   6.969  0.2436  0.2923 -0.0777
  155SAPE   H2R17207   3.885   2.096   6.907  0.3810 -0.7942 -1.0366
  155SAPE   H2S17208   3.969   1.948   6.935  1.6617  0.2809 -0.0171
  155SAPE    C317209   4.250   2.417   6.879  0.7225 -0.3935  0.0218
  155SAPE    HX17210   4.158   2.479   6.891  0.8492  0.9214 -4.2992
  155SAPE    HY17211   4.312   2.479   6.812  0.3433  0.1181  0.1326
  155SAPE   O3117212   4.317   2.387   7.000 -0.4637 -0.2546 -0.2667
  155SAPE   C3117213   4.430   2.316   6.989 -0.1445  0.4930 -0.3562
  155SAPE   O3217214   4.493   2.300   6.884 -0.2756 -0.2673 -0.2870
  155SAPE   C3217215   4.482   2.269   7.126  0.9118  0.5544  0.1703
  155SAPE   H2X17216   4.489   2.360   7.188 -1.4163  3.0538 -2.8777
  155SAPE   H2Y17217   4.588   2.247   7.104  0.8415 -0.7067  0.9950
  155SAPE   C2317218   3.938   2.065   7.121 -0.0752 -0.9428  0.2902
  155SAPE   H3R17219   3.933   2.175   7.138 -1.1116 -0.7288 -1.2086
  155SAPE   H3S17220   4.028   2.034   7.178 -0.4721 -1.5158  0.6233
  155SAPE   C2417221   3.813   1.989   7.178 -0.3040 -0.5189 -0.4126
  155SAPE   H4R17222   3.815   2.013   7.286 -2.4312  2.5563 -0.9336
  155SAPE   H4S17223   3.815   1.882   7.147  0.6291 -0.1373 -1.7716
  155SAPE   C2517224   3.695   2.069   7.123  0.2237  0.6713  0.0838
  155SAPE   H5R17225   3.686   2.060   7.014 -0.2832 -0.7391  0.2189
  155SAPE   C2617226   3.605   2.143   7.188 -0.4885 -0.2876  0.5127
  155SAPE   H6R17227   3.523   2.177   7.123 -0.8104  0.4841  1.3085
  155SAPE   C2717228   3.605   2.173   7.340  0.3642  0.2726 -0.4215
  155SAPE   H7R17229   3.672   2.109   7.401  0.0138 -1.3950 -1.6879
  155SAPE   H7S17230   3.504   2.152   7.382  0.3056  0.6830 -0.3574
  155SAPE   C2817231   3.620   2.314   7.374 -0.1819 -0.4008  0.5007
  155SAPE   H8R17232   3.641   2.380   7.289 -3.0265  0.7730  0.6105
  155SAPE   C2917233   3.613   2.378   7.498 -0.0172  0.4104 -0.5760
  155SAPE   H9R17234   3.614   2.487   7.505 -1.5688  0.4910 -1.2122
  155SAPE  C21017235   3.595   2.316   7.634  0.2426 -0.8201  1.0709
  155SAPE  H10R17236   3.573   2.207   7.637  1.1897 -1.1225 -0.9977
  155SAPE  H10S17237   3.505   2.368   7.672  1.0224  2.1600 -0.8536
  155SAPE  C21117238   3.702   2.342   7.733  0.1911 -0.1111 -0.4193
  155SAPE  H11R17239   3.806   2.364   7.705  0.6443 -1.2953  0.2752
  155SAPE  C21217240   3.689   2.334   7.869 -0.3104 -0.2943 -0.0047
  155SAPE  H12R17241   3.776   2.365   7.929  1.2373  2.4036 -3.2998
  155SAPE  C21317242   3.561   2.305   7.950 -0.4200  0.0244 -0.3456
  155SAPE  H13R17243   3.572   2.206   7.999  1.3143  0.8219  0.9921
  155SAPE  H13S17244   3.471   2.296   7.885  1.3974  0.9272 -3.2293
  155SAPE  C21417245   3.530   2.417   8.048  0.7540  0.0227  0.1241
  155SAPE  H14R17246   3.462   2.488   7.998  1.2959 -2.0556 -3.9850
  155SAPE  C21517247   3.580   2.451   8.164 -0.6252 -0.6546  0.1339
  155SAPE  H15R17248   3.541   2.542   8.211 -0.3341  0.3912 -1.5435
  155SAPE  C21617249   3.688   2.381   8.233  0.1186 -0.1691 -0.1690
  155SAPE  H16R17250   3.779   2.440   8.208 -2.1614  2.5697 -2.8894
  155SAPE  H16S17251   3.716   2.285   8.185  0.1165 -0.0917 -0.3302
  155SAPE  C21717252   3.678   2.357   8.387  0.0194 -0.4057 -0.2809
  155SAPE  H17R17253   3.593   2.290   8.415  0.2986 -0.7179 -0.1754
  155SAPE  H17S17254   3.653   2.449   8.443 -0.7821 -0.8458  0.1184
  155SAPE  C21817255   3.799   2.280   8.445  0.0497 -0.0496  0.6848
  155SAPE  H18R17256   3.885   2.348   8.432  0.4386 -0.9028 -1.8238
  155SAPE  H18S17257   3.826   2.189   8.387  0.3239  0.6454 -0.3079
  155SAPE  C21917258   3.783   2.258   8.604 -0.1850 -0.8597 -0.4989
  155SAPE  H19R17259   3.758   2.356   8.649  1.2332 -1.1184  0.9459
  155SAPE  H19S17260   3.882   2.222   8.639  0.9458  0.3164 -2.3110
  155SAPE  C22017261   3.674   2.162   8.637 -0.4557 -0.0032 -0.1493
  155SAPE  H20R17262   3.583   2.202   8.587  0.3102  1.9491 -0.0630
  155SAPE  H20S17263   3.657   2.148   8.746 -2.2902  1.6067 -0.1774
  155SAPE  H20T17264   3.700   2.066   8.586 -2.9093 -1.7325  1.5737
  155SAPE   C3317265   4.410   2.145   7.184  1.0305  0.3139 -0.6108
  155SAPE   H3X17266   4.378   2.078   7.101 -0.9481  1.4697 -0.8265
  155SAPE   H3Y17267   4.314   2.170   7.233  0.5874 -1.1185 -0.6887
  155SAPE   C3417268   4.505   2.060   7.276  0.3525  0.4759  0.3242
  155SAPE   H4X17269   4.548   2.126   7.354  1.2260  2.5735 -1.7960
  155SAPE   H4Y17270   4.586   2.027   7.208 -0.7142 -0.6517 -0.4481
  155SAPE   C3517271   4.436   1.939   7.335 -0.2198 -0.3659  0.5139
  155SAPE   H5X17272   4.510   1.872   7.384  0.7905  0.1148 -0.3301
  155SAPE   H5Y17273   4.405   1.869   7.255  0.5243  1.2897 -1.2987
  155SAPE   C3617274   4.317   1.966   7.431 -0.5986 -0.6000  0.7188
  155SAPE   H6X17275   4.248   2.031   7.373 -0.3583 -1.5251 -0.6512
  155SAPE   H6Y17276   4.364   2.017   7.518  0.6133  0.5471 -0.5586
  155SAPE   C3717277   4.251   1.838   7.466  0.2705  1.2276 -0.7133
  155SAPE   H7X17278   4.329   1.767   7.501  0.5005  2.3756  1.2591
  155SAPE   H7Y17279   4.210   1.791   7.374  0.9563  0.0484 -0.4330
  155SAPE   C3817280   4.145   1.851   7.578 -0.6272 -0.5172  0.5969
  155SAPE   H8X17281   4.192   1.900   7.666 -1.6150  0.5421  0.5626
  155SAPE   H8Y17282   4.122   1.744   7.599  0.1603 -1.3428 -2.2913
  155SAPE   C3917283   4.015   1.922   7.534 -0.2093  0.2427  0.5733
  155SAPE   H9X17284   3.997   1.880   7.433 -2.1084  2.8808 -0.3038
  155SAPE   H9Y17285   4.038   2.031   7.529  1.2003 -0.0447  0.2217
  155SAPE  C31017286   3.889   1.899   7.623  0.5485 -0.8041 -0.6474
  155SAPE  H10X17287   3.877   1.789   7.633 -0.6792 -1.0316 -3.5665
  155SAPE  H10Y17288   3.803   1.932   7.561 -0.3728  0.1350  1.0770
  155SAPE  C31117289   3.884   1.974   7.757 -0.4185  0.3392 -0.7604
  155SAPE  H11X17290   3.891   2.084   7.745  0.4278  0.2019 -1.6482
  155SAPE  H11Y17291   3.976   1.941   7.810 -1.6435 -0.3148  1.0646
  155SAPE  C31217292   3.764   1.935   7.843 -0.1707 -0.2656  0.4031
  155SAPE  H12X17293   3.769   1.824   7.837  1.0812 -0.2298  0.5368
  155SAPE  H12Y17294   3.669   1.967   7.795 -0.0380  0.3016  0.5072
  155SAPE  C31317295   3.771   1.988   7.981 -0.7294  0.5941 -0.1748
  155SAPE  H13X17296   3.678   1.967   8.038  0.1613 -0.1281  1.0469
  155SAPE  H13Y17297   3.810   2.092   7.988  1.6627 -0.2625  0.0181
  155SAPE  C31417298   3.882   1.916   8.067 -0.1535  0.3131  0.0928
  155SAPE  H14X17299   3.981   1.939   8.022  0.3283  0.8290  1.3764
  155SAPE  H14Y17300   3.861   1.807   8.075 -3.5060  0.8933  0.8603
  155SAPE  C31517301   3.878   1.970   8.210 -0.7972 -0.7917 -0.1892
  155SAPE  H15X17302   3.782   1.944   8.260 -0.8601  0.8424  0.5799
  155SAPE  H15Y17303   3.894   2.078   8.191  0.8505 -0.6547  1.6964
  155SAPE  C31617304   3.995   1.920   8.298  0.2751  0.2033  0.5052
  155SAPE  H16X17305   3.993   1.950   8.406  0.5284 -0.7801  0.7903
  155SAPE  H16Y17306   4.085   1.969   8.258  0.2568  0.0851  0.3217
  155SAPE  C31717307   4.032   1.768   8.290 -0.1364 -0.3957 -0.1155
  155SAPE  H17X17308   4.078   1.752   8.190 -1.0910  3.9005 -1.4810
  155SAPE  H17Y17309   3.939   1.706   8.295 -0.7943  0.5800  0.1646
  155SAPE  C31817310   4.122   1.715   8.402  0.0621  0.7093  0.2285
  155SAPE  H18X17311   4.230   1.729   8.381  0.1269  1.7413  1.1543
  155SAPE  H18Y17312   4.116   1.604   8.411  0.3370  0.6986  0.2622
  155SAPE  H18Z17313   4.103   1.762   8.501  0.3083 -3.9050  2.7439
  156SAPE     N17314   2.101   5.071   6.204 -0.3862 -0.2274  0.2916
  156SAPE   HN117315   2.002   5.090   6.227  0.3846  4.2604  0.7656
  156SAPE   HN217316   2.158   5.063   6.291 -1.0320 -0.3466  0.7076
  156SAPE   HN317317   2.112   5.162   6.155 -1.2055  0.6010  1.6087
  156SAPE   C1217318   2.117   4.952   6.113  0.7948  0.5818  0.1751
  156SAPE  H12A17319   2.222   4.934   6.079  1.2613  1.9242  0.8464
  156SAPE  H12B17320   2.054   4.967   6.023  0.3118  0.3725  0.4744
  156SAPE   C1117321   2.084   4.816   6.177  0.7087  0.2441 -0.6352
  156SAPE  H11A17322   2.099   4.740   6.097  1.0505 -0.3570 -0.0049
  156SAPE  H11B17323   1.977   4.815   6.207  0.5114  2.0010 -1.1298
  156SAPE     P17324   2.134   4.802   6.439 -0.0576 -0.0708 -0.1242
  156SAPE   O1317325   1.985   4.803   6.455 -0.4019  0.2193  0.0480
  156SAPE   O1417326   2.206   4.715   6.533 -0.0270  0.2014  0.6844
  156SAPE   O1217327   2.169   4.779   6.293  0.1032 -0.1930 -0.2365
  156SAPE   O1117328   2.191   4.951   6.450  0.3399 -0.0416 -0.0358
  156SAPE    C117329   2.295   4.978   6.541 -0.2748 -0.6258 -0.4616
  156SAPE    HA17330   2.376   4.903   6.528 -0.0078 -0.2677 -0.8935
  156SAPE    HB17331   2.345   5.077   6.532  0.3403 -0.8799  0.0722
  156SAPE    C217332   2.244   4.977   6.690  0.2084 -0.3242  0.1696
  156SAPE    HS17333   2.224   4.869   6.711  3.6846 -0.7157  2.3256
  156SAPE   O2117334   2.118   5.045   6.709 -0.4715  0.1455  0.0027
  156SAPE   C2117335   2.099   5.162   6.668 -0.2003  0.3247  0.5981
  156SAPE   O2217336   2.182   5.238   6.620 -0.0249 -0.3108  0.1585
  156SAPE   C2217337   1.952   5.192   6.674 -0.0775 -0.3155  0.0170
  156SAPE   H2R17338   1.909   5.206   6.573 -0.7622 -6.5983 -0.9839
  156SAPE   H2S17339   1.897   5.105   6.717  0.3870 -0.3500  0.5613
  156SAPE    C317340   2.349   5.017   6.807 -1.0632  0.4191 -0.0057
  156SAPE    HX17341   2.385   5.122   6.800  0.2848 -0.0106  0.3281
  156SAPE    HY17342   2.430   4.950   6.774 -2.2942 -0.0638 -2.2673
  156SAPE   O3117343   2.302   4.991   6.944 -0.5471  0.6414  0.2067
  156SAPE   C3117344   2.319   4.867   6.987  0.1107 -0.5590  0.1078
  156SAPE   O3217345   2.375   4.777   6.923  0.2451 -0.0208 -0.0213
  156SAPE   C3217346   2.249   4.848   7.120  0.2356  0.2235  0.2020
  156SAPE   H2X17347   2.220   4.741   7.132  0.7460 -0.1784 -1.8517
  156SAPE   H2Y17348   2.155   4.906   7.116  0.2526  0.2271 -0.1477
  156SAPE   C2317349   1.924   5.307   6.771  0.3828 -0.7836  0.2063
  156SAPE   H3R17350   1.980   5.397   6.739  2.0295 -1.8105  0.0831
  156SAPE   H3S17351   1.968   5.294   6.871  1.3117  1.8514  0.2192
  156SAPE   C2417352   1.775   5.345   6.773  0.3226 -0.0793  0.1117
  156SAPE   H4R17353   1.717   5.251   6.760 -0.8325  0.7777 -1.1943
  156SAPE   H4S17354   1.749   5.405   6.683  0.0948  1.7710  1.3643
  156SAPE   C2517355   1.730   5.416   6.897  0.3851  0.1334 -0.0595
  156SAPE   H5R17356   1.786   5.510   6.910 -0.3649  0.5496  0.1731
  156SAPE   C2617357   1.634   5.382   6.986 -0.5615 -0.2474  0.1683
  156SAPE   H6R17358   1.620   5.455   7.066  2.7957  1.0512 -0.2685
  156SAPE   C2717359   1.545   5.260   6.971  0.5487 -0.5670 -0.0376
  156SAPE   H7R17360   1.601   5.164   6.966 -1.4131 -1.9166  1.8322
  156SAPE   H7S17361   1.499   5.268   6.870 -0.4165  0.2200  0.4450
  156SAPE   C2817362   1.429   5.259   7.071  0.1633  0.2455 -0.3454
  156SAPE   H8R17363   1.343   5.328   7.072 -1.4114 -1.5818 -1.7906
  156SAPE   C2917364   1.432   5.177   7.179 -0.0975  0.7031 -0.1700
  156SAPE   H9R17365   1.340   5.171   7.240 -1.0959 -1.0297 -1.7541
  156SAPE  C21017366   1.531   5.078   7.215  0.0052 -0.5082 -0.0051
  156SAPE  H10R17367   1.609   5.131   7.275 -1.3338  0.1455  1.2051
  156SAPE  H10S17368   1.592   5.048   7.126 -0.5368  2.2377 -1.4112
  156SAPE  C21117369   1.475   4.957   7.285  0.3959  0.2253 -0.7492
  156SAPE  H11R17370   1.396   4.906   7.228  0.6541  0.5158 -1.3857
  156SAPE  C21217371   1.488   4.918   7.415  0.0116  0.3354  0.3823
  156SAPE  H12R17372   1.421   4.842   7.458 -0.9493  2.6034  3.3045
  156SAPE  C21317373   1.561   4.987   7.527 -0.2312  0.0257 -0.0433
  156SAPE  H13R17374   1.627   5.063   7.478 -2.5998  1.6361 -0.9285
  156SAPE  H13S17375   1.633   4.908   7.555  0.5144 -0.0391 -1.9689
  156SAPE  C21417376   1.480   5.059   7.627  0.0479  0.1856 -0.1219
  156SAPE  H14R17377   1.406   5.133   7.594 -1.8292 -1.0319  1.1703
  156SAPE  C21517378   1.497   5.055   7.758  0.1323 -0.2939 -0.3086
  156SAPE  H15R17379   1.433   5.117   7.823 -2.2232  0.5032 -3.1936
  156SAPE  C21617380   1.585   4.976   7.847 -0.0820  0.3156 -0.4654
  156SAPE  H16R17381   1.655   5.038   7.907  0.3347  1.7492 -2.3188
  156SAPE  H16S17382   1.648   4.911   7.782  0.0161  0.3970 -0.4526
  156SAPE  C21717383   1.521   4.893   7.960 -0.2435 -0.4587 -0.2603
  156SAPE  H17R17384   1.599   4.819   7.987 -1.4566 -1.5092  0.4646
  156SAPE  H17S17385   1.440   4.825   7.927 -1.2484  0.3938  0.3664
  156SAPE  C21817386   1.480   4.962   8.094 -0.3967 -0.2029  0.4745
  156SAPE  H18R17387   1.397   4.896   8.130  2.2165 -2.2712  3.2074
  156SAPE  H18S17388   1.448   5.067   8.078 -1.0550 -0.3659  0.6702
  156SAPE  C21917389   1.578   4.956   8.213  0.0073  0.4279 -0.5087
  156SAPE  H19R17390   1.673   4.994   8.169  0.0123 -1.0640 -1.8704
  156SAPE  H19S17391   1.594   4.852   8.248 -2.2435  0.7151  1.5920
  156SAPE  C22017392   1.527   5.030   8.338  0.1746 -0.0463  0.5531
  156SAPE  H20R17393   1.610   5.044   8.410 -0.1936 -1.8768  1.3978
  156SAPE  H20S17394   1.443   4.971   8.382 -0.3352 -0.7538 -1.2624
  156SAPE  H20T17395   1.484   5.126   8.301  0.1529 -1.0885 -2.4308
  156SAPE   C3317396   2.347   4.892   7.227  0.1540  0.2094 -0.0961
  156SAPE   H3X17397   2.294   4.908   7.324  3.0819  0.3123  1.6457
  156SAPE   H3Y17398   2.385   4.991   7.194 -1.7770  0.4376 -1.7985
  156SAPE   C3417399   2.465   4.795   7.248  0.1168  0.2403  0.1469
  156SAPE   H4X17400   2.516   4.818   7.344  1.5873 -1.0176 -0.2850
  156SAPE   H4Y17401   2.537   4.831   7.171  1.4128  0.0607  1.2229
  156SAPE   C3517402   2.445   4.640   7.266 -0.3362  0.1842  0.1517
  156SAPE   H5X17403   2.547   4.595   7.262 -0.2897  0.3791 -1.3730
  156SAPE   H5Y17404   2.395   4.591   7.180 -1.4197 -0.4752  1.1365
  156SAPE   C3617405   2.362   4.607   7.391 -0.3009  0.9728 -0.1278
  156SAPE   H6X17406   2.363   4.496   7.398 -0.1682  1.0012  0.3159
  156SAPE   H6Y17407   2.256   4.636   7.381 -0.6407  0.9071  2.6638
  156SAPE   C3717408   2.395   4.677   7.522 -0.5787  0.4132 -1.4105
  156SAPE   H7X17409   2.379   4.787   7.515  1.5448  0.8597  0.0462
  156SAPE   H7Y17410   2.503   4.664   7.544 -1.3919 -1.8243  2.0276
  156SAPE   C3817411   2.327   4.606   7.640  0.6076 -0.1448  0.0056
  156SAPE   H8X17412   2.348   4.498   7.632 -0.3534 -0.2414 -1.4859
  156SAPE   H8Y17413   2.219   4.626   7.623  0.2875 -0.2577  1.7539
  156SAPE   C3917414   2.374   4.663   7.774 -0.0417  0.2249  0.4426
  156SAPE   H9X17415   2.365   4.773   7.780 -0.8245  0.1258  1.2535
  156SAPE   H9Y17416   2.478   4.632   7.798 -0.0044 -2.2201 -2.3016
  156SAPE  C31017417   2.290   4.589   7.882  0.1760 -0.6118 -0.4447
  156SAPE  H10X17418   2.286   4.479   7.870  0.5276 -0.5129 -1.6899
  156SAPE  H10Y17419   2.188   4.628   7.862 -0.2443 -2.5856 -2.6749
  156SAPE  C31117420   2.350   4.620   8.022 -0.6597 -0.2133 -1.1984
  156SAPE  H11X17421   2.457   4.591   8.031 -0.4386 -0.2443 -3.5025
  156SAPE  H11Y17422   2.288   4.550   8.083  0.8777 -0.8672 -0.3200
  156SAPE  C31217423   2.333   4.764   8.077 -0.0873 -0.2714  0.8137
  156SAPE  H12X17424   2.226   4.793   8.066  0.1560  0.5763  0.5777
  156SAPE  H12Y17425   2.391   4.839   8.018 -1.5850  0.5722  0.3555
  156SAPE  C31317426   2.379   4.778   8.223 -0.6965 -0.3005 -0.5581
  156SAPE  H13X17427   2.353   4.883   8.251 -2.2891 -0.1565 -2.3478
  156SAPE  H13Y17428   2.489   4.768   8.222 -0.3922  1.9921 -3.1101
  156SAPE  C31417429   2.315   4.670   8.314  0.6467  0.5251 -0.1530
  156SAPE  H14X17430   2.350   4.569   8.286 -1.6840 -0.3050 -0.2757
  156SAPE  H14Y17431   2.206   4.665   8.294  0.3284 -0.9693  1.6961
  156SAPE  C31517432   2.343   4.700   8.458 -0.3240  0.7304  0.3243
  156SAPE  H15X17433   2.318   4.805   8.486 -3.1947  0.4012 -0.6940
  156SAPE  H15Y17434   2.450   4.683   8.481  0.8517  2.3106 -3.2562
  156SAPE  C31617435   2.268   4.601   8.550 -0.7458  0.0990  0.1623
  156SAPE  H16X17436   2.305   4.500   8.522  3.2491  1.7263 -1.0659
  156SAPE  H16Y17437   2.161   4.599   8.518 -0.5185 -0.5684 -0.5655
  156SAPE  C31717438   2.275   4.633   8.701  0.5201  0.0511  0.7196
  156SAPE  H17X17439   2.173   4.659   8.736 -0.0583 -1.7171  0.4589
  156SAPE  H17Y17440   2.326   4.732   8.710  0.9226 -0.1433  0.6190
  156SAPE  C31817441   2.340   4.519   8.791  1.0521 -0.5820  0.4535
  156SAPE  H18X17442   2.277   4.429   8.772 -1.5925  1.5310 -1.6591
  156SAPE  H18Y17443   2.354   4.540   8.899 -0.3923 -1.6946  0.8844
  156SAPE  H18Z17444   2.442   4.498   8.751  1.6089  1.2456  0.8383
  157SAPE     N17445   6.761   4.639   5.958 -0.0073  0.2997 -0.0142
  157SAPE   HN117446   6.768   4.737   5.922  1.7246  0.2737  0.1855
  157SAPE   HN217447   6.745   4.578   5.876  0.7071  1.3565 -0.9719
  157SAPE   HN317448   6.669   4.630   6.007  0.0146  1.3276  0.2497
  157SAPE   C1217449   6.880   4.604   6.044  0.3197  0.4408 -0.3988
  157SAPE  H12A17450   6.967   4.573   5.982  0.0958 -0.6135 -0.2025
  157SAPE  H12B17451   6.850   4.507   6.089 -0.0257 -0.6165 -2.7754
  157SAPE   C1117452   6.901   4.711   6.152 -0.1851  0.2309  0.2873
  157SAPE  H11A17453   6.950   4.800   6.106 -2.5221  0.9662 -0.9717
  157SAPE  H11B17454   6.967   4.674   6.233 -1.4175  0.1498  1.2841
  157SAPE     P17455   6.710   4.687   6.322  0.0316 -0.3725  0.1892
  157SAPE   O1317456   6.594   4.776   6.360  0.6447 -0.0971  0.7236
  157SAPE   O1417457   6.692   4.551   6.279 -0.0891  0.2296 -0.7325
  157SAPE   O1217458   6.770   4.763   6.201 -0.4291 -0.6935  0.1691
  157SAPE   O1117459   6.817   4.693   6.442 -0.6511  0.1908  0.2972
  157SAPE    C117460   6.873   4.819   6.482  0.4915 -0.4915  0.3040
  157SAPE    HA17461   6.983   4.806   6.492  0.6012 -0.6573 -0.9757
  157SAPE    HB17462   6.847   4.910   6.424 -2.6625 -0.4195  1.6597
  157SAPE    C217463   6.826   4.866   6.627  0.3166  0.1608 -0.1628
  157SAPE    HS17464   6.865   4.970   6.626 -0.3235  0.4016 -0.6216
  157SAPE   O2117465   6.885   4.774   6.714 -0.0288 -0.0594 -0.5808
  157SAPE   C2117466   6.926   4.824   6.841  0.0204 -0.1354  0.6335
  157SAPE   O2217467   6.931   4.942   6.865  0.2972  0.2719 -0.0015
  157SAPE   C2217468   6.968   4.717   6.927 -0.8239  0.4666 -0.3882
  157SAPE   H2R17469   6.880   4.653   6.948 -0.0900  0.0298  1.6120
  157SAPE   H2S17470   7.024   4.639   6.871  1.2631 -0.1670  2.3545
  157SAPE    C317471   6.673   4.865   6.657 -0.0555 -0.2625  0.9211
  157SAPE    HX17472   6.634   4.761   6.662 -0.9864  0.0978  1.6345
  157SAPE    HY17473   6.624   4.921   6.574  0.1082 -0.9632  0.3491
  157SAPE   O3117474   6.644   4.935   6.779 -0.4683  0.2795  0.1686
  157SAPE   C3117475   6.517   4.924   6.812 -0.8198  0.8880  0.4421
  157SAPE   O3217476   6.433   4.864   6.746  0.3967 -0.3124 -0.4741
  157SAPE   C3217477   6.488   4.984   6.953 -0.3548  0.7417  0.1423
  157SAPE   H2X17478   6.402   4.932   7.001  0.9713 -1.7443 -0.0117
  157SAPE   H2Y17479   6.454   5.088   6.939  1.2638  1.3826  0.7664
  157SAPE   C2317480   7.059   4.758   7.046  0.1662  0.5313 -0.4259
  157SAPE   H3R17481   7.148   4.813   7.009  0.8669  1.1353  2.0090
  157SAPE   H3S17482   7.101   4.663   7.086 -0.7341 -0.3223 -1.4425
  157SAPE   C2417483   6.962   4.826   7.145 -0.1590 -0.4288 -0.0766
  157SAPE   H4R17484   6.962   4.775   7.243 -1.0268  0.0155  0.1645
  157SAPE   H4S17485   6.858   4.804   7.111 -0.1598  0.3259 -0.6039
  157SAPE   C2517486   6.984   4.978   7.169  0.1231 -0.8059 -0.4605
  157SAPE   H5R17487   6.948   5.040   7.085  2.3244  1.0731 -0.1181
  157SAPE   C2617488   7.036   5.039   7.280  0.1139  0.3029 -0.5736
  157SAPE   H6R17489   7.047   5.148   7.271  0.3303  0.5681  1.9416
  157SAPE   C2717490   7.093   4.973   7.401 -1.2864 -0.5757  0.1532
  157SAPE   H7R17491   7.195   5.014   7.413 -1.8109  1.6946 -2.2265
  157SAPE   H7S17492   7.113   4.866   7.383 -0.6953 -0.2907 -0.9689
  157SAPE   C2817493   7.009   4.966   7.525 -0.3409  0.2003  0.0618
  157SAPE   H8R17494   6.918   4.908   7.504  0.6061 -0.7379 -1.6384
  157SAPE   C2917495   7.023   5.020   7.644 -0.2181  0.0034  0.6577
  157SAPE   H9R17496   6.952   5.004   7.726  0.3278 -1.3701  0.8896
  157SAPE  C21017497   7.146   5.096   7.688 -0.0954  0.7916 -0.0732
  157SAPE  H10R17498   7.226   5.091   7.611  0.7209  1.6771  0.6811
  157SAPE  H10S17499   7.180   5.050   7.784 -0.2356 -0.3834 -0.5732
  157SAPE  C21117500   7.101   5.239   7.702  0.3269  0.2473 -0.5633
  157SAPE  H11R17501   7.081   5.295   7.610  0.7554  1.3279 -0.0218
  157SAPE  C21217502   7.102   5.315   7.811  0.3925  0.2352 -0.4041
  157SAPE  H12R17503   7.080   5.422   7.801 -0.0342  0.1209 -0.7217
  157SAPE  C21317504   7.131   5.256   7.952  0.1714 -0.9495 -0.1437
  157SAPE  H13R17505   7.220   5.190   7.955  0.2709 -0.9731 -2.2110
  157SAPE  H13S17506   7.039   5.205   7.987  0.1161 -0.2824  0.7188
  157SAPE  C21417507   7.171   5.368   8.045 -0.0243  0.2332  0.1223
  157SAPE  H14R17508   7.178   5.467   7.997  1.2381  0.2604  0.3186
  157SAPE  C21517509   7.178   5.334   8.175 -0.1030  0.0422 -0.2974
  157SAPE  H15R17510   7.196   5.408   8.254 -1.1736 -1.6281  1.6039
  157SAPE  C21617511   7.158   5.196   8.232 -0.5386  0.2968 -0.5614
  157SAPE  H16R17512   7.199   5.117   8.166  1.2491 -0.0375  0.8950
  157SAPE  H16S17513   7.050   5.183   8.258 -0.0725  0.5602  1.7385
  157SAPE  C21717514   7.239   5.192   8.363  0.1823  0.0135 -0.5890
  157SAPE  H17R17515   7.189   5.252   8.442  1.3605 -0.3668  0.4831
  157SAPE  H17S17516   7.341   5.231   8.344  0.7873 -1.6374 -0.8838
  157SAPE  C21817517   7.252   5.055   8.436  0.5649  0.3500  1.2210
  157SAPE  H18R17518   7.347   5.008   8.404 -0.6525 -1.2127 -0.3515
  157SAPE  H18S17519   7.178   4.984   8.394 -0.1523  0.5241  2.1626
  157SAPE  C21917520   7.221   5.042   8.590 -0.2667 -0.6854 -0.3939
  157SAPE  H19R17521   7.112   5.057   8.603 -0.0168  0.2427  0.7693
  157SAPE  H19S17522   7.283   5.120   8.639 -2.0379  0.1422  0.5913
  157SAPE  C22017523   7.269   4.909   8.649 -0.1382  0.2449 -0.4605
  157SAPE  H20R17524   7.287   4.911   8.759  0.4989 -1.2815 -0.5034
  157SAPE  H20S17525   7.372   4.887   8.613  0.4175  2.9896 -0.7160
  157SAPE  H20T17526   7.195   4.829   8.628 -0.0259  0.7316 -3.0031
  157SAPE   C3317527   6.599   4.965   7.053 -0.3186 -0.1448  0.6550
  157SAPE   H3X17528   6.692   5.017   7.022 -1.2459  0.3237 -1.5397
  157SAPE   H3Y17529   6.632   4.860   7.042 -0.3447  0.0688 -2.2345
  157SAPE   C3417530   6.560   5.009   7.200  0.3137  0.5224 -0.6284
  157SAPE   H4X17531   6.482   4.936   7.229  1.4585  0.0378  1.4405
  157SAPE   H4Y17532   6.526   5.115   7.197  1.7160  1.0167 -0.2786
  157SAPE   C3517533   6.676   4.998   7.296  0.1297 -0.1248 -0.5504
  157SAPE   H5X17534   6.768   5.052   7.264  0.7381 -0.5534  0.4248
  157SAPE   H5Y17535   6.707   4.893   7.279  2.4129  0.3763  0.1624
  157SAPE   C3617536   6.652   5.043   7.437  0.2180  0.0224 -0.1452
  157SAPE   H6X17537   6.741   5.002   7.491 -0.2906 -0.7457  0.1318
  157SAPE   H6Y17538   6.568   4.983   7.478  1.7208 -2.3393 -0.2814
  157SAPE   C3717539   6.613   5.193   7.457 -0.8098 -0.5634 -0.3716
  157SAPE   H7X17540   6.527   5.219   7.393 -0.1653 -0.5599 -1.2508
  157SAPE   H7Y17541   6.703   5.249   7.423 -0.6840 -0.2391  0.4786
  157SAPE   C3817542   6.574   5.228   7.598  0.6821  0.5616  0.2909
  157SAPE   H8X17543   6.481   5.170   7.617 -0.6258  1.5790 -2.3669
  157SAPE   H8Y17544   6.534   5.332   7.593  0.8696  0.6023 -0.5660
  157SAPE   C3917545   6.674   5.204   7.707  0.2697  1.2092 -0.2832
  157SAPE   H9X17546   6.772   5.254   7.692  1.0941  0.2220  1.4691
  157SAPE   H9Y17547   6.689   5.094   7.706  0.4354  1.2192  0.7511
  157SAPE  C31017548   6.620   5.248   7.848  0.0082  0.4595 -0.7240
  157SAPE  H10X17549   6.526   5.194   7.874 -0.0308  0.1372 -1.5203
  157SAPE  H10Y17550   6.603   5.358   7.850  1.3583  0.6917 -1.1877
  157SAPE  C31117551   6.721   5.227   7.964  0.1768  0.3061 -0.5400
  157SAPE  H11X17552   6.805   5.295   7.941  1.3981 -1.0281 -0.2015
  157SAPE  H11Y17553   6.757   5.122   7.965  1.0483  0.5975 -0.4385
  157SAPE  C31217554   6.673   5.263   8.105 -0.0890 -0.0429  0.7384
  157SAPE  H12X17555   6.606   5.181   8.139 -0.3028  0.1739  0.8458
  157SAPE  H12Y17556   6.613   5.357   8.105 -2.6329 -1.5738  1.5375
  157SAPE  C31317557   6.784   5.256   8.207 -0.3501 -0.5985  0.0797
  157SAPE  H13X17558   6.866   5.330   8.191  0.6863 -2.2671 -3.0671
  157SAPE  H13Y17559   6.829   5.155   8.195  1.2843  0.0658  0.2451
  157SAPE  C31417560   6.737   5.264   8.349 -0.5883  0.5952 -1.1341
  157SAPE  H14X17561   6.663   5.183   8.369 -0.6572  1.0558  0.6217
  157SAPE  H14Y17562   6.694   5.365   8.362 -2.9838 -0.4247 -0.6367
  157SAPE  C31517563   6.844   5.247   8.456  0.3168  0.2712 -0.1189
  157SAPE  H15X17564   6.928   5.319   8.455 -0.3270  1.0295 -0.4283
  157SAPE  H15Y17565   6.898   5.150   8.446 -1.1444 -1.0331  3.1834
  157SAPE  C31617566   6.787   5.230   8.600 -0.4545  0.0714 -0.0148
  157SAPE  H16X17567   6.730   5.320   8.632  1.5387  1.5001 -0.3008
  157SAPE  H16Y17568   6.873   5.222   8.670 -0.9859 -2.6140  0.4340
  157SAPE  C31717569   6.710   5.092   8.628  0.5663  0.0757  1.0833
  157SAPE  H17X17570   6.724   5.016   8.548 -0.6071  0.8678  0.0987
  157SAPE  H17Y17571   6.603   5.121   8.625  0.8725  1.1392 -0.8540
  157SAPE  C31817572   6.737   5.029   8.764 -0.1096  0.1250 -0.9006
  157SAPE  H18X17573   6.703   5.105   8.837 -1.7255 -0.2354 -1.2369
  157SAPE  H18Y17574   6.846   5.011   8.772 -0.2802 -0.3516  0.8038
  157SAPE  H18Z17575   6.689   4.930   8.784  0.0358  0.5322  1.9680
  158SAPE     N17576   1.802   4.617   6.378 -0.5261 -0.2248 -0.4505
  158SAPE   HN117577   1.874   4.692   6.383 -0.3357 -0.4447  0.3457
  158SAPE   HN217578   1.708   4.661   6.369 -0.3572  0.2640  0.0674
  158SAPE   HN317579   1.805   4.574   6.473  1.6857  0.0605 -0.3425
  158SAPE   C1217580   1.817   4.528   6.256  0.5174  0.8119  0.2251
  158SAPE  H12A17581   1.855   4.603   6.183 -1.7964  1.8468 -0.0004
  158SAPE  H12B17582   1.713   4.496   6.234  0.4376  0.8680  0.5179
  158SAPE   C1117583   1.899   4.395   6.273 -0.7810  0.5098  0.0280
  158SAPE  H11A17584   1.853   4.321   6.204  0.8256  1.6795 -2.4584
  158SAPE  H11B17585   1.884   4.360   6.377 -0.4593 -0.1384 -0.1376
  158SAPE     P17586   2.145   4.306   6.280 -0.2474 -0.1935  0.2271
  158SAPE   O1317587   2.102   4.187   6.203 -0.4057 -0.1337 -0.3014
  158SAPE   O1417588   2.278   4.362   6.247  0.2550 -0.1324  0.3522
  158SAPE   O1217589   2.042   4.423   6.251  0.3601  0.1627  0.0157
  158SAPE   O1117590   2.126   4.273   6.434  0.3607 -0.6422 -0.4894
  158SAPE    C117591   2.162   4.384   6.518  0.1900  0.5018  0.2133
  158SAPE    HA17592   2.273   4.385   6.526  0.1666 -0.3082  0.8263
  158SAPE    HB17593   2.145   4.488   6.483 -1.6842 -0.7894 -3.2116
  158SAPE    C217594   2.095   4.362   6.664  0.5335  0.0935  0.8817
  158SAPE    HS17595   2.000   4.306   6.651  1.4332 -1.0075 -1.4936
  158SAPE   O2117596   2.083   4.488   6.733  0.3463 -0.0195  0.0292
  158SAPE   C2117597   1.976   4.550   6.692  0.0685  0.4598 -0.4708
  158SAPE   O2217598   1.900   4.520   6.601 -0.1863  0.0821  0.2162
  158SAPE   C2217599   1.939   4.663   6.784  0.1369 -0.2264  0.1399
  158SAPE   H2R17600   1.986   4.762   6.766 -0.2961  0.4834  2.5978
  158SAPE   H2S17601   1.835   4.676   6.746 -0.6880 -1.7016  1.7464
  158SAPE    C317602   2.201   4.275   6.737  0.1525 -0.0467 -0.5574
  158SAPE    HX17603   2.300   4.326   6.733 -0.4315  1.4863  2.0919
  158SAPE    HY17604   2.193   4.178   6.684  1.8372 -1.3831  1.4762
  158SAPE   O3117605   2.172   4.236   6.876 -0.0695  0.4275  0.4804
  158SAPE   C3117606   2.214   4.313   6.971  0.1060 -0.5617 -0.1652
  158SAPE   O3217607   2.309   4.385   6.965 -0.3502 -0.2146  0.0299
  158SAPE   C3217608   2.118   4.304   7.092 -0.1571 -0.0608  0.0177
  158SAPE   H2X17609   2.103   4.196   7.116 -1.2807 -0.2623 -1.4570
  158SAPE   H2Y17610   2.022   4.349   7.058  0.0922  1.9259  1.7239
  158SAPE   C2317611   1.933   4.620   6.931  0.2385 -0.4902  0.5040
  158SAPE   H3R17612   2.038   4.606   6.964  0.9295 -0.1485 -1.3971
  158SAPE   H3S17613   1.874   4.526   6.937  0.2867 -0.4664  1.6206
  158SAPE   C2417614   1.861   4.713   7.022  0.0216  0.3587  0.1895
  158SAPE   H4R17615   1.864   4.678   7.127  0.2905  0.2366  0.1415
  158SAPE   H4S17616   1.755   4.707   6.987 -0.2164 -1.0598  1.0894
  158SAPE   C2517617   1.899   4.856   7.023  0.0773 -0.2525  0.6881
  158SAPE   H5R17618   1.908   4.904   6.924  0.5118  2.4029  1.9180
  158SAPE   C2617619   1.893   4.934   7.132 -0.1057  0.5072  0.3742
  158SAPE   H6R17620   1.923   5.037   7.110 -0.9281  0.9030  1.0460
  158SAPE   C2717621   1.847   4.906   7.274  0.3955  0.3832 -0.3149
  158SAPE   H7R17622   1.746   4.860   7.286  0.1638  0.4592 -1.8479
  158SAPE   H7S17623   1.827   5.004   7.322 -2.9224  0.0821 -0.7989
  158SAPE   C2817624   1.949   4.831   7.360  0.3337  0.5517  0.0353
  158SAPE   H8R17625   1.985   4.740   7.309  1.7003 -0.1337  2.1010
  158SAPE   C2917626   2.012   4.855   7.475  0.0131  0.2729  0.5266
  158SAPE   H9R17627   2.095   4.796   7.516 -0.8166  0.5266  2.7230
  158SAPE  C21017628   1.988   4.982   7.557  0.6108 -0.0670 -0.0862
  158SAPE  H10R17629   1.909   5.050   7.519  0.0417 -0.1412  0.9282
  158SAPE  H10S17630   2.073   5.053   7.543 -1.8941  2.8278 -1.6754
  158SAPE  C21117631   1.959   4.947   7.700  0.4473  0.0167 -0.4063
  158SAPE  H11R17632   1.863   4.897   7.717  1.0797 -1.7753 -1.7745
  158SAPE  C21217633   2.044   4.963   7.808 -0.2067 -0.3087 -0.4248
  158SAPE  H12R17634   2.010   4.929   7.907 -2.3032 -0.5755 -1.1841
  158SAPE  C21317635   2.176   5.031   7.809 -0.5790  0.2152 -0.5359
  158SAPE  H13R17636   2.218   5.036   7.706 -2.2496  0.3132 -1.2459
  158SAPE  H13S17637   2.247   4.969   7.868  0.6769 -0.6652 -2.8440
  158SAPE  C21417638   2.161   5.162   7.873  0.6241 -0.3734  0.7494
  158SAPE  H14R17639   2.155   5.248   7.805 -1.8970 -0.7224  0.4425
  158SAPE  C21517640   2.171   5.193   8.003 -0.5624 -0.1317  0.3859
  158SAPE  H15R17641   2.147   5.296   8.031  1.4210 -0.0281  1.9671
  158SAPE  C21617642   2.201   5.106   8.120  0.0440 -0.5959  0.2661
  158SAPE  H16R17643   2.308   5.120   8.144  0.3036  1.1068 -1.6650
  158SAPE  H16S17644   2.180   5.003   8.084 -0.8290  0.0189 -1.0659
  158SAPE  C21717645   2.106   5.129   8.245  0.1832 -0.8965  0.4610
  158SAPE  H17R17646   2.003   5.122   8.206  1.1928 -1.3332 -2.3169
  158SAPE  H17S17647   2.117   5.232   8.286 -2.7356 -0.8871  1.4809
  158SAPE  C21817648   2.117   5.036   8.368  0.0952 -0.0874  0.0479
  158SAPE  H18R17649   2.211   5.060   8.422  0.1484 -0.0427 -0.0652
  158SAPE  H18S17650   2.120   4.930   8.335 -2.0135  0.1341 -1.0494
  158SAPE  C21917651   1.996   5.035   8.457 -0.0694  0.0549 -0.2352
  158SAPE  H19R17652   1.904   5.006   8.402 -0.2531  0.2154 -0.0165
  158SAPE  H19S17653   1.992   5.136   8.503  0.3623 -0.5414  1.1497
  158SAPE  C22017654   1.999   4.935   8.574 -0.7970  0.4268  0.0391
  158SAPE  H20R17655   2.095   4.942   8.630 -2.0340 -0.3923  2.3987
  158SAPE  H20S17656   2.004   4.833   8.530  0.4510  0.4891 -0.0048
  158SAPE  H20T17657   1.921   4.955   8.651 -1.1264 -1.1563  0.1559
  158SAPE   C3317658   2.174   4.376   7.219  0.3800  0.6449  0.4546
  158SAPE   H3X17659   2.196   4.480   7.190 -0.1375  1.3982  2.5705
  158SAPE   H3Y17660   2.270   4.326   7.244  1.5233  1.6234 -1.7113
  158SAPE   C3417661   2.065   4.382   7.330 -0.6512  0.1345  0.1416
  158SAPE   H4X17662   1.982   4.451   7.305  1.6478  3.2089  0.3887
  158SAPE   H4Y17663   2.124   4.416   7.418  2.0751 -0.7564 -1.2006
  158SAPE   C3517664   2.021   4.246   7.377 -0.7296  0.3993  0.2664
  158SAPE   H5X17665   2.108   4.179   7.391 -0.9729  0.4908  2.4842
  158SAPE   H5Y17666   1.959   4.195   7.301  1.3181 -0.2070 -1.1007
  158SAPE   C3617667   1.946   4.248   7.513  0.3909  0.0463 -0.2966
  158SAPE   H6X17668   1.913   4.148   7.548  1.2478  0.4449  1.8023
  158SAPE   H6Y17669   1.855   4.307   7.490 -0.0243  0.9766  3.1176
  158SAPE   C3717670   2.023   4.304   7.630 -0.2405 -0.1017  1.3939
  158SAPE   H7X17671   2.130   4.287   7.604 -0.7787  0.2719 -1.3734
  158SAPE   H7Y17672   1.994   4.412   7.630 -1.1740 -0.3302  2.4711
  158SAPE   C3817673   1.984   4.234   7.760 -0.3828 -0.2001  0.1827
  158SAPE   H8X17674   2.030   4.133   7.761 -0.2041 -0.1639  2.6077
  158SAPE   H8Y17675   1.873   4.226   7.766 -0.6418  2.5408  0.1672
  158SAPE   C3917676   2.033   4.304   7.888 -0.3606  0.2819  0.8437
  158SAPE   H9X17677   1.989   4.406   7.886 -1.4701 -0.2025 -0.9326
  158SAPE   H9Y17678   2.143   4.315   7.882 -0.3296  0.1244  1.0937
  158SAPE  C31017679   2.001   4.225   8.018 -0.0721  0.2400  0.3974
  158SAPE  H10X17680   2.072   4.139   8.011  1.3709  1.4316 -0.1791
  158SAPE  H10Y17681   1.900   4.180   8.006  0.8604 -2.0509  0.4741
  158SAPE  C31117682   2.030   4.310   8.140  0.4769 -0.1896  0.8085
  158SAPE  H11X17683   1.971   4.404   8.142  2.3010  1.0233  1.1118
  158SAPE  H11Y17684   2.134   4.349   8.136 -0.0218  1.0868 -0.5698
  158SAPE  C31217685   1.997   4.241   8.278 -0.1274 -0.4297  0.1000
  158SAPE  H12X17686   2.075   4.167   8.307 -0.9612 -1.4177 -0.1318
  158SAPE  H12Y17687   1.900   4.191   8.262 -2.3038  2.8402  1.9843
  158SAPE  C31317688   1.982   4.355   8.377 -0.6745  0.9158 -0.2577
  158SAPE  H13X17689   1.905   4.426   8.340 -2.6819  0.5090  2.7371
  158SAPE  H13Y17690   2.082   4.397   8.401 -0.1435 -1.6968  2.9036
  158SAPE  C31417691   1.938   4.307   8.518 -0.2622  0.6829  0.4747
  158SAPE  H14X17692   2.012   4.234   8.556  0.1592  0.3409 -0.9258
  158SAPE  H14Y17693   1.838   4.259   8.518 -0.4472  1.0309 -0.8647
  158SAPE  C31517694   1.936   4.416   8.622 -0.2434  0.0667 -0.2317
  158SAPE  H15X17695   1.883   4.499   8.570 -0.5565 -0.9581 -1.6162
  158SAPE  H15Y17696   2.037   4.457   8.641 -0.0159 -1.8393  3.4705
  158SAPE  C31617697   1.867   4.367   8.752  0.1833  0.1470  0.3719
  158SAPE  H16X17698   1.774   4.309   8.740  1.6442 -2.3147  0.2728
  158SAPE  H16Y17699   1.835   4.452   8.815 -0.6082 -1.3520  2.0522
  158SAPE  C31717700   1.950   4.272   8.833 -0.3243 -0.1373 -0.3476
  158SAPE  H17X17701   2.038   4.319   8.881 -0.7297  0.1189  0.1588
  158SAPE  H17Y17702   1.987   4.197   8.760  0.0973  1.6938 -2.1064
  158SAPE  C31817703   1.867   4.201   8.932 -0.6226 -0.0774 -0.6441
  158SAPE  H18X17704   1.933   4.146   9.004 -1.7362 -0.4023  0.1557
  158SAPE  H18Y17705   1.784   4.142   8.889  0.0993 -0.1345 -1.9912
  158SAPE  H18Z17706   1.808   4.272   8.995 -1.8912 -0.3537 -1.4889
  159SAPE     N17707   1.802   6.389   6.066 -0.3198  0.1030  0.2059
  159SAPE   HN117708   1.864   6.363   5.986  0.4079  0.8043  0.5353
  159SAPE   HN217709   1.746   6.473   6.041 -0.1066  0.4657  0.9341
  159SAPE   HN317710   1.860   6.416   6.147 -1.1568  1.2631  0.4335
  159SAPE   C1217711   1.714   6.273   6.098 -0.4636 -0.1695  0.2905
  159SAPE  H12A17712   1.790   6.193   6.113 -1.0225 -1.0633 -1.4513
  159SAPE  H12B17713   1.645   6.255   6.014 -0.9939  0.2227  0.6353
  159SAPE   C1117714   1.628   6.289   6.219 -0.4763 -0.3607  0.0036
  159SAPE  H11A17715   1.693   6.288   6.310 -1.2457  1.1974  0.6034
  159SAPE  H11B17716   1.564   6.202   6.242 -2.0816  1.1794  1.7113
  159SAPE     P17717   1.409   6.423   6.169  0.2087  0.1885  0.7317
  159SAPE   O1317718   1.397   6.552   6.100  0.4752 -0.8957  0.3714
  159SAPE   O1417719   1.368   6.307   6.086  0.4270  0.4458 -0.5489
  159SAPE   O1217720   1.555   6.414   6.216 -0.2736  0.7833  0.5911
  159SAPE   O1117721   1.312   6.428   6.295 -0.2101  0.0805 -0.0150
  159SAPE    C117722   1.346   6.368   6.419  0.1953 -0.0368 -0.7881
  159SAPE    HA17723   1.263   6.300   6.449 -0.8856  0.4389 -2.5576
  159SAPE    HB17724   1.441   6.311   6.418  0.6437  0.7031 -1.7875
  159SAPE    C217725   1.371   6.481   6.531  0.2039  0.1890 -0.3308
  159SAPE    HS17726   1.418   6.438   6.623 -0.7125 -1.2505 -0.4975
  159SAPE   O2117727   1.238   6.537   6.561  0.2648  0.2521  0.2618
  159SAPE   C2117728   1.174   6.472   6.667 -0.8361  0.0586  0.3745
  159SAPE   O2217729   1.227   6.394   6.739  0.1302  0.5628  0.5217
  159SAPE   C2217730   1.036   6.529   6.677  0.0630  0.3931  0.6576
  159SAPE   H2R17731   1.049   6.632   6.716 -1.7998  1.6866 -1.8527
  159SAPE   H2S17732   0.986   6.534   6.578  0.1077  0.6502  0.6485
  159SAPE    C317733   1.464   6.595   6.489  0.7770  0.3564  0.4403
  159SAPE    HX17734   1.424   6.618   6.388 -1.7472 -0.8703  1.0739
  159SAPE    HY17735   1.564   6.558   6.459  0.9846  0.6104  0.8050
  159SAPE   O3117736   1.455   6.718   6.568  0.2016 -0.0685  0.6010
  159SAPE   C3117737   1.521   6.705   6.680 -0.0502  0.5298  0.2601
  159SAPE   O3217738   1.577   6.601   6.718  0.6325  0.2328 -0.4717
  159SAPE   C3217739   1.543   6.831   6.744  0.8329  0.1681 -0.6691
  159SAPE   H2X17740   1.519   6.921   6.683 -1.0322  0.3219  0.2331
  159SAPE   H2Y17741   1.651   6.836   6.772  0.4721  1.3039  0.6265
  159SAPE   C2317742   0.944   6.474   6.786 -0.3897 -0.5946  0.1869
  159SAPE   H3R17743   0.979   6.502   6.888  0.1504  1.5718 -0.5434
  159SAPE   H3S17744   0.946   6.363   6.774  2.5673 -0.5158 -0.8899
  159SAPE   C2417745   0.809   6.539   6.774 -0.4251 -0.3787  0.5805
  159SAPE   H4R17746   0.794   6.531   6.664  2.1230  1.9079 -0.0190
  159SAPE   H4S17747   0.817   6.648   6.792  0.0886 -0.5236  1.2439
  159SAPE   C2517748   0.707   6.471   6.855 -0.0595 -0.3761 -0.3780
  159SAPE   H5R17749   0.720   6.362   6.853  1.6742 -0.1843 -0.3739
  159SAPE   C2617750   0.615   6.510   6.941 -0.6377  0.0070  0.1731
  159SAPE   H6R17751   0.551   6.433   6.987 -0.9544 -0.0018 -0.2792
  159SAPE   C2717752   0.588   6.651   6.989 -0.0291  0.5854  0.3917
  159SAPE   H7R17753   0.670   6.723   6.969  0.8871 -0.2671  1.0063
  159SAPE   H7S17754   0.582   6.632   7.098  0.5226 -2.5908 -0.0391
  159SAPE   C2817755   0.463   6.703   6.926 -0.5827  0.0194  0.4617
  159SAPE   H8R17756   0.483   6.759   6.833 -1.0341  0.6414  0.7384
  159SAPE   C2917757   0.338   6.685   6.964  0.4062  0.4565 -0.7673
  159SAPE   H9R17758   0.249   6.726   6.915 -0.8996 -1.5158 -0.1384
  159SAPE  C21017759   0.298   6.615   7.092  0.1821 -0.0822 -0.3461
  159SAPE  H10R17760   0.332   6.509   7.095  0.1710 -0.1529 -1.9934
  159SAPE  H10S17761   0.188   6.609   7.097  0.2303  0.0229  1.4454
  159SAPE  C21117762   0.344   6.696   7.220  0.7820  0.6406 -0.2077
  159SAPE  H11R17763   0.343   6.806   7.215 -1.1439  0.7904  1.7835
  159SAPE  C21217764   0.388   6.636   7.332 -0.4674  0.1399  0.0768
  159SAPE  H12R17765   0.395   6.696   7.424 -3.7970  0.6452  0.1203
  159SAPE  C21317766   0.388   6.492   7.367 -0.2230  0.3389  0.3598
  159SAPE  H13R17767   0.412   6.431   7.278  0.0168 -1.1518  1.4126
  159SAPE  H13S17768   0.285   6.464   7.396 -0.1462 -1.3752 -0.9014
  159SAPE  C21417769   0.496   6.451   7.475  0.3722  0.3887 -0.3803
  159SAPE  H14R17770   0.599   6.452   7.436 -0.5131  0.8137 -2.8925
  159SAPE  C21517771   0.483   6.419   7.603 -0.0410 -0.7736  0.8333
  159SAPE  H15R17772   0.568   6.393   7.668 -0.7136 -0.5653  1.8174
  159SAPE  C21617773   0.354   6.413   7.685  0.5543  0.2373  0.0847
  159SAPE  H16R17774   0.258   6.419   7.630  0.0834  0.2066  0.8929
  159SAPE  H16S17775   0.354   6.495   7.760  0.0889  2.2439 -2.0027
  159SAPE  C21717776   0.343   6.280   7.759  0.4297  0.8392 -0.0743
  159SAPE  H17R17777   0.433   6.270   7.823  1.8671  3.2652 -1.5755
  159SAPE  H17S17778   0.345   6.199   7.684 -0.3524  2.5304 -2.0220
  159SAPE  C21817779   0.216   6.276   7.839  0.0664 -0.9045 -0.2178
  159SAPE  H18R17780   0.129   6.297   7.773 -0.1582 -1.4376 -0.0925
  159SAPE  H18S17781   0.222   6.355   7.917 -1.4705 -0.8480 -0.1157
  159SAPE  C21917782   0.196   6.146   7.919 -0.2305  0.0618 -0.5158
  159SAPE  H19R17783   0.288   6.135   7.981 -1.1005 -0.7044  0.6828
  159SAPE  H19S17784   0.197   6.056   7.854 -1.7158  0.6780 -1.4308
  159SAPE  C22017785   0.066   6.150   8.006  0.0261 -0.8538 -0.5604
  159SAPE  H20R17786   0.063   6.058   8.069 -0.1381  1.0353  2.3656
  159SAPE  H20S17787  -0.024   6.169   7.944 -0.2527  1.3215  0.4090
  159SAPE  H20T17788   0.072   6.231   8.082  0.8019 -0.5175 -0.9737
  159SAPE   C3317789   1.466   6.839   6.881 -0.6649 -0.1124 -0.8539
  159SAPE   H3X17790   1.365   6.796   6.863 -1.9543  2.6816 -0.7939
  159SAPE   H3Y17791   1.451   6.947   6.902 -1.8903  0.1097 -2.6810
  159SAPE   C3417792   1.548   6.776   6.993  0.3008  0.5284  0.3421
  159SAPE   H4X17793   1.648   6.819   7.016  1.4841 -2.5361  1.3825
  159SAPE   H4Y17794   1.561   6.668   6.972 -1.0430  0.2668  0.8046
  159SAPE   C3517795   1.477   6.778   7.131 -0.4530 -0.7748 -0.1446
  159SAPE   H5X17796   1.369   6.755   7.117 -0.4913 -0.4260 -0.4581
  159SAPE   H5Y17797   1.495   6.884   7.160  0.6226 -0.2082 -2.6185
  159SAPE   C3617798   1.544   6.685   7.234 -0.0909  0.2272  0.6363
  159SAPE   H6X17799   1.651   6.714   7.238 -0.6387  2.3608  0.8746
  159SAPE   H6Y17800   1.545   6.576   7.215 -0.3615  0.1031  1.2743
  159SAPE   C3717801   1.484   6.697   7.378  0.5182  0.1763  0.1864
  159SAPE   H7X17802   1.376   6.670   7.374  0.7620 -0.6783 -1.4802
  159SAPE   H7Y17803   1.504   6.806   7.392 -1.0792  0.8056 -1.8780
  159SAPE   C3817804   1.576   6.630   7.481  0.8084  0.6316  0.3590
  159SAPE   H8X17805   1.663   6.695   7.505  1.1960  0.8269 -1.4278
  159SAPE   H8Y17806   1.616   6.530   7.454  1.0919  0.2270  2.1448
  159SAPE   C3917807   1.491   6.606   7.606  0.3093  0.2999  0.0594
  159SAPE   H9X17808   1.404   6.551   7.565 -1.0061  2.0635  0.3960
  159SAPE   H9Y17809   1.439   6.694   7.647 -1.1786 -0.2202 -0.6660
  159SAPE  C31017810   1.554   6.521   7.713  0.1700 -0.0052 -0.0167
  159SAPE  H10X17811   1.634   6.581   7.763  1.8468 -1.3248 -0.9918
  159SAPE  H10Y17812   1.602   6.431   7.669 -0.1735  0.9900 -2.5660
  159SAPE  C31117813   1.451   6.481   7.820  0.1296  0.3037 -0.2150
  159SAPE  H11X17814   1.367   6.441   7.760 -1.4787  0.2792  1.9309
  159SAPE  H11Y17815   1.414   6.574   7.868 -1.7629 -0.9234  0.7930
  159SAPE  C31217816   1.521   6.369   7.912 -0.2940  0.1967  1.1961
  159SAPE  H12X17817   1.623   6.402   7.941 -1.1943  3.2300  1.2644
  159SAPE  H12Y17818   1.526   6.290   7.834  1.3357  1.1123  0.3121
  159SAPE  C31317819   1.436   6.318   8.028  0.6952 -1.3081 -0.0081
  159SAPE  H13X17820   1.497   6.240   8.079  2.7102 -1.2273 -2.1533
  159SAPE  H13Y17821   1.340   6.275   7.990  0.0020  1.2086 -1.2928
  159SAPE  C31417822   1.411   6.434   8.127 -0.1729 -0.2018 -0.1786
  159SAPE  H14X17823   1.353   6.516   8.082 -0.6255 -0.8644 -0.8296
  159SAPE  H14Y17824   1.515   6.464   8.154 -0.6696  0.9484  0.5104
  159SAPE  C31517825   1.350   6.392   8.255  0.6123  0.2639  0.1162
  159SAPE  H15X17826   1.374   6.465   8.335 -3.0546  0.3145  1.3427
  159SAPE  H15Y17827   1.395   6.296   8.287 -2.2348 -1.1281  0.2635
  159SAPE  C31617828   1.193   6.377   8.226 -0.7613 -0.1181 -0.1698
  159SAPE  H16X17829   1.185   6.288   8.160 -0.1470 -1.8231  1.9263
  159SAPE  H16Y17830   1.159   6.470   8.175 -1.4418 -0.2397  0.0442
  159SAPE  C31717831   1.113   6.361   8.357  0.3783  0.5380  0.5860
  159SAPE  H17X17832   1.016   6.325   8.318  0.7800 -2.9396  2.3345
  159SAPE  H17Y17833   1.088   6.457   8.406  1.7309  2.0684 -1.5563
  159SAPE  C31817834   1.169   6.245   8.449  0.3002 -0.4427 -0.2581
  159SAPE  H18X17835   1.103   6.226   8.536 -0.3120  0.6827 -0.4506
  159SAPE  H18Y17836   1.275   6.250   8.482  0.4240 -0.2059 -0.6847
  159SAPE  H18Z17837   1.168   6.157   8.382  2.1564 -1.1111  0.5069
  160SAPE     N17838   1.914   6.221   6.637  0.2028  0.6111  0.0419
  160SAPE   HN117839   1.873   6.194   6.545 -0.2244  1.0809  0.0851
  160SAPE   HN217840   2.016   6.236   6.625  0.3131 -0.9676 -1.4118
  160SAPE   HN317841   1.899   6.142   6.703 -0.3798 -0.1491 -0.9651
  160SAPE   C1217842   1.847   6.344   6.698 -0.6764 -0.1477 -0.1124
  160SAPE  H12A17843   1.923   6.391   6.763  0.0101  0.0741 -1.0473
  160SAPE  H12B17844   1.749   6.320   6.745 -1.4498  0.6946 -1.2059
  160SAPE   C1117845   1.831   6.455   6.587  0.4991  0.2221  0.1557
  160SAPE  H11A17846   1.797   6.549   6.635 -0.4457 -0.6910  1.3395
  160SAPE  H11B17847   1.755   6.416   6.517  1.1181  0.5412 -0.7125
  160SAPE     P17848   1.973   6.549   6.375  0.2119 -0.1162 -0.1608
  160SAPE   O1317849   1.966   6.455   6.261  1.1622  0.0651  0.7684
  160SAPE   O1417850   1.865   6.650   6.362 -0.6181 -0.9083 -0.3604
  160SAPE   O1217851   1.952   6.471   6.512  0.2235  0.3202  0.0979
  160SAPE   O1117852   2.116   6.609   6.375 -0.0404 -0.1360  0.3424
  160SAPE    C117853   2.220   6.577   6.467  0.1191  0.3129 -0.7060
  160SAPE    HA17854   2.209   6.478   6.516 -2.7390  1.3920  1.0474
  160SAPE    HB17855   2.315   6.569   6.410  2.1834 -1.9889  2.7052
  160SAPE    C217856   2.242   6.692   6.579  1.1150  0.1202 -0.5472
  160SAPE    HS17857   2.335   6.651   6.623 -0.4852 -5.5325 -1.5135
  160SAPE   O2117858   2.135   6.677   6.673  0.2642  0.1922 -0.0235
  160SAPE   C2117859   2.138   6.738   6.778  0.3355 -0.5646  0.9030
  160SAPE   O2217860   2.226   6.814   6.822  0.8588  0.5051 -0.1785
  160SAPE   C2217861   2.007   6.703   6.855 -0.1578  0.2915 -0.0000
  160SAPE   H2R17862   1.933   6.778   6.820 -0.5796 -1.0293 -2.0757
  160SAPE   H2S17863   1.983   6.600   6.821 -3.5559  0.9212  0.1623
  160SAPE    C317864   2.256   6.834   6.514 -0.3770  0.3906 -0.5021
  160SAPE    HX17865   2.166   6.861   6.456 -0.2044  1.2018 -0.4049
  160SAPE    HY17866   2.336   6.828   6.437  0.7616  0.4282  0.6388
  160SAPE   O3117867   2.296   6.932   6.605 -0.0706 -0.7074  0.0300
  160SAPE   C3117868   2.214   7.030   6.633  0.1706 -0.7347  0.1529
  160SAPE   O3217869   2.100   7.046   6.598 -0.4967 -0.4684 -0.6524
  160SAPE   C3217870   2.292   7.139   6.707 -0.5327 -0.1983 -0.1549
  160SAPE   H2X17871   2.363   7.174   6.629  1.1358 -1.6096  0.6609
  160SAPE   H2Y17872   2.350   7.084   6.784 -1.4269 -1.5204 -0.3786
  160SAPE   C2317873   2.023   6.712   7.012 -0.1451  0.2921 -0.6781
  160SAPE   H3R17874   2.039   6.818   7.041  1.1689 -0.0396 -0.1040
  160SAPE   H3S17875   2.113   6.657   7.047  0.3435  0.0272 -2.2933
  160SAPE   C2417876   1.907   6.644   7.084 -0.6121  0.1678 -0.6135
  160SAPE   H4R17877   1.813   6.703   7.075 -1.3284 -0.7091  0.7654
  160SAPE   H4S17878   1.929   6.650   7.192  0.3237  0.5873 -0.8124
  160SAPE   C2517879   1.880   6.504   7.031  0.5338  0.6619 -0.4768
  160SAPE   H5R17880   1.823   6.509   6.937 -0.4154  0.5923  0.0866
  160SAPE   C2617881   1.899   6.387   7.095  0.5567  0.1207 -0.1391
  160SAPE   H6R17882   1.873   6.290   7.048 -0.0972 -0.0152  0.4996
  160SAPE   C2717883   1.952   6.372   7.234  0.3888 -0.3791 -0.4107
  160SAPE   H7R17884   1.968   6.471   7.281 -0.4647  0.0790 -1.0693
  160SAPE   H7S17885   2.054   6.328   7.233 -0.6620 -3.1364 -2.5159
  160SAPE   C2817886   1.861   6.284   7.320 -0.2125 -0.2609 -0.0439
  160SAPE   H8R17887   1.781   6.246   7.256 -0.7423  1.1704 -0.2641
  160SAPE   C2917888   1.865   6.258   7.455 -0.2703  0.1056  0.6493
  160SAPE   H9R17889   1.802   6.178   7.495 -0.1172 -0.7486 -0.7418
  160SAPE  C21017890   1.970   6.311   7.547 -0.1480 -0.3040  0.2453
  160SAPE  H10R17891   2.045   6.366   7.486 -0.1902 -1.4993 -0.9369
  160SAPE  H10S17892   2.030   6.222   7.575 -0.7753 -1.5020 -2.0005
  160SAPE  C21117893   1.915   6.384   7.672  0.2440 -0.5335  0.3234
  160SAPE  H11R17894   1.830   6.447   7.641  0.0570 -0.5993  0.6942
  160SAPE  C21217895   1.950   6.366   7.797 -0.9752 -0.1129 -0.2249
  160SAPE  H12R17896   1.888   6.428   7.864  0.8131  0.8712  0.5995
  160SAPE  C21317897   2.066   6.278   7.850 -0.4724 -0.8978  0.1515
  160SAPE  H13R17898   2.118   6.321   7.938 -2.1467 -0.1566  0.8199
  160SAPE  H13S17899   2.147   6.275   7.774  0.0323  0.2746  0.6323
  160SAPE  C21417900   2.023   6.141   7.880 -0.4582 -0.0367 -0.3624
  160SAPE  H14R17901   2.035   6.070   7.797 -2.3808  2.3722 -2.8995
  160SAPE  C21517902   1.982   6.094   8.000  0.0815  0.3838 -0.2719
  160SAPE  H15R17903   1.962   5.987   8.009  0.2082  0.3367 -0.5421
  160SAPE  C21617904   1.961   6.182   8.128 -0.0704  0.3858  0.2509
  160SAPE  H16R17905   1.973   6.289   8.103 -1.4160  0.2013 -1.3159
  160SAPE  H16S17906   2.038   6.151   8.202 -1.8649 -0.2081  1.9589
  160SAPE  C21717907   1.835   6.164   8.209 -0.8562 -0.0900  0.2812
  160SAPE  H17R17908   1.841   6.063   8.254 -0.8845  0.0852  0.6782
  160SAPE  H17S17909   1.751   6.170   8.136 -0.1399 -0.2448 -0.5749
  160SAPE  C21817910   1.815   6.268   8.321 -0.0695  0.3866 -0.5004
  160SAPE  H18R17911   1.830   6.363   8.266  1.8450 -0.7118 -1.9930
  160SAPE  H18S17912   1.884   6.252   8.406 -1.0746 -2.5535 -0.1272
  160SAPE  C21917913   1.662   6.265   8.355 -0.1702 -0.5616 -0.3307
  160SAPE  H19R17914   1.609   6.231   8.263 -0.8022 -1.3628  0.3145
  160SAPE  H19S17915   1.645   6.372   8.380  0.5351 -0.7436  1.0202
  160SAPE  C22017916   1.634   6.170   8.477  0.5305 -0.4691  0.2264
  160SAPE  H20R17917   1.702   6.198   8.560  3.0692 -0.1021 -1.8375
  160SAPE  H20S17918   1.634   6.064   8.441 -0.4587 -0.1579 -0.7388
  160SAPE  H20T17919   1.530   6.198   8.503  0.1661 -1.7919  0.2956
  160SAPE   C3317920   2.208   7.239   6.789  0.4306 -0.0510  0.8876
  160SAPE   H3X17921   2.168   7.174   6.870  1.9492 -1.0349  0.8721
  160SAPE   H3Y17922   2.123   7.268   6.723  0.1094  0.1688  1.3886
  160SAPE   C3417923   2.288   7.366   6.825  0.2071 -0.8195 -0.2238
  160SAPE   H4X17924   2.218   7.453   6.821  1.0465 -0.1767 -1.4352
  160SAPE   H4Y17925   2.371   7.389   6.756 -1.1549 -0.8327 -1.9307
  160SAPE   C3517926   2.336   7.357   6.974  0.5912 -0.5651  0.7791
  160SAPE   H5X17927   2.408   7.273   6.981 -0.9961 -1.8688  2.0342
  160SAPE   H5Y17928   2.254   7.338   7.046  0.4044  2.5403  1.5444
  160SAPE   C3617929   2.405   7.498   7.004  0.5374  0.2073  0.0031
  160SAPE   H6X17930   2.325   7.574   6.988  1.6709  0.9128 -2.9297
  160SAPE   H6Y17931   2.488   7.511   6.932 -0.1272  2.8595 -0.3721
  160SAPE   C3717932   2.457   7.510   7.148 -0.1467 -0.2183  0.0906
  160SAPE   H7X17933   2.492   7.615   7.159 -1.4193  0.2704 -0.3244
  160SAPE   H7Y17934   2.546   7.444   7.157 -1.5011 -2.0613  0.5473
  160SAPE   C3817935   2.364   7.465   7.261 -0.3994  0.0501 -0.4038
  160SAPE   H8X17936   2.338   7.358   7.271 -2.8484  0.5934 -0.2358
  160SAPE   H8Y17937   2.269   7.521   7.242  0.1428  1.1449  0.0056
  160SAPE   C3917938   2.433   7.487   7.397 -0.3367 -0.1488 -0.2052
  160SAPE   H9X17939   2.467   7.592   7.402 -2.0322  0.3784  2.3007
  160SAPE   H9Y17940   2.524   7.424   7.409  2.0071  3.2008  1.0910
  160SAPE  C31017941   2.344   7.469   7.518  0.7091 -0.2309 -0.6354
  160SAPE  H10X17942   2.316   7.362   7.527 -0.0032 -0.1285 -1.4604
  160SAPE  H10Y17943   2.251   7.524   7.491 -0.5884 -1.8212  0.3900
  160SAPE  C31117944   2.406   7.531   7.644 -0.4638  0.4243 -0.0622
  160SAPE  H11X17945   2.431   7.639   7.635  0.9266  0.2511  1.3136
  160SAPE  H11Y17946   2.499   7.471   7.651 -1.2150 -1.7328 -4.6645
  160SAPE  C31217947   2.339   7.516   7.776  0.5413 -0.1207 -0.2376
  160SAPE  H12X17948   2.326   7.407   7.792  2.1185 -0.2680  0.2131
  160SAPE  H12Y17949   2.238   7.558   7.763  0.4094 -0.8870 -1.9742
  160SAPE  C31317950   2.410   7.580   7.894  0.8801 -0.1552 -0.5985
  160SAPE  H13X17951   2.407   7.691   7.887  2.4280 -0.1797 -4.9694
  160SAPE  H13Y17952   2.518   7.553   7.893  0.4894 -2.2654  2.3014
  160SAPE  C31417953   2.339   7.538   8.020  0.4897 -0.0631 -0.5392
  160SAPE  H14X17954   2.368   7.434   8.045 -0.3271  0.0159  0.8719
  160SAPE  H14Y17955   2.230   7.556   8.006  0.9531  2.4146 -1.4977
  160SAPE  C31517956   2.391   7.613   8.146  0.6331 -0.3474  0.3853
  160SAPE  H15X17957   2.345   7.714   8.147  0.0875 -0.5981  1.1169
  160SAPE  H15Y17958   2.500   7.627   8.162  0.0502  1.0576  4.0114
  160SAPE  C31617959   2.339   7.547   8.277  0.2263  0.7286  0.2453
  160SAPE  H16X17960   2.373   7.611   8.361  0.2438  2.1929 -0.8433
  160SAPE  H16Y17961   2.363   7.439   8.287 -0.2012  0.7012  1.0331
  160SAPE  C31717962   2.183   7.560   8.286  0.4901 -0.0738 -0.2997
  160SAPE  H17X17963   2.129   7.481   8.229 -1.4269 -0.0578  1.3899
  160SAPE  H17Y17964   2.140   7.658   8.255  2.6184  0.6080 -1.2768
  160SAPE  C31817965   2.135   7.532   8.432  0.6058  0.0692 -0.0287
  160SAPE  H18X17966   2.025   7.525   8.443  0.3725  2.0145 -0.6242
  160SAPE  H18Y17967   2.155   7.624   8.492 -0.2906 -0.1504  0.6302
  160SAPE  H18Z17968   2.182   7.443   8.480  0.3188  0.1728  0.4513
  161SOPE     N17969   5.813   4.918  10.770 -0.0641  0.5396 -0.1384
  161SOPE   HN117970   5.854   4.823  10.782 -0.4648  0.3994  0.1546
  161SOPE   HN217971   5.825   4.971  10.859  1.7299 -1.2681  0.7874
  161SOPE   HN317972   5.710   4.903  10.765 -0.0372 -0.6001  1.6087
  161SOPE   C1217973   5.872   4.991  10.650  0.5363 -0.8717  0.4138
  161SOPE  H12A17974   5.871   4.929  10.558 -0.3901  3.8134 -3.1007
  161SOPE  H12B17975   5.982   5.000  10.665  0.4357 -1.1197  1.4159
  161SOPE   C1117976   5.795   5.121  10.618  0.2573 -0.7687 -0.2146
  161SOPE  H11A17977   5.685   5.104  10.614 -0.1816  0.8812  2.5018
  161SOPE  H11B17978   5.818   5.156  10.515  0.5315 -2.1149 -0.6319
  161SOPE     P17979   5.933   5.317  10.701 -0.2724  0.0051  0.1975
  161SOPE   O1317980   6.022   5.278  10.589  0.2288 -0.8472  0.2601
  161SOPE   O1417981   5.998   5.338  10.830  0.3532 -0.3834  0.3861
  161SOPE   O1217982   5.816   5.216  10.720  0.0876 -0.3324 -0.4203
  161SOPE   O1117983   5.870   5.456  10.661 -0.7036  0.1675 -0.7134
  161SOPE    C117984   5.740   5.500  10.671 -0.1958  0.0321 -1.0738
  161SOPE    HA17985   5.739   5.608  10.693 -0.2214 -0.2417  0.3773
  161SOPE    HB17986   5.677   5.439  10.740 -0.5109  0.3770 -1.0529
  161SOPE    C217987   5.670   5.481  10.531  0.1886 -0.1651 -0.4648
  161SOPE    HS17988   5.643   5.374  10.527 -0.0236 -0.0815 -1.3531
  161SOPE   O2117989   5.761   5.520  10.428 -0.1315 -0.2937  0.5594
  161SOPE   C2117990   5.771   5.448  10.318 -0.0960  0.0601 -0.5916
  161SOPE   O2217991   5.704   5.349  10.297  0.0482 -0.3508 -0.3316
  161SOPE   C2217992   5.876   5.511  10.220  0.2551 -0.0297 -0.4783
  161SOPE   H2R17993   5.968   5.448  10.214  0.8202  0.8805 -2.1820
  161SOPE   H2S17994   5.906   5.607  10.267  2.0216 -0.6009 -0.3576
  161SOPE    C317995   5.540   5.567  10.520  0.3458 -0.0541  0.8922
  161SOPE    HX17996   5.570   5.671  10.546  0.4217  0.6335 -1.6746
  161SOPE    HY17997   5.481   5.515  10.598  2.2945 -1.4849  1.4922
  161SOPE   O3117998   5.479   5.567  10.388 -0.5332 -0.5736  0.0593
  161SOPE   C3117999   5.405   5.461  10.364 -0.2468 -0.1165  0.2635
  161SOPE   O3218000   5.373   5.372  10.447  0.3536 -0.0147 -0.4938
  161SOPE   C3218001   5.362   5.466  10.211  0.4010  0.3602  0.0746
  161SOPE   H2X18002   5.453   5.489  10.152  1.5228 -0.6933  1.3201
  161SOPE   H2Y18003   5.300   5.558  10.206  2.4229  1.8931  1.3790
  161SOPE   C2318004   5.824   5.544  10.083 -0.0838 -0.4361 -0.2442
  161SOPE   H3R18005   5.892   5.621  10.041  0.4575 -1.3754 -1.1128
  161SOPE   H3S18006   5.721   5.588  10.089 -0.1765 -0.8171  1.3150
  161SOPE   C2418007   5.822   5.428   9.988 -0.0148  0.3331  0.5029
  161SOPE   H4R18008   5.914   5.419   9.926 -0.9560  0.8284 -1.0120
  161SOPE   H4S18009   5.829   5.336  10.051 -2.5172  0.6182  1.2822
  161SOPE   C2518010   5.694   5.439   9.902 -0.1512 -0.3769  0.1363
  161SOPE   H5R18011   5.680   5.349   9.838 -0.5945 -0.6894  0.6695
  161SOPE   H5S18012   5.596   5.436   9.954 -0.0128 -2.5233  0.3689
  161SOPE   C2618013   5.691   5.567   9.815 -0.0781  0.6837 -0.1623
  161SOPE   H6R18014   5.589   5.582   9.772  0.4033 -0.3191 -1.7357
  161SOPE   H6S18015   5.714   5.650   9.885 -0.0303  0.2346  0.3637
  161SOPE   C2718016   5.802   5.562   9.704  0.1100  0.3725  0.9691
  161SOPE   H7R18017   5.793   5.664   9.662 -0.8547  0.3407  1.0778
  161SOPE   H7S18018   5.904   5.551   9.747  0.7184  1.7457 -0.0652
  161SOPE   C2818019   5.771   5.462   9.595 -0.5164  0.4168  0.0291
  161SOPE   H8R18020   5.745   5.358   9.624  1.6583 -0.1565  0.0431
  161SOPE   H8S18021   5.677   5.495   9.544 -0.3249 -0.8126 -1.1630
  161SOPE   C2918022   5.886   5.450   9.502  0.7523 -0.0022 -0.4109
  161SOPE   H9118023   5.977   5.405   9.545 -0.5712 -1.1459  1.3172
  161SOPE  C21018024   5.882   5.483   9.369  0.4302  0.0673  0.5593
  161SOPE  H10118025   5.972   5.466   9.309 -1.0820 -0.3889 -1.7292
  161SOPE  C21118026   5.760   5.540   9.296 -0.3335 -0.6615 -0.0629
  161SOPE  H11R18027   5.754   5.648   9.319  0.6815 -0.8546  1.2167
  161SOPE  H11S18028   5.668   5.484   9.322  0.6767 -2.4636 -0.1828
  161SOPE  C21218029   5.786   5.518   9.146 -0.4663 -0.1145 -0.4936
  161SOPE  H12R18030   5.807   5.414   9.114 -0.1293  0.3800 -2.0029
  161SOPE  H12S18031   5.878   5.576   9.122  0.9220 -2.0595 -0.1226
  161SOPE  C21318032   5.668   5.576   9.074 -0.3833  0.3936 -0.1535
  161SOPE  H13R18033   5.660   5.679   9.116 -1.9069 -0.3167  1.4149
  161SOPE  H13S18034   5.578   5.517   9.100 -0.4858  1.1498  1.3122
  161SOPE  C21418035   5.682   5.591   8.920 -0.1666 -0.6282  0.0486
  161SOPE  H14R18036   5.791   5.602   8.899 -0.4354 -0.4890 -1.3659
  161SOPE  H14S18037   5.633   5.686   8.892  1.8298  1.0357  1.8954
  161SOPE  C21518038   5.622   5.470   8.860  0.2168 -0.0426 -0.7794
  161SOPE  H15R18039   5.521   5.450   8.902  0.2380 -1.9009 -1.5454
  161SOPE  H15S18040   5.686   5.386   8.896  1.9772  1.5116 -0.1140
  161SOPE  C21618041   5.632   5.483   8.705  0.0518  0.6805 -0.1547
  161SOPE  H16R18042   5.581   5.578   8.679  0.7019  1.2315  0.5527
  161SOPE  H16S18043   5.556   5.408   8.674  1.7416 -0.5301 -1.5635
  161SOPE  C21718044   5.774   5.462   8.658 -0.2165  0.2320 -0.2235
  161SOPE  H17R18045   5.796   5.360   8.696 -0.0293  0.6124  0.7049
  161SOPE  H17S18046   5.834   5.534   8.718 -0.9005 -0.7741  1.7508
  161SOPE  C21818047   5.801   5.466   8.511 -0.4460 -0.5993 -1.0032
  161SOPE  H18R18048   5.769   5.560   8.461 -0.3474 -0.1403 -0.2229
  161SOPE  H18S18049   5.746   5.385   8.460 -2.1615 -0.4609  0.5169
  161SOPE  H18T18050   5.909   5.452   8.487 -0.2969  0.5632 -1.0562
  161SOPE   C3318051   5.282   5.348  10.170 -0.0442 -0.2534  0.3735
  161SOPE   H3X18052   5.196   5.329  10.238 -0.8719  1.1263 -0.2459
  161SOPE   H3Y18053   5.345   5.258  10.153  1.3746  0.9871 -1.1981
  161SOPE   C3418054   5.208   5.378  10.037 -0.7558  0.2435 -0.6923
  161SOPE   H4X18055   5.139   5.464  10.033 -2.0132 -0.7523 -1.1217
  161SOPE   H4Y18056   5.154   5.284  10.012  0.6235 -1.0784  0.9542
  161SOPE   C3518057   5.306   5.393   9.915 -0.3343 -0.0868  0.0287
  161SOPE   H5X18058   5.346   5.290   9.897 -0.7239 -0.2760  0.2251
  161SOPE   H5Y18059   5.391   5.462   9.936  0.4899 -1.9966  3.8700
  161SOPE   C3618060   5.237   5.440   9.786 -0.3817  0.3858 -0.1315
  161SOPE   H6X18061   5.228   5.550   9.780  0.0233  0.3477 -3.7717
  161SOPE   H6Y18062   5.137   5.392   9.790 -0.6067  0.9297  1.1188
  161SOPE   C3718063   5.320   5.405   9.660  1.6133 -0.9030  0.4281
  161SOPE   H7X18064   5.371   5.308   9.678  1.1630 -1.1217  0.5465
  161SOPE   H7Y18065   5.399   5.483   9.656  0.8285 -0.1350 -0.9013
  161SOPE   C3818066   5.243   5.399   9.527  0.3791 -0.1074  0.3583
  161SOPE   H8X18067   5.194   5.496   9.502 -1.3026 -0.4390  2.1005
  161SOPE   H8Y18068   5.160   5.331   9.555  1.1557 -1.3408 -0.2578
  161SOPE   C3918069   5.331   5.358   9.406  0.1068  0.0347  0.4465
  161SOPE   H9X18070   5.428   5.412   9.406  0.6153 -0.8109  2.2536
  161SOPE   H9Y18071   5.295   5.398   9.308  1.0994  1.3187  0.5800
  161SOPE  C31018072   5.337   5.207   9.394 -0.1806  0.4275  0.6266
  161SOPE  H10X18073   5.233   5.168   9.397  0.3749 -1.4716 -1.6382
  161SOPE  H10Y18074   5.397   5.165   9.478  2.0586  2.6836  0.2618
  161SOPE  C31118075   5.394   5.144   9.258 -0.0940 -0.4800 -0.2787
  161SOPE  H11X18076   5.318   5.167   9.180 -0.3503 -1.9096 -0.4760
  161SOPE  H11Y18077   5.411   5.035   9.270  0.7849 -0.5598 -1.9261
  161SOPE  C31218078   5.521   5.221   9.209  0.0864  0.7204  0.3669
  161SOPE  H12X18079   5.587   5.246   9.294 -1.0148  0.1493  1.4327
  161SOPE  H12Y18080   5.482   5.315   9.164 -3.0685 -1.2434 -1.4429
  161SOPE  C31318081   5.599   5.159   9.095  0.5720  0.3262 -0.2020
  161SOPE  H13X18082   5.645   5.068   9.138 -0.3138  0.0198  0.1101
  161SOPE  H13Y18083   5.677   5.226   9.054  1.5939 -1.4449 -1.2627
  161SOPE  C31418084   5.506   5.118   8.983 -0.7053  0.1612  0.5482
  161SOPE  H14X18085   5.458   5.212   8.946  0.8202  0.3154 -1.1681
  161SOPE  H14Y18086   5.430   5.041   9.005 -0.2059 -0.0033  1.7443
  161SOPE  C31518087   5.585   5.068   8.860 -0.0758  0.0879  0.9691
  161SOPE  H15X18088   5.622   4.966   8.886 -1.0079 -0.1627  1.3494
  161SOPE  H15Y18089   5.668   5.138   8.836 -0.1975 -0.4070 -1.0943
  161SOPE  C31618090   5.504   5.080   8.731  0.5802  0.3870  0.6367
  161SOPE  H16X18091   5.437   5.168   8.736 -0.8055 -0.3582 -2.2928
  161SOPE  H16Y18092   5.422   5.006   8.721 -0.3332  1.5721 -1.1953
  161SOPE  C31718093   5.595   5.087   8.606 -0.4028 -0.1371  0.2565
  161SOPE  H17X18094   5.666   5.001   8.605  1.0389  1.0189  0.2952
  161SOPE  H17Y18095   5.649   5.184   8.605 -2.2347  0.9290 -0.1535
  161SOPE  C31818096   5.524   5.070   8.474  0.3348  0.4225  0.5433
  161SOPE  H18X18097   5.592   5.060   8.387  1.0783 -2.9212  1.3535
  161SOPE  H18Y18098   5.472   5.160   8.438 -0.6968 -0.8186 -1.2193
  161SOPE  H18Z18099   5.451   4.986   8.479  0.8025 -0.0060  0.3332
  162SOPE     N18100   4.695   6.025  10.794 -0.0623 -0.2031 -0.5251
  162SOPE   HN118101   4.678   5.926  10.822  0.5973  0.3577  2.1341
  162SOPE   HN218102   4.711   6.082  10.880 -0.0779  1.2548 -1.4475
  162SOPE   HN318103   4.609   6.071  10.756 -1.8617 -1.8462  1.3084
  162SOPE   C1218104   4.801   6.037  10.679 -0.1558 -0.0551 -0.6298
  162SOPE  H12A18105   4.848   6.137  10.691 -2.8370  1.2024  0.0558
  162SOPE  H12B18106   4.753   6.019  10.580  0.2955 -0.6717 -0.7453
  162SOPE   C1118107   4.914   5.937  10.694 -0.0696 -0.1117 -0.3612
  162SOPE  H11A18108   4.985   5.960  10.612 -0.7168  1.8949 -0.4372
  162SOPE  H11B18109   4.882   5.835  10.666  1.1024 -0.4754 -0.3838
  162SOPE     P18110   5.074   6.045  10.877  0.1267  0.4266  0.0602
  162SOPE   O1318111   5.134   5.993  11.003  0.4220  0.3733 -0.1854
  162SOPE   O1418112   5.010   6.177  10.882 -0.0065 -0.1305 -0.2747
  162SOPE   O1218113   4.968   5.936  10.826 -0.0218 -0.1008  0.3311
  162SOPE   O1118114   5.180   6.040  10.761  0.5491  0.1129 -0.0482
  162SOPE    C118115   5.246   6.149  10.704  0.3684 -0.4076  0.0712
  162SOPE    HA18116   5.343   6.114  10.663 -0.5109  1.5153 -4.2572
  162SOPE    HB18117   5.262   6.223  10.784  1.6105  0.8793 -1.3177
  162SOPE    C218118   5.162   6.209  10.585  0.1952  0.0308 -0.0852
  162SOPE    HS18119   5.066   6.240  10.633 -0.4457  0.4932 -1.6097
  162SOPE   O2118120   5.148   6.110  10.480  0.3457 -0.2168 -0.0782
  162SOPE   C2118121   5.046   6.137  10.394 -0.0615 -0.1215 -0.1977
  162SOPE   O2218122   4.960   6.227  10.411 -0.3461 -0.4141 -0.5177
  162SOPE   C2218123   5.070   6.058  10.271  0.5341  0.0355  0.2391
  162SOPE   H2R18124   4.967   6.033  10.240  0.0795  1.5450  0.4274
  162SOPE   H2S18125   5.119   5.961  10.294 -1.5910 -1.4245 -1.0964
  162SOPE    C318126   5.234   6.338  10.530  0.1654  0.3966 -0.2370
  162SOPE    HX18127   5.241   6.415  10.609 -1.2214  0.7180 -0.4078
  162SOPE    HY18128   5.163   6.376  10.453  0.6010  0.0141 -0.8318
  162SOPE   O3118129   5.361   6.313  10.475  0.0977  0.0778  0.2102
  162SOPE   C3118130   5.387   6.367  10.365 -0.8822 -0.1278  0.2745
  162SOPE   O3218131   5.314   6.444  10.303 -0.5637 -0.0045 -0.6104
  162SOPE   C3218132   5.525   6.315  10.311  0.3045 -0.3475  0.6637
  162SOPE   H2X18133   5.548   6.221  10.366  1.8021 -2.5363 -3.2683
  162SOPE   H2Y18134   5.599   6.390  10.346 -0.8773  1.3821 -0.3871
  162SOPE   C2318135   5.135   6.139  10.160 -0.4913  0.7078  0.0358
  162SOPE   H3R18136   5.240   6.160  10.190 -0.3922  0.5133 -0.1707
  162SOPE   H3S18137   5.087   6.238  10.144 -2.8705 -0.4684 -0.5640
  162SOPE   C2418138   5.113   6.076  10.024  0.2119  0.7610  0.9432
  162SOPE   H4R18139   5.163   5.976  10.024  0.5605  0.9184  2.2461
  162SOPE   H4S18140   5.004   6.058  10.014  0.0118  2.0238  0.7465
  162SOPE   C2518141   5.153   6.167   9.903  0.5906 -0.1635 -0.8808
  162SOPE   H5R18142   5.141   6.275   9.930  3.2109 -0.2107  0.8129
  162SOPE   H5S18143   5.260   6.141   9.908  0.0325 -2.3283  1.5051
  162SOPE   C2618144   5.093   6.135   9.765  0.4806 -0.7967 -0.0837
  162SOPE   H6R18145   5.115   6.036   9.719  0.4529 -0.8728  0.0664
  162SOPE   H6S18146   4.982   6.140   9.764  0.3039 -3.3623 -0.7000
  162SOPE   C2718147   5.153   6.241   9.669 -0.1560 -0.2259 -0.5043
  162SOPE   H7R18148   5.123   6.345   9.694  0.6356 -0.1906  0.4123
  162SOPE   H7S18149   5.265   6.243   9.669 -0.0636 -1.9795  1.1104
  162SOPE   C2818150   5.104   6.233   9.520 -0.0862 -1.0193 -0.3471
  162SOPE   H8R18151   5.098   6.123   9.504  4.0533 -1.8456  2.2830
  162SOPE   H8S18152   5.000   6.272   9.512  0.3570  0.2469 -0.2280
  162SOPE   C2918153   5.187   6.313   9.428 -0.2388 -0.2519  0.0203
  162SOPE   H9118154   5.252   6.393   9.466 -0.9720  0.1300  0.5008
  162SOPE  C21018155   5.187   6.302   9.293 -0.3204 -0.1741 -0.1721
  162SOPE  H10118156   5.251   6.364   9.228 -0.6143 -0.1463 -0.4342
  162SOPE  C21118157   5.088   6.216   9.212 -0.8028  0.8620 -0.1013
  162SOPE  H11R18158   5.017   6.278   9.152 -1.3625 -0.6858 -1.1033
  162SOPE  H11S18159   5.035   6.149   9.282  1.1225  0.2536  0.8571
  162SOPE  C21218160   5.158   6.130   9.107 -0.3364 -0.3208 -0.9688
  162SOPE  H12R18161   5.079   6.079   9.048 -0.9079 -1.7828  0.9556
  162SOPE  H12S18162   5.213   6.051   9.162 -0.5327 -1.4683 -2.3903
  162SOPE  C21318163   5.247   6.207   9.017  0.1469  0.6296  0.1791
  162SOPE  H13R18164   5.342   6.234   9.068 -0.4780  0.5273  1.4370
  162SOPE  H13S18165   5.208   6.306   8.988  0.4911  0.9978  0.9520
  162SOPE  C21418166   5.278   6.115   8.897  0.1976  1.1538  0.3087
  162SOPE  H14R18167   5.196   6.108   8.823  0.9469  0.5678 -0.4834
  162SOPE  H14S18168   5.297   6.012   8.932 -0.7523 -0.5797 -3.7362
  162SOPE  C21518169   5.394   6.174   8.819 -0.0644 -0.3268  0.1901
  162SOPE  H15R18170   5.417   6.115   8.728  2.0905  0.8954 -0.1182
  162SOPE  H15S18171   5.476   6.171   8.894  0.2982 -2.4605 -0.2134
  162SOPE  C21618172   5.369   6.317   8.765  0.3148 -0.3088  0.9207
  162SOPE  H16R18173   5.335   6.383   8.847 -0.3270 -1.2805  1.4564
  162SOPE  H16S18174   5.288   6.307   8.690  0.0562 -0.5101  1.2252
  162SOPE  C21718175   5.487   6.380   8.693 -0.6437 -0.1926  0.0989
  162SOPE  H17R18176   5.514   6.335   8.595  2.4471  1.4833  0.0427
  162SOPE  H17S18177   5.577   6.360   8.756 -0.5576  0.7504  0.2833
  162SOPE  C21818178   5.487   6.527   8.666  0.3093 -0.6470  0.2700
  162SOPE  H18R18179   5.451   6.574   8.760  0.7872 -2.5384  1.4547
  162SOPE  H18S18180   5.417   6.543   8.581 -1.4763 -0.0271  1.7849
  162SOPE  H18T18181   5.583   6.578   8.642  0.1868 -0.7021 -0.3375
  162SOPE   C3318182   5.515   6.281  10.164  0.2053 -0.5679  0.1718
  162SOPE   H3X18183   5.439   6.341  10.109  1.2733  0.7184  0.0528
  162SOPE   H3Y18184   5.483   6.175  10.155  0.3556 -0.4842 -1.8913
  162SOPE   C3418185   5.651   6.305  10.096  0.1766 -0.2451  0.4328
  162SOPE   H4X18186   5.727   6.254  10.160 -1.1831 -1.3069  1.2465
  162SOPE   H4Y18187   5.689   6.410  10.099  2.7949 -1.1165  0.7817
  162SOPE   C3518188   5.661   6.274   9.947  0.4764 -0.3788 -0.4711
  162SOPE   H5X18189   5.607   6.178   9.934 -0.2394  0.0235 -0.5333
  162SOPE   H5Y18190   5.761   6.259   9.902  0.5708 -1.0525 -0.0575
  162SOPE   C3618191   5.599   6.389   9.858  1.0830  0.0461 -0.3969
  162SOPE   H6X18192   5.663   6.479   9.868  0.3622  0.7270 -1.7201
  162SOPE   H6Y18193   5.505   6.421   9.908  2.5645  0.9030  2.0530
  162SOPE   C3718194   5.574   6.340   9.714 -0.0455  0.1066 -1.3330
  162SOPE   H7X18195   5.526   6.425   9.662  0.8429  2.2782  1.1866
  162SOPE   H7Y18196   5.498   6.259   9.720  0.6015 -0.6055 -2.2385
  162SOPE   C3818197   5.704   6.285   9.649  0.0753  0.0935 -0.2966
  162SOPE   H8X18198   5.713   6.183   9.694  0.5803  1.0577  1.9645
  162SOPE   H8Y18199   5.790   6.343   9.688  0.5070  0.1056 -1.2571
  162SOPE   C3918200   5.700   6.274   9.494 -0.0981 -0.8392 -0.1779
  162SOPE   H9X18201   5.795   6.241   9.447  1.2758  2.1181  0.2848
  162SOPE   H9Y18202   5.707   6.384   9.479 -0.2995 -0.3428  2.7206
  162SOPE  C31018203   5.574   6.206   9.449  0.8107 -0.1232 -0.1966
  162SOPE  H10X18204   5.479   6.249   9.486  0.6117  0.3400 -1.2430
  162SOPE  H10Y18205   5.586   6.100   9.483 -0.6898  0.2445  1.6205
  162SOPE  C31118206   5.558   6.207   9.297  0.2695  0.4693  0.4289
  162SOPE  H11X18207   5.563   6.307   9.248  3.4679  1.1773  1.9898
  162SOPE  H11Y18208   5.456   6.164   9.288  0.9036 -1.1756  0.8684
  162SOPE  C31218209   5.663   6.117   9.239  0.1405 -0.2605  0.5970
  162SOPE  H12X18210   5.665   6.022   9.297  0.2908  0.5057  1.8871
  162SOPE  H12Y18211   5.766   6.156   9.252  0.2836 -0.9248  1.5712
  162SOPE  C31318212   5.638   6.084   9.091  0.3751 -0.5337 -0.0889
  162SOPE  H13X18213   5.639   6.175   9.026 -0.3401 -1.0959 -0.9040
  162SOPE  H13Y18214   5.543   6.030   9.070  0.6093 -0.9568 -0.0595
  162SOPE  C31418215   5.746   6.002   9.022 -0.1789 -0.7459 -0.6487
  162SOPE  H14X18216   5.753   5.899   9.062  1.9952  0.1821  1.5913
  162SOPE  H14Y18217   5.848   6.046   9.034  0.1290 -1.7595  0.6375
  162SOPE  C31518218   5.715   5.995   8.872  0.6883 -0.0297 -0.0928
  162SOPE  H15X18219   5.707   6.097   8.829 -0.2322  0.3491  0.9470
  162SOPE  H15Y18220   5.616   5.945   8.866  0.1077  1.1700 -0.8301
  162SOPE  C31618221   5.823   5.913   8.798 -0.6116 -0.0091  0.1160
  162SOPE  H16X18222   5.848   5.824   8.859  3.0036  0.0125 -1.1362
  162SOPE  H16Y18223   5.913   5.977   8.788 -1.2636  0.8503 -0.3675
  162SOPE  C31718224   5.785   5.869   8.660 -1.0428  0.1166  0.7303
  162SOPE  H17X18225   5.725   5.946   8.607 -1.8052 -0.1321  1.2068
  162SOPE  H17Y18226   5.734   5.772   8.677  0.8840 -0.7293  2.0510
  162SOPE  C31818227   5.906   5.848   8.574 -0.3776  0.0462 -0.2292
  162SOPE  H18X18228   5.948   5.949   8.557 -1.1807  0.2899 -0.7929
  162SOPE  H18Y18229   5.874   5.798   8.480 -0.3088  0.4035 -0.4414
  162SOPE  H18Z18230   5.985   5.788   8.624  0.0005  0.3368 -0.4727
  163SOPE     N18231   6.085   4.110  11.207 -0.2898  0.1326  0.0987
  163SOPE   HN118232   6.077   4.213  11.209  0.6395  0.2056  1.2838
  163SOPE   HN218233   6.082   4.087  11.309 -1.0496  0.5632  0.1811
  163SOPE   HN318234   6.175   4.081  11.165 -1.6770 -0.6797 -2.5269
  163SOPE   C1218235   5.976   4.043  11.126  0.0197  0.2541  0.4074
  163SOPE  H12A18236   5.888   4.048  11.194 -0.5156 -1.0928 -0.1411
  163SOPE  H12B18237   6.009   3.939  11.105 -0.0479  0.2535  0.2973
  163SOPE   C1118238   5.953   4.126  10.994 -0.1180  0.1846  0.7437
  163SOPE  H11A18239   5.868   4.083  10.937  1.3282 -1.1489 -0.4983
  163SOPE  H11B18240   6.045   4.119  10.932  0.1174  0.0490  1.1025
  163SOPE     P18241   5.909   4.379  10.922 -0.4740  0.1450  0.2177
  163SOPE   O1318242   6.027   4.474  10.930 -0.0707  0.3412 -0.1651
  163SOPE   O1418243   5.776   4.439  10.945  0.0583  0.3293 -0.1261
  163SOPE   O1218244   5.941   4.263  11.020  0.2694  0.2943  0.2691
  163SOPE   O1118245   5.916   4.318  10.777 -0.0890  0.0903  0.6780
  163SOPE    C118246   5.802   4.242  10.723 -0.2171 -0.9376 -0.1761
  163SOPE    HA18247   5.740   4.309  10.660  1.3106  0.8311  0.1479
  163SOPE    HB18248   5.733   4.201  10.801 -0.7099 -0.1559 -0.1878
  163SOPE    C218249   5.857   4.119  10.646  0.4630  0.2815 -0.9107
  163SOPE    HS18250   5.936   4.070  10.707 -0.0067 -1.6378 -1.7772
  163SOPE   O2118251   5.905   4.158  10.515 -0.7512 -0.1711 -0.1570
  163SOPE   C2118252   6.017   4.098  10.478 -0.3224 -0.3808  0.0511
  163SOPE   O2218253   6.081   4.012  10.537  0.1346  0.2571  0.3414
  163SOPE   C2218254   6.061   4.156  10.345  0.9538 -1.0357  0.3699
  163SOPE   H2R18255   6.171   4.174  10.344  0.9269 -0.8025 -1.6401
  163SOPE   H2S18256   6.009   4.253  10.330  1.7861 -0.7974 -1.1624
  163SOPE    C318257   5.737   4.014  10.627 -0.4805  0.0339  0.1000
  163SOPE    HX18258   5.659   4.074  10.576 -0.3297  1.4179  1.4648
  163SOPE    HY18259   5.703   3.977  10.726 -1.3398  1.5500  0.4016
  163SOPE   O3118260   5.772   3.901  10.534  0.5656 -0.4309 -0.3804
  163SOPE   C3118261   5.724   3.779  10.577 -0.5296  0.2402  0.8766
  163SOPE   O3218262   5.644   3.762  10.671  0.0845 -0.8253  0.5403
  163SOPE   C3218263   5.775   3.669  10.478  0.2652 -0.3803 -0.4570
  163SOPE   H2X18264   5.752   3.569  10.520  2.2529 -0.5965  0.2237
  163SOPE   H2Y18265   5.885   3.677  10.466  0.3526 -0.4117  0.2620
  163SOPE   C2318266   6.025   4.055  10.225  0.4002  0.4806 -0.7227
  163SOPE   H3R18267   5.916   4.039  10.217  0.5095  0.3094 -2.2531
  163SOPE   H3S18268   6.065   3.953  10.243 -0.6864 -0.3366 -2.5839
  163SOPE   C2418269   6.069   4.101  10.083  0.2980 -0.2291 -0.3835
  163SOPE   H4R18270   6.064   4.211  10.093  1.1818 -0.2275  0.1294
  163SOPE   H4S18271   6.171   4.063  10.064  0.5470  0.2055  0.0601
  163SOPE   C2518272   5.973   4.052   9.975 -0.2682  0.2672 -0.1426
  163SOPE   H5R18273   5.954   3.943   9.986  1.6538 -0.2876 -1.7745
  163SOPE   H5S18274   5.873   4.101   9.981 -1.0365 -1.3257  0.4828
  163SOPE   C2618275   6.023   4.088   9.833  0.6345 -0.1320  0.4866
  163SOPE   H6R18276   6.027   4.198   9.818 -2.0538  0.2602  2.0194
  163SOPE   H6S18277   6.122   4.043   9.809  0.7728  1.5400 -2.4731
  163SOPE   C2718278   5.939   4.031   9.714 -0.4633  0.6039  0.2948
  163SOPE   H7R18279   5.936   3.921   9.726 -0.2500  0.4799 -0.6657
  163SOPE   H7S18280   5.833   4.061   9.720 -0.7617 -0.1212 -0.9458
  163SOPE   C2818281   6.001   4.068   9.578  0.2436  0.3546  0.0416
  163SOPE   H8R18282   5.923   4.036   9.505  0.5688  0.1660 -0.2277
  163SOPE   H8S18283   6.008   4.179   9.575  0.0673  0.3457 -0.7493
  163SOPE   C2918284   6.131   4.001   9.538  0.0198 -0.1466 -0.0348
  163SOPE   H9118285   6.175   3.951   9.627 -0.7641  1.2801  1.1976
  163SOPE  C21018286   6.195   4.003   9.423  0.3097  0.4798  0.1040
  163SOPE  H10118287   6.293   3.957   9.408 -0.8210 -2.2635  0.6345
  163SOPE  C21118288   6.135   4.049   9.292 -0.2505 -0.8576  0.1228
  163SOPE  H11R18289   6.220   4.095   9.238  0.2503 -2.2083 -0.2899
  163SOPE  H11S18290   6.056   4.124   9.312  2.5099  2.3118  0.1195
  163SOPE  C21218291   6.100   3.930   9.205  0.4132 -0.2533  0.4121
  163SOPE  H12R18292   6.007   3.878   9.237  0.5977 -0.6028  0.3780
  163SOPE  H12S18293   6.185   3.860   9.209  0.0681 -0.7875 -0.9699
  163SOPE  C21318294   6.084   3.966   9.056 -0.4766 -0.2350  0.5200
  163SOPE  H13R18295   6.116   4.070   9.037  2.6911 -1.5945 -2.8917
  163SOPE  H13S18296   5.974   3.966   9.040 -0.1816 -0.7525 -1.9253
  163SOPE  C21418297   6.149   3.871   8.962 -0.4963 -0.3534  0.3839
  163SOPE  H14R18298   6.112   3.768   8.982 -0.5562 -0.8721 -2.0783
  163SOPE  H14S18299   6.258   3.865   8.982 -0.1134  1.1064 -1.1323
  163SOPE  C21518300   6.107   3.900   8.816  0.0800  0.9524  0.3403
  163SOPE  H15R18301   6.118   4.006   8.786  2.4656  0.4891 -0.5973
  163SOPE  H15S18302   6.000   3.872   8.803  0.1933  1.2822 -1.4469
  163SOPE  C21618303   6.199   3.824   8.716 -0.3652 -0.4760 -0.1905
  163SOPE  H16R18304   6.304   3.861   8.725 -0.3955 -0.3107 -0.5123
  163SOPE  H16S18305   6.173   3.843   8.610 -1.5179 -3.9169 -0.6391
  163SOPE  C21718306   6.196   3.671   8.722  0.1610 -0.0398 -0.3193
  163SOPE  H17R18307   6.087   3.652   8.720  0.2684 -0.6477 -0.3315
  163SOPE  H17S18308   6.235   3.627   8.817 -2.0513  1.0207  1.1781
  163SOPE  C21818309   6.258   3.604   8.606  0.0843 -0.0977  0.2579
  163SOPE  H18R18310   6.202   3.509   8.606  1.8954 -1.3261  3.4158
  163SOPE  H18S18311   6.365   3.575   8.617  0.3939  1.3813  1.6757
  163SOPE  H18T18312   6.238   3.664   8.515 -0.2587  1.2547  1.1849
  163SOPE   C3318313   5.701   3.695  10.352  0.2295  0.3964  0.2566
  163SOPE   H3X18314   5.690   3.802  10.326  1.2485  0.5808  0.5117
  163SOPE   H3Y18315   5.597   3.655  10.355 -0.5644  2.4067  0.6507
  163SOPE   C3418316   5.768   3.618  10.236 -0.1064 -0.5384 -0.7011
  163SOPE   H4X18317   5.780   3.509  10.255  0.2611  0.0022  2.9512
  163SOPE   H4Y18318   5.870   3.662  10.227 -0.6065  0.4090 -1.9674
  163SOPE   C3518319   5.708   3.641  10.095  0.1432 -0.0336 -1.0720
  163SOPE   H5X18320   5.684   3.748  10.079  1.3606  0.0954 -2.2630
  163SOPE   H5Y18321   5.615   3.580  10.098  0.3862 -0.3674  0.3345
  163SOPE   C3618322   5.790   3.587   9.976 -0.1719 -0.0144 -0.5609
  163SOPE   H6X18323   5.814   3.478   9.975  1.5590  0.2832  1.0329
  163SOPE   H6Y18324   5.887   3.640   9.982 -0.2262  0.0412 -0.1467
  163SOPE   C3718325   5.730   3.610   9.840  0.8394 -1.3162 -0.1385
  163SOPE   H7X18326   5.695   3.715   9.837  1.9426 -0.8730  1.5396
  163SOPE   H7Y18327   5.636   3.552   9.824  1.1689 -1.6094 -1.1096
  163SOPE   C3818328   5.817   3.569   9.725  0.5315 -0.0327  0.3378
  163SOPE   H8X18329   5.844   3.461   9.727 -0.0467 -0.1818  2.6631
  163SOPE   H8Y18330   5.904   3.638   9.725 -0.3152  1.0527  0.1402
  163SOPE   C3918331   5.748   3.594   9.590 -0.0629  0.5715 -0.7529
  163SOPE   H9X18332   5.677   3.680   9.593 -4.3034 -2.6501  1.6910
  163SOPE   H9Y18333   5.695   3.497   9.580 -0.6186  0.6135  1.2816
  163SOPE  C31018334   5.848   3.601   9.471 -0.2632  0.7867  0.2220
  163SOPE  H10X18335   5.926   3.524   9.491 -1.0964  0.2931  1.7914
  163SOPE  H10Y18336   5.911   3.692   9.470 -2.1711  2.2596 -3.4369
  163SOPE  C31118337   5.780   3.574   9.335  0.4124  0.2522 -0.0405
  163SOPE  H11X18338   5.703   3.649   9.306  2.2383  1.9453 -0.7174
  163SOPE  H11Y18339   5.730   3.475   9.335 -0.5441  0.7201 -0.3052
  163SOPE  C31218340   5.884   3.589   9.221  0.0516 -0.2203  0.1168
  163SOPE  H12X18341   5.973   3.535   9.258  0.6481  1.2382  0.8876
  163SOPE  H12Y18342   5.901   3.692   9.184  1.2731 -0.5615 -0.3235
  163SOPE  C31318343   5.848   3.499   9.105  0.5384 -0.1372  0.5667
  163SOPE  H13X18344   5.741   3.519   9.079  0.4870  1.1976  1.6825
  163SOPE  H13Y18345   5.850   3.395   9.143 -1.7971 -0.1200  0.9156
  163SOPE  C31418346   5.942   3.524   8.986  0.0319 -0.0518 -0.2944
  163SOPE  H14X18347   6.041   3.545   9.033  0.3665 -1.6200 -0.2422
  163SOPE  H14Y18348   5.908   3.615   8.932 -0.2370 -0.1220 -0.2439
  163SOPE  C31518349   5.960   3.412   8.884  0.0926  0.5033 -0.5861
  163SOPE  H15X18350   5.969   3.318   8.943 -1.3600 -1.2923 -3.0226
  163SOPE  H15Y18351   6.057   3.432   8.832 -0.1789 -0.0673 -1.3316
  163SOPE  C31618352   5.844   3.404   8.792 -0.0091 -0.1820  0.1849
  163SOPE  H16X18353   5.852   3.481   8.712 -1.8505  2.4281  2.3525
  163SOPE  H16Y18354   5.750   3.428   8.845  0.0766 -0.4383  0.4558
  163SOPE  C31718355   5.837   3.273   8.710  0.9577  0.2127 -0.1288
  163SOPE  H17X18356   5.825   3.195   8.787  0.0356  0.7482  0.2811
  163SOPE  H17Y18357   5.927   3.248   8.650  0.3992 -0.0315 -0.8775
  163SOPE  C31818358   5.713   3.257   8.622 -0.1188  0.0721 -0.2574
  163SOPE  H18X18359   5.702   3.148   8.605 -0.8541  0.1912 -0.6206
  163SOPE  H18Y18360   5.735   3.304   8.524 -1.6528  0.2099 -0.5594
  163SOPE  H18Z18361   5.617   3.294   8.665 -0.5130 -0.9246 -0.2558
  164SOPE     N18362   1.768   0.819  10.862 -0.1332  0.2190 -0.1243
  164SOPE   HN118363   1.857   0.869  10.880 -0.5434  1.8686 -2.1858
  164SOPE   HN218364   1.698   0.861  10.926  0.5975 -0.9473  1.5049
  164SOPE   HN318365   1.778   0.724  10.903 -0.7700  1.0953  2.2064
  164SOPE   C1218366   1.721   0.822  10.721  0.2386  0.9324  0.7861
  164SOPE  H12A18367   1.629   0.759  10.729  0.6105  0.4315  1.2456
  164SOPE  H12B18368   1.793   0.763  10.661 -0.4062 -0.1914  1.0772
  164SOPE   C1118369   1.684   0.960  10.661 -0.9454  0.7288 -0.1458
  164SOPE  H11A18370   1.647   0.948  10.557  0.9172 -3.4390 -0.5339
  164SOPE  H11B18371   1.777   1.019  10.667  1.4384 -2.5555 -1.6274
  164SOPE     P18372   1.431   1.005  10.725  0.0585 -0.0634  0.2103
  164SOPE   O1318373   1.363   1.075  10.835 -0.0893  0.5317  0.4301
  164SOPE   O1418374   1.399   0.863  10.723  0.1299 -0.6256 -0.1938
  164SOPE   O1218375   1.584   1.020  10.742 -0.0562 -0.5242  0.1703
  164SOPE   O1118376   1.410   1.076  10.581 -0.7649  0.6209 -0.7870
  164SOPE    C118377   1.449   1.210  10.571 -0.0001 -0.0932 -0.3011
  164SOPE    HA18378   1.555   1.222  10.603 -0.2948  2.1452 -0.0315
  164SOPE    HB18379   1.386   1.276  10.634  1.4457 -0.7540  1.9604
  164SOPE    C218380   1.435   1.251  10.420  0.4016 -0.4281  0.0119
  164SOPE    HS18381   1.468   1.355  10.402 -0.3628 -0.3365 -0.9469
  164SOPE   O2118382   1.300   1.241  10.371 -0.2625  0.0948 -0.4128
  164SOPE   C2118383   1.224   1.349  10.404  0.2337  0.0890 -0.1276
  164SOPE   O2218384   1.266   1.446  10.463  0.2605 -0.5873 -0.0945
  164SOPE   C2218385   1.082   1.324  10.345 -0.5523  0.0466 -0.6649
  164SOPE   H2R18386   1.016   1.331  10.434  1.7456  0.9596  1.0713
  164SOPE   H2S18387   1.078   1.219  10.308  0.0913 -1.2365  2.5908
  164SOPE    C318388   1.534   1.155  10.340  0.0751 -0.7814  0.1217
  164SOPE    HX18389   1.517   1.050  10.372 -0.7577 -0.7330 -0.1236
  164SOPE    HY18390   1.636   1.183  10.372  0.2303  0.1265 -1.0854
  164SOPE   O3118391   1.526   1.177  10.201 -0.0312  0.3116  0.9610
  164SOPE   C3118392   1.439   1.097  10.136 -0.0565  0.1983 -0.8608
  164SOPE   O3218393   1.384   1.003  10.189  0.0780 -0.2988 -0.2924
  164SOPE   C3218394   1.417   1.149   9.989  0.1412  0.8511 -0.0396
  164SOPE   H2X18395   1.517   1.159   9.941  0.2900 -2.1313 -0.5517
  164SOPE   H2Y18396   1.367   1.248   9.991  1.3071  1.4729 -0.5601
  164SOPE   C2318397   1.054   1.439  10.255 -0.9199  0.4905  0.2057
  164SOPE   H3R18398   1.046   1.541  10.298 -0.0446  1.4003 -1.6845
  164SOPE   H3S18399   0.958   1.414  10.205  0.1926 -2.5910 -0.6332
  164SOPE   C2418400   1.138   1.454  10.126  0.5494  0.1894 -0.0479
  164SOPE   H4R18401   1.227   1.507  10.165 -0.7884  1.0246  2.0581
  164SOPE   H4S18402   1.169   1.356  10.083  1.1903  0.1969  0.3951
  164SOPE   C2518403   1.066   1.535  10.014 -0.3109 -0.1579 -0.0062
  164SOPE   H5R18404   0.965   1.497   9.986 -0.1577  0.1741 -1.0817
  164SOPE   H5S18405   1.053   1.636  10.057 -3.2279 -0.2399 -0.5185
  164SOPE   C2618406   1.142   1.549   9.878 -0.2911  0.0858 -0.8222
  164SOPE   H6R18407   1.239   1.601   9.896 -0.8286  1.0145 -0.5319
  164SOPE   H6S18408   1.174   1.451   9.837 -1.8401 -0.2086 -1.3964
  164SOPE   C2718409   1.077   1.646   9.775 -0.1341 -0.0229 -0.7795
  164SOPE   H7R18410   0.986   1.595   9.737  0.7182 -1.7179 -0.6241
  164SOPE   H7S18411   1.033   1.733   9.828  0.3569 -0.1243 -0.2002
  164SOPE   C2818412   1.174   1.690   9.661  1.1579 -0.4086  0.1641
  164SOPE   H8R18413   1.116   1.745   9.584  0.2528 -0.2536  0.9425
  164SOPE   H8S18414   1.250   1.756   9.707  2.6541 -1.6137 -0.4800
  164SOPE   C2918415   1.245   1.580   9.588  0.0485  1.0314  0.3096
  164SOPE   H9118416   1.284   1.505   9.658  0.3063  1.6913  0.8833
  164SOPE  C21018417   1.273   1.564   9.453 -0.0748  0.0433 -0.4974
  164SOPE  H10118418   1.332   1.477   9.422  0.8446  0.9132 -1.2397
  164SOPE  C21118419   1.221   1.660   9.348  0.1529  0.2801  0.1888
  164SOPE  H11R18420   1.256   1.765   9.356 -0.2834  0.2949  2.7794
  164SOPE  H11S18421   1.111   1.674   9.354  0.0999  0.8187 -1.6209
  164SOPE  C21218422   1.251   1.609   9.209  0.2573 -0.0213  0.5735
  164SOPE  H12R18423   1.198   1.512   9.195 -0.1417  0.5384 -2.4383
  164SOPE  H12S18424   1.362   1.601   9.204  0.1696 -0.4755 -2.5898
  164SOPE  C21318425   1.205   1.707   9.101  0.3493 -0.5120 -0.2753
  164SOPE  H13R18426   1.221   1.811   9.136 -3.0537 -0.2269  0.8676
  164SOPE  H13S18427   1.094   1.713   9.097  0.4199  3.2781 -0.9669
  164SOPE  C21418428   1.264   1.676   8.966 -0.2225 -0.0285 -0.4197
  164SOPE  H14R18429   1.261   1.565   8.956  0.2972 -0.0873  0.0701
  164SOPE  H14S18430   1.370   1.711   8.962 -0.1773 -0.2006 -0.8916
  164SOPE  C21518431   1.176   1.732   8.856 -0.5720  0.0348 -0.4327
  164SOPE  H15R18432   1.156   1.836   8.891  0.6642 -0.0309  0.5035
  164SOPE  H15S18433   1.080   1.676   8.857 -1.0431  0.8240  0.5170
  164SOPE  C21618434   1.245   1.735   8.715 -0.0336  0.2541 -0.1595
  164SOPE  H16R18435   1.344   1.787   8.718 -1.4650  3.4034 -2.0755
  164SOPE  H16S18436   1.172   1.780   8.645  1.9900 -0.6787 -3.0844
  164SOPE  C21718437   1.269   1.593   8.665 -0.5203  0.6523 -0.7894
  164SOPE  H17R18438   1.166   1.553   8.653 -0.0752 -0.2842 -1.6484
  164SOPE  H17S18439   1.306   1.528   8.746  0.2874  0.2849 -1.4355
  164SOPE  C21818440   1.351   1.577   8.543 -0.3438  0.4895  0.2828
  164SOPE  H18R18441   1.346   1.477   8.495 -3.0853 -0.4118  2.2101
  164SOPE  H18S18442   1.456   1.611   8.556 -0.6021  0.6452  2.2363
  164SOPE  H18T18443   1.301   1.630   8.460  1.8526 -0.7725 -2.0030
  164SOPE   C3318444   1.345   1.045   9.908 -0.3808  0.4486 -0.0518
  164SOPE   H3X18445   1.252   1.009   9.956  0.4836 -1.5314  0.2381
  164SOPE   H3Y18446   1.396   0.948   9.894  0.2895  1.1205 -2.8029
  164SOPE   C3418447   1.319   1.107   9.767 -0.6591  0.8406  0.6506
  164SOPE   H4X18448   1.416   1.140   9.726 -0.2681  1.3724  1.9444
  164SOPE   H4Y18449   1.242   1.187   9.758 -2.3302 -0.6437  1.0010
  164SOPE   C3518450   1.274   1.000   9.672  0.1287 -0.1857 -0.0245
  164SOPE   H5X18451   1.189   0.943   9.716 -1.1145  1.1815 -0.5661
  164SOPE   H5Y18452   1.358   0.933   9.646 -0.0779  0.0770 -1.4233
  164SOPE   C3618453   1.218   1.076   9.553 -0.3867 -0.4920  0.4452
  164SOPE   H6X18454   1.145   1.157   9.576  0.4183  0.2370  0.4978
  164SOPE   H6Y18455   1.163   1.000   9.494 -0.8547  2.3692 -3.1769
  164SOPE   C3718456   1.329   1.131   9.463 -0.3685  0.0121 -0.1889
  164SOPE   H7X18457   1.390   1.044   9.432  0.7439  1.4461 -2.2330
  164SOPE   H7Y18458   1.393   1.206   9.514  0.0116 -0.5950  0.2353
  164SOPE   C3818459   1.276   1.202   9.339 -0.0239 -0.3731 -0.2693
  164SOPE   H8X18460   1.233   1.300   9.371 -1.2421 -1.6568  2.3804
  164SOPE   H8Y18461   1.192   1.143   9.297 -1.9784  1.1666  1.2624
  164SOPE   C3918462   1.382   1.241   9.227 -0.9544  0.3130  0.0771
  164SOPE   H9X18463   1.465   1.168   9.229 -0.3992  0.9368  0.9499
  164SOPE   H9Y18464   1.433   1.339   9.238 -0.4940  0.3986 -2.3810
  164SOPE  C31018465   1.310   1.261   9.092  0.1195 -0.0662  0.7444
  164SOPE  H10X18466   1.376   1.327   9.032  0.7313 -0.7135  0.6919
  164SOPE  H10Y18467   1.212   1.310   9.115 -0.2040 -1.5359  2.7345
  164SOPE  C31118468   1.290   1.130   9.025  0.7255  0.6758 -1.0016
  164SOPE  H11X18469   1.243   1.062   9.099 -0.1399  0.1095 -2.0475
  164SOPE  H11Y18470   1.386   1.086   8.989  1.1170  1.1028 -0.5098
  164SOPE  C31218471   1.189   1.139   8.909 -0.3731  0.0617  0.5291
  164SOPE  H12X18472   1.216   1.214   8.831 -0.5218 -0.2925  0.1315
  164SOPE  H12Y18473   1.093   1.179   8.947 -0.2566  0.4745  0.3904
  164SOPE  C31318474   1.164   1.010   8.834 -0.7510  0.1384 -0.2997
  164SOPE  H13X18475   1.257   0.968   8.792 -0.6848  1.3260 -1.4066
  164SOPE  H13Y18476   1.103   1.038   8.745  1.5616 -0.4077 -2.1596
  164SOPE  C31418477   1.101   0.907   8.916  0.1924  0.2150 -0.3127
  164SOPE  H14X18478   1.022   0.946   8.984  1.4964 -2.6006  3.0762
  164SOPE  H14Y18479   1.184   0.867   8.978  0.8530  1.4940 -0.3425
  164SOPE  C31518480   1.033   0.790   8.841  0.2190  0.5447 -0.7297
  164SOPE  H15X18481   1.091   0.750   8.755  2.3399 -1.2354  1.3727
  164SOPE  H15Y18482   0.942   0.826   8.789  0.8196 -0.9486 -2.9837
  164SOPE  C31618483   0.990   0.677   8.931 -0.2006 -0.2864 -0.3944
  164SOPE  H16X18484   0.958   0.730   9.024 -1.2152  2.4779 -2.1832
  164SOPE  H16Y18485   1.069   0.601   8.950  0.7829  0.4889 -1.2931
  164SOPE  C31718486   0.862   0.596   8.885 -0.2799 -0.0116  0.4036
  164SOPE  H17X18487   0.780   0.670   8.875 -0.3774 -0.3350 -1.6617
  164SOPE  H17Y18488   0.840   0.519   8.961 -2.9106 -0.2485 -0.5078
  164SOPE  C31818489   0.883   0.516   8.752 -0.0852  0.1937  0.2865
  164SOPE  H18X18490   0.970   0.446   8.746 -1.3385 -1.3949  0.0723
  164SOPE  H18Y18491   0.899   0.591   8.671  1.0483  0.1946  0.4973
  164SOPE  H18Z18492   0.788   0.462   8.734 -0.2287 -0.5567  2.9112
  165SOPE     N18493   5.995   2.421  10.751  0.5179 -0.2956  0.2555
  165SOPE   HN118494   5.915   2.445  10.814 -0.4300  0.7097 -1.2842
  165SOPE   HN218495   6.077   2.433  10.813 -0.5975  1.1566  1.5528
  165SOPE   HN318496   5.999   2.503  10.688 -0.2102 -0.7683 -0.4210
  165SOPE   C1218497   5.966   2.297  10.670 -0.0141 -0.7734 -0.1891
  165SOPE  H12A18498   5.999   2.313  10.565 -0.8923 -1.5656 -0.6016
  165SOPE  H12B18499   5.855   2.291  10.667 -0.3852  2.0480  2.6542
  165SOPE   C1118500   6.027   2.167  10.738 -0.3290 -0.5869  0.1366
  165SOPE  H11A18501   5.997   2.085  10.669  1.0205 -0.3537 -0.7610
  165SOPE  H11B18502   5.976   2.138  10.833 -1.0636  0.5218  0.0960
  165SOPE     P18503   6.272   2.072  10.711  0.0326  0.0712 -0.0365
  165SOPE   O1318504   6.203   1.971  10.623 -0.2957  0.3555  0.1835
  165SOPE   O1418505   6.329   2.024  10.843  0.1096 -0.2863  0.7171
  165SOPE   O1218506   6.170   2.188  10.748  0.6351 -0.3104 -0.2282
  165SOPE   O1118507   6.375   2.150  10.635  0.4203  0.3605  0.1377
  165SOPE    C118508   6.384   2.295  10.635 -0.1460 -0.1444  0.3145
  165SOPE    HA18509   6.491   2.316  10.618 -0.2091  0.0390  0.1408
  165SOPE    HB18510   6.341   2.346  10.724  0.3728 -0.1896  0.5946
  165SOPE    C218511   6.329   2.356  10.508 -0.2405  0.2079  0.4417
  165SOPE    HS18512   6.222   2.328  10.503  0.1943 -1.2908 -1.5585
  165SOPE   O2118513   6.407   2.311  10.390  0.6660  0.0337 -0.3137
  165SOPE   C2118514   6.335   2.237  10.308 -0.5494 -0.1994  0.3097
  165SOPE   O2218515   6.227   2.195  10.333  0.4025  0.2866 -0.1099
  165SOPE   C2218516   6.406   2.202  10.174 -0.1723  0.0785 -0.2189
  165SOPE   H2R18517   6.468   2.114  10.201 -1.5251 -1.0927 -0.8206
  165SOPE   H2S18518   6.463   2.293  10.143  2.5805 -1.3904  0.1965
  165SOPE    C318519   6.326   2.509  10.509  0.0487  0.4461 -0.3707
  165SOPE    HX18520   6.427   2.553  10.502  0.2113  0.0597 -0.4965
  165SOPE    HY18521   6.287   2.542  10.608 -1.6932  1.4748 -1.3574
  165SOPE   O3118522   6.252   2.557  10.397 -0.3264 -0.4572 -0.5596
  165SOPE   C3118523   6.123   2.589  10.417  0.0571  0.0879  0.0491
  165SOPE   O3218524   6.062   2.576  10.522  0.1276  0.0643  0.0456
  165SOPE   C3218525   6.068   2.637  10.281  0.7496 -0.0047 -0.6493
  165SOPE   H2X18526   6.139   2.709  10.235  1.7633 -0.0456  0.7645
  165SOPE   H2Y18527   5.975   2.693  10.307  0.3426 -1.1089  0.3884
  165SOPE   C2318528   6.316   2.164  10.053 -0.1343  1.0320 -0.8909
  165SOPE   H3R18529   6.227   2.227  10.072  0.4773  1.5661  0.3633
  165SOPE   H3S18530   6.287   2.059  10.073  0.0119  1.1974  0.2750
  165SOPE   C2418531   6.380   2.193   9.923 -0.2060 -0.4704  0.1450
  165SOPE   H4R18532   6.420   2.296   9.918 -0.2480 -0.4299  0.6495
  165SOPE   H4S18533   6.462   2.126   9.889 -0.8144 -0.8619 -0.6111
  165SOPE   C2518534   6.274   2.193   9.803 -0.2490 -0.1847  0.8039
  165SOPE   H5R18535   6.219   2.097   9.809  0.7502 -0.7286  1.7515
  165SOPE   H5S18536   6.192   2.263   9.827 -1.7439 -1.6677  0.1893
  165SOPE   C2618537   6.337   2.221   9.670 -0.2696 -0.1503 -0.2989
  165SOPE   H6R18538   6.381   2.322   9.683 -0.3176 -0.2479  0.7094
  165SOPE   H6S18539   6.419   2.148   9.651 -0.0865  0.3557 -1.5748
  165SOPE   C2718540   6.234   2.215   9.559 -0.2865 -0.1530  0.2809
  165SOPE   H7R18541   6.163   2.132   9.580 -0.4169 -0.8476 -2.4977
  165SOPE   H7S18542   6.186   2.315   9.565  1.2803  0.7690 -1.6568
  165SOPE   C2818543   6.300   2.189   9.429  0.2725  0.0619 -0.3093
  165SOPE   H8R18544   6.368   2.275   9.412 -0.9084  0.8407 -1.3005
  165SOPE   H8S18545   6.362   2.097   9.431  2.3626  1.2706 -3.0919
  165SOPE   C2918546   6.200   2.184   9.319 -0.4026 -0.0463 -0.3190
  165SOPE   H9118547   6.106   2.138   9.353  0.5746 -1.8480  0.0667
  165SOPE  C21018548   6.218   2.234   9.192  0.3714 -0.7032 -0.4214
  165SOPE  H10118549   6.140   2.216   9.116  0.2009 -4.4401  0.4489
  165SOPE  C21118550   6.346   2.301   9.139  0.8323  0.7083 -0.8223
  165SOPE  H11R18551   6.394   2.357   9.222 -3.1220  2.0400  0.8067
  165SOPE  H11S18552   6.307   2.378   9.069 -2.6553  1.1189  1.3055
  165SOPE  C21218553   6.442   2.205   9.081 -0.2698 -0.0895  0.2820
  165SOPE  H12R18554   6.457   2.122   9.154  1.2274  1.4634  1.8503
  165SOPE  H12S18555   6.543   2.252   9.078 -0.0505 -0.3537  2.0339
  165SOPE  C21318556   6.401   2.160   8.938  0.2293 -0.2913 -0.0871
  165SOPE  H13R18557   6.293   2.137   8.930  0.7430 -3.3176  0.5462
  165SOPE  H13S18558   6.464   2.072   8.912  1.4798  0.3405  0.6660
  165SOPE  C21418559   6.445   2.261   8.831 -0.0335  0.3780  0.2812
  165SOPE  H14R18560   6.550   2.297   8.833  0.1931 -0.2808  0.8654
  165SOPE  H14S18561   6.386   2.353   8.847 -2.9349 -1.1290 -1.0345
  165SOPE  C21518562   6.410   2.210   8.693 -0.1255  0.1485 -0.1724
  165SOPE  H15R18563   6.314   2.155   8.702  1.1534 -1.9481  1.4734
  165SOPE  H15S18564   6.477   2.146   8.632 -0.9376  0.5170 -1.4984
  165SOPE  C21618565   6.374   2.320   8.595 -0.2013 -0.4875  0.1833
  165SOPE  H16R18566   6.303   2.384   8.651  1.6799  0.3873  1.6574
  165SOPE  H16S18567   6.331   2.279   8.501  1.2519  1.1182 -1.2790
  165SOPE  C21718568   6.496   2.403   8.549 -0.3414 -0.3908 -0.5218
  165SOPE  H17R18569   6.592   2.351   8.529  0.7956  1.9197 -1.4025
  165SOPE  H17S18570   6.525   2.472   8.630 -1.2756  0.9100 -1.2475
  165SOPE  C21818571   6.480   2.493   8.425  0.3324 -0.3029 -0.6692
  165SOPE  H18R18572   6.432   2.431   8.346  0.4512  1.6344 -2.3497
  165SOPE  H18S18573   6.576   2.537   8.391  0.9383  0.0039  1.3024
  165SOPE  H18T18574   6.405   2.571   8.452 -1.1357 -1.6247 -0.7668
  165SOPE   C3318575   6.026   2.522  10.181  0.5197 -0.3388  0.3131
  165SOPE   H3X18576   5.978   2.433  10.225 -2.7955 -0.2056 -2.6182
  165SOPE   H3Y18577   6.119   2.492  10.128  2.0648  1.6974  1.6885
  165SOPE   C3418578   5.921   2.575  10.084 -0.0552 -0.1496  0.0209
  165SOPE   H4X18579   5.933   2.683  10.062 -1.8854 -0.1115 -1.0382
  165SOPE   H4Y18580   5.825   2.561  10.138 -0.5949  1.2212 -0.5499
  165SOPE   C3518581   5.933   2.496   9.955  0.3318  0.2325  0.4226
  165SOPE   H5X18582   5.912   2.393   9.989  2.1470 -0.0408  0.8428
  165SOPE   H5Y18583   6.040   2.503   9.928  0.9698 -3.1564  1.5901
  165SOPE   C3618584   5.834   2.534   9.844  0.3155 -0.3436  0.4794
  165SOPE   H6X18585   5.811   2.643   9.838 -1.5898 -0.7976 -2.0165
  165SOPE   H6Y18586   5.733   2.489   9.851  0.7009 -1.2851  0.1192
  165SOPE   C3718587   5.886   2.485   9.710 -0.1885 -0.7367  0.0907
  165SOPE   H7X18588   5.936   2.387   9.726  1.8111  0.5890  2.5793
  165SOPE   H7Y18589   5.966   2.555   9.678  1.6317 -2.0570  1.5835
  165SOPE   C3818590   5.779   2.490   9.598 -0.9003 -0.5049 -0.6131
  165SOPE   H8X18591   5.711   2.577   9.601 -4.2831 -2.8712 -1.8123
  165SOPE   H8Y18592   5.723   2.396   9.619  1.4984 -2.0928 -0.9072
  165SOPE   C3918593   5.857   2.463   9.467 -0.0127  0.2985  0.7121
  165SOPE   H9X18594   5.791   2.404   9.400  0.6405 -0.3035  0.5906
  165SOPE   H9Y18595   5.952   2.409   9.486 -0.2419 -1.5288 -2.5210
  165SOPE  C31018596   5.909   2.589   9.396  0.1932 -1.3390 -0.3594
  165SOPE  H10X18597   5.967   2.652   9.466 -0.8813  1.3917 -1.7979
  165SOPE  H10Y18598   5.832   2.665   9.372  2.7660  1.3011 -0.7761
  165SOPE  C31118599   6.003   2.563   9.274  0.5511 -0.2120  0.0603
  165SOPE  H11X18600   6.094   2.517   9.317  0.4712  0.3029  0.7989
  165SOPE  H11Y18601   6.035   2.660   9.230  0.2894  0.0085  0.3473
  165SOPE  C31218602   5.925   2.492   9.164  0.6206 -0.1071  0.2061
  165SOPE  H12X18603   5.830   2.549   9.147  1.2463  0.4865 -1.5222
  165SOPE  H12Y18604   5.899   2.386   9.183  1.9640 -0.4686  0.0668
  165SOPE  C31318605   6.000   2.486   9.029 -0.0316 -0.0409  0.0648
  165SOPE  H13X18606   6.101   2.445   9.055  0.2061  0.1956 -0.4712
  165SOPE  H13Y18607   6.024   2.590   8.998 -0.8432  0.8839  2.3810
  165SOPE  C31418608   5.937   2.394   8.929 -0.6461  0.2288  0.3033
  165SOPE  H14X18609   5.829   2.419   8.925 -1.2583 -2.1732  0.0409
  165SOPE  H14Y18610   5.937   2.287   8.960  3.2840  0.1018  0.3771
  165SOPE  C31518611   5.989   2.415   8.786  0.4942  0.1586 -0.0292
  165SOPE  H15X18612   6.096   2.386   8.775 -0.0123 -1.0039 -2.8177
  165SOPE  H15Y18613   5.982   2.524   8.768 -0.3447  0.7828  3.4113
  165SOPE  C31618614   5.908   2.342   8.682  0.0114  0.2081 -0.0788
  165SOPE  H16X18615   5.805   2.383   8.682  0.6369  1.8454 -0.0640
  165SOPE  H16Y18616   5.909   2.232   8.701 -2.8320 -0.2798 -2.1406
  165SOPE  C31718617   5.958   2.358   8.539  0.9527  0.2007  0.4986
  165SOPE  H17X18618   6.067   2.340   8.548  0.8127 -0.4785  0.8989
  165SOPE  H17Y18619   5.939   2.462   8.507  1.4312 -0.2797 -1.4990
  165SOPE  C31818620   5.907   2.268   8.429 -0.1133 -0.0621  0.5252
  165SOPE  H18X18621   5.936   2.163   8.448 -0.7898 -0.0038  2.0395
  165SOPE  H18Y18622   5.945   2.289   8.327 -1.1120 -3.3154 -0.6613
  165SOPE  H18Z18623   5.797   2.273   8.413  0.0295 -0.6461 -0.7786
  166SOPE     N18624   4.765   3.231  10.917  0.5569 -0.3008  0.1296
  166SOPE   HN118625   4.791   3.145  10.969 -0.7421 -0.3536  0.7265
  166SOPE   HN218626   4.682   3.212  10.857  0.2431 -1.5620  0.9443
  166SOPE   HN318627   4.850   3.256  10.862  2.3460 -1.2721  2.2963
  166SOPE   C1218628   4.738   3.329  11.031 -0.5157 -0.2768  0.5012
  166SOPE  H12A18629   4.817   3.327  11.108  0.1065  0.8284 -0.0746
  166SOPE  H12B18630   4.645   3.296  11.081  0.3218 -2.4766  0.7374
  166SOPE   C1118631   4.724   3.474  10.980 -0.1295  0.1071  0.3312
  166SOPE  H11A18632   4.702   3.539  11.067 -2.5149 -2.6123  1.9645
  166SOPE  H11B18633   4.636   3.477  10.913 -1.0932 -0.9216  1.4835
  166SOPE     P18634   4.839   3.624  10.790  0.5094 -0.2445 -0.4400
  166SOPE   O1318635   4.925   3.555  10.697  0.3209 -0.6135  0.2322
  166SOPE   O1418636   4.892   3.758  10.836 -0.3331 -0.5151 -0.5199
  166SOPE   O1218637   4.829   3.523  10.910  0.1617 -0.5172 -0.3140
  166SOPE   O1118638   4.693   3.646  10.741 -0.4337  1.1939 -0.1058
  166SOPE    C118639   4.634   3.552  10.644  0.0685 -0.3080  0.5352
  166SOPE    HA18640   4.582   3.470  10.699  1.3974 -0.1178  2.1602
  166SOPE    HB18641   4.704   3.511  10.569 -0.4545  1.7983 -1.1744
  166SOPE    C218642   4.531   3.622  10.547 -0.2580  0.3877  0.2587
  166SOPE    HS18643   4.447   3.649  10.614 -0.1541  0.0242  0.5338
  166SOPE   O2118644   4.491   3.537  10.429  0.0661  0.3604 -0.0192
  166SOPE   C2118645   4.369   3.493  10.434 -0.3537  0.0156 -0.5390
  166SOPE   O2218646   4.282   3.512  10.519 -0.0251  0.5990 -0.2459
  166SOPE   C2218647   4.349   3.431  10.297 -0.2912 -0.8245  0.4537
  166SOPE   H2R18648   4.246   3.389  10.294  0.2567 -2.3680  2.0533
  166SOPE   H2S18649   4.422   3.352  10.270  0.9347  0.4559 -0.0936
  166SOPE    C318650   4.590   3.754  10.490  0.6635 -0.2549 -0.3449
  166SOPE    HX18651   4.672   3.726  10.421 -0.9684 -0.0546 -2.4556
  166SOPE    HY18652   4.631   3.812  10.575  1.5902 -1.2181 -0.1052
  166SOPE   O3118653   4.492   3.836  10.418  0.1274 -0.2972 -0.4162
  166SOPE   C3118654   4.522   3.870  10.290  0.3631  0.1226 -0.4007
  166SOPE   O3218655   4.622   3.829  10.235 -0.0660  0.4424  0.1786
  166SOPE   C3218656   4.412   3.970  10.244  0.4600  0.0646 -0.6473
  166SOPE   H2X18657   4.448   4.064  10.290  0.7864 -2.2286  4.5780
  166SOPE   H2Y18658   4.326   3.940  10.309  2.8150 -3.4019  1.2011
  166SOPE   C2318659   4.348   3.557  10.199 -0.3368  0.5609 -0.6765
  166SOPE   H3R18660   4.447   3.606  10.192  0.7904 -1.7565 -2.1354
  166SOPE   H3S18661   4.274   3.635  10.227 -0.0159  0.2023  1.3340
  166SOPE   C2418662   4.311   3.502  10.053 -0.2294 -0.2867  0.1399
  166SOPE   H4R18663   4.325   3.392  10.058  4.1463  0.1118  0.8278
  166SOPE   H4S18664   4.208   3.528  10.021 -1.2131 -2.8163  1.0123
  166SOPE   C2518665   4.416   3.558   9.949  0.1915  0.6672  0.2622
  166SOPE   H5R18666   4.476   3.639   9.996  0.2664  0.9615 -0.3321
  166SOPE   H5S18667   4.480   3.473   9.917 -0.1651  0.4462  0.1262
  166SOPE   C2618668   4.357   3.621   9.825  0.2952 -0.4117  0.3782
  166SOPE   H6R18669   4.305   3.700   9.883 -0.2465 -2.0973  2.3095
  166SOPE   H6S18670   4.446   3.654   9.767 -0.0007  0.4453  0.4023
  166SOPE   C2718671   4.286   3.533   9.718 -0.1155  0.7256  0.8096
  166SOPE   H7R18672   4.357   3.450   9.695 -1.8310 -0.5156 -0.2807
  166SOPE   H7S18673   4.201   3.484   9.771 -0.8243  1.6467  0.5434
  166SOPE   C2818674   4.238   3.609   9.592  0.3682 -0.4911  0.7746
  166SOPE   H8R18675   4.176   3.545   9.525  2.1419 -0.9580 -0.5029
  166SOPE   H8S18676   4.166   3.684   9.630 -0.2226 -0.0994 -1.0056
  166SOPE   C2918677   4.346   3.677   9.516  0.0873 -0.5082  0.2654
  166SOPE   H9118678   4.434   3.713   9.571 -0.3690  0.4162  0.4045
  166SOPE  C21018679   4.346   3.710   9.379 -0.4511  0.3227 -0.7444
  166SOPE  H10118680   4.438   3.758   9.343  1.6748 -3.2167 -0.5128
  166SOPE  C21118681   4.240   3.681   9.273 -0.0971 -0.0473 -0.2705
  166SOPE  H11R18682   4.194   3.581   9.284 -1.2145  0.4715 -0.0002
  166SOPE  H11S18683   4.282   3.686   9.170  0.8420  0.1326  0.1152
  166SOPE  C21218684   4.128   3.791   9.285  0.4791 -0.3008 -0.0542
  166SOPE  H12R18685   4.113   3.799   9.395  1.1353 -0.2855  0.0348
  166SOPE  H12S18686   4.036   3.764   9.229 -0.5719  0.5146  1.2300
  166SOPE  C21318687   4.161   3.927   9.212  0.0741  0.0363 -0.0156
  166SOPE  H13R18688   4.264   3.958   9.240 -0.5016  1.9917  0.0423
  166SOPE  H13S18689   4.098   4.004   9.261 -0.6061 -0.3395 -0.2921
  166SOPE  C21418690   4.161   3.930   9.056  0.3664 -0.2222 -0.1966
  166SOPE  H14R18691   4.261   3.899   9.019  0.6065  0.3004  0.0106
  166SOPE  H14S18692   4.137   4.033   9.022  2.4647  0.3459 -0.1000
  166SOPE  C21518693   4.062   3.831   8.988  1.2170 -0.6368 -0.2312
  166SOPE  H15R18694   3.957   3.858   9.014  0.1075 -4.1592 -0.6247
  166SOPE  H15S18695   4.091   3.733   9.032  2.0482  0.0927  0.9287
  166SOPE  C21618696   4.077   3.829   8.838 -0.2627  0.4379 -0.0910
  166SOPE  H16R18697   4.183   3.854   8.820 -0.1424 -1.3300 -2.2128
  166SOPE  H16S18698   4.022   3.908   8.782 -0.8652 -0.7320 -1.2133
  166SOPE  C21718699   4.052   3.689   8.783  0.6811  0.0949 -0.0022
  166SOPE  H17R18700   3.948   3.655   8.801 -0.1935  0.8955 -2.8937
  166SOPE  H17S18701   4.111   3.614   8.841 -2.2263 -2.4898 -0.0778
  166SOPE  C21818702   4.080   3.678   8.627  0.4769  0.1284  0.9971
  166SOPE  H18R18703   4.072   3.574   8.588  0.5298  0.4953 -0.0206
  166SOPE  H18S18704   4.179   3.718   8.595  1.2680 -2.2353  0.2938
  166SOPE  H18T18705   4.005   3.730   8.563  1.7340 -0.7127 -1.2738
  166SOPE   C3318706   4.383   3.976  10.098 -0.1519  0.3360 -0.2718
  166SOPE   H3X18707   4.278   4.012  10.092  0.0712  1.1055  0.2831
  166SOPE   H3Y18708   4.385   3.883  10.037 -0.4841  0.9329 -1.2131
  166SOPE   C3418709   4.482   4.074  10.026  0.0252  0.5353  0.0288
  166SOPE   H4X18710   4.584   4.061  10.069 -0.2875  1.3124  1.0649
  166SOPE   H4Y18711   4.445   4.177  10.046  0.4106  0.5900  0.4933
  166SOPE   C3518712   4.492   4.049   9.881  0.2843 -0.3417 -0.3283
  166SOPE   H5X18713   4.531   3.947   9.866 -0.4882 -0.3971 -2.2791
  166SOPE   H5Y18714   4.575   4.114   9.845  0.9641  0.1476  1.9343
  166SOPE   C3618715   4.364   4.062   9.801 -0.4254 -0.4992 -0.2143
  166SOPE   H6X18716   4.320   4.164   9.810  0.9650 -0.0301  1.9777
  166SOPE   H6Y18717   4.288   3.988   9.837 -2.1504  1.0882 -0.4407
  166SOPE   C3718718   4.403   4.030   9.659  0.3792 -0.7010  0.3706
  166SOPE   H7X18719   4.418   3.920   9.660 -0.2325 -0.7825  0.9441
  166SOPE   H7Y18720   4.502   4.075   9.640 -0.1306  0.7550  0.9914
  166SOPE   C3818721   4.296   4.061   9.556 -0.4684 -0.6219 -0.1375
  166SOPE   H8X18722   4.195   4.045   9.599  0.4226 -0.6865  2.0217
  166SOPE   H8Y18723   4.293   3.996   9.466 -1.0846 -0.3008 -0.3597
  166SOPE   C3918724   4.302   4.205   9.503 -0.0819  0.4479 -0.4299
  166SOPE   H9X18725   4.405   4.241   9.482  1.7021 -2.9963  1.5665
  166SOPE   H9Y18726   4.255   4.257   9.588 -0.3838 -0.1609 -0.2206
  166SOPE  C31018727   4.208   4.213   9.383  0.1921 -0.2685 -0.1676
  166SOPE  H10X18728   4.114   4.157   9.405 -1.9716  2.3145 -2.1226
  166SOPE  H10Y18729   4.268   4.167   9.302  0.0855  0.0721 -0.4439
  166SOPE  C31118730   4.179   4.359   9.344 -0.3115  0.4094 -0.5333
  166SOPE  H11X18731   4.242   4.431   9.401 -2.6663 -0.0482  2.9427
  166SOPE  H11Y18732   4.072   4.365   9.372  0.0328 -1.7482  1.5794
  166SOPE  C31218733   4.192   4.394   9.191 -0.2717  0.2924 -0.0315
  166SOPE  H12X18734   4.159   4.305   9.133 -1.3333  0.1418  0.7651
  166SOPE  H12Y18735   4.301   4.405   9.172  0.1561 -3.2991 -0.4035
  166SOPE  C31318736   4.113   4.514   9.141 -0.1050 -0.7872 -0.3589
  166SOPE  H13X18737   4.133   4.589   9.219  0.9374 -2.1437  0.7308
  166SOPE  H13Y18738   4.004   4.490   9.137 -0.0880 -0.7343 -1.6454
  166SOPE  C31418739   4.172   4.561   9.005 -0.6499 -0.1407 -0.2024
  166SOPE  H14X18740   4.170   4.477   8.932 -0.8395 -1.2144  0.9941
  166SOPE  H14Y18741   4.280   4.575   9.023 -0.6840 -0.3310  0.1797
  166SOPE  C31518742   4.106   4.691   8.958 -0.4776 -0.2238  0.6981
  166SOPE  H15X18743   4.161   4.749   8.880 -1.4554  0.4250  0.4737
  166SOPE  H15Y18744   4.098   4.748   9.053  1.1570 -0.5872  1.0755
  166SOPE  C31618745   3.969   4.664   8.892 -0.3081  0.3322  0.6382
  166SOPE  H16X18746   3.908   4.594   8.953  1.0133  0.6246  2.3662
  166SOPE  H16Y18747   3.989   4.616   8.794 -1.4206  0.3469  0.3837
  166SOPE  C31718748   3.879   4.790   8.862 -0.4378  0.4364  0.5142
  166SOPE  H17X18749   3.941   4.864   8.807  1.0131 -0.5743  0.7323
  166SOPE  H17Y18750   3.852   4.843   8.956 -1.3566  0.7955  0.0622
  166SOPE  C31818751   3.755   4.757   8.783 -0.6993  0.3774  1.0018
  166SOPE  H18X18752   3.694   4.680   8.836 -1.6922 -0.0213 -0.6454
  166SOPE  H18Y18753   3.786   4.717   8.684  3.3784  1.6967  1.5708
  166SOPE  H18Z18754   3.693   4.847   8.766  0.7249  1.1129 -0.7232
  167SOPE     N18755   6.524   6.690   6.291  0.5073  0.0538 -0.1213
  167SOPE   HN118756   6.447   6.703   6.221 -1.4999  0.3213  2.0167
  167SOPE   HN218757   6.521   6.779   6.345 -1.2977 -0.5924  0.9400
  167SOPE   HN318758   6.619   6.670   6.254  0.5030 -1.9860  0.8058
  167SOPE   C1218759   6.492   6.590   6.403  0.6452  0.0858 -0.4179
  167SOPE  H12A18760   6.414   6.640   6.465  1.8797  2.9502 -0.9914
  167SOPE  H12B18761   6.585   6.560   6.455  0.2709 -1.1797 -0.4384
  167SOPE   C1118762   6.444   6.466   6.324 -0.8180  0.1618 -0.1771
  167SOPE  H11A18763   6.456   6.383   6.397 -2.3229 -0.2315 -0.3459
  167SOPE  H11B18764   6.509   6.430   6.241  0.5538  1.9713  0.0615
  167SOPE     P18765   6.217   6.365   6.248 -0.0062  0.0492 -0.1237
  167SOPE   O1318766   6.290   6.230   6.250  0.0463 -0.5241  0.4776
  167SOPE   O1418767   6.137   6.393   6.126 -0.6760  0.0911 -0.2243
  167SOPE   O1218768   6.315   6.482   6.277 -0.6300  0.2021 -0.4704
  167SOPE   O1118769   6.112   6.358   6.372  0.1233 -0.1318 -0.5843
  167SOPE    C118770   6.018   6.468   6.380 -0.2149  0.0589  0.3728
  167SOPE    HA18771   5.933   6.429   6.439 -0.5314  2.3725  1.5404
  167SOPE    HB18772   5.960   6.479   6.286 -0.1432 -1.0462  0.1874
  167SOPE    C218773   6.066   6.599   6.453  0.1837  0.2862 -0.7576
  167SOPE    HS18774   6.139   6.645   6.382  0.5499 -1.1271 -1.3386
  167SOPE   O2118775   6.131   6.566   6.579 -0.1801  0.4300  0.2931
  167SOPE   C2118776   6.212   6.660   6.634  0.0257 -0.3245 -0.4204
  167SOPE   O2218777   6.243   6.766   6.590  0.4590 -0.6657 -0.5904
  167SOPE   C2218778   6.261   6.602   6.767 -0.7747  0.6577  0.1126
  167SOPE   H2R18779   6.318   6.510   6.744 -0.2121  1.1874 -0.6444
  167SOPE   H2S18780   6.173   6.569   6.827  0.2808  1.0007  1.9499
  167SOPE    C318781   5.958   6.704   6.480  0.1973 -0.0073 -0.1578
  167SOPE    HX18782   5.916   6.731   6.381 -1.2767 -0.4942  0.2984
  167SOPE    HY18783   6.011   6.792   6.523  1.7202 -0.7201 -0.5408
  167SOPE   O3118784   5.844   6.653   6.557 -0.2689 -0.4350 -0.3204
  167SOPE   C3118785   5.848   6.677   6.684  0.0590 -0.0634  0.8723
  167SOPE   O3218786   5.940   6.735   6.739  0.1106 -0.9716  0.2987
  167SOPE   C3218787   5.728   6.613   6.755 -0.0486 -0.5736 -0.0485
  167SOPE   H2X18788   5.628   6.630   6.710  0.2734  0.2982 -0.4711
  167SOPE   H2Y18789   5.729   6.672   6.850 -0.3944  0.7198 -0.8210
  167SOPE   C2318790   6.330   6.716   6.854  0.3432  0.7341  0.4863
  167SOPE   H3R18791   6.259   6.801   6.864 -0.3661  0.2639 -0.3344
  167SOPE   H3S18792   6.411   6.757   6.791 -1.0195  0.4291 -1.5776
  167SOPE   C2418793   6.386   6.671   6.993  0.0373  0.3161 -0.4548
  167SOPE   H4R18794   6.407   6.562   6.987  0.8730  0.2497  2.2018
  167SOPE   H4S18795   6.480   6.726   7.015  0.8122 -0.7139 -1.1197
  167SOPE   C2518796   6.282   6.698   7.092 -0.2105  0.2102 -0.6620
  167SOPE   H5R18797   6.243   6.802   7.084 -3.1740 -0.5298  2.1382
  167SOPE   H5S18798   6.194   6.635   7.069 -1.0305  0.3455  1.8594
  167SOPE   C2618799   6.320   6.669   7.234 -0.4206  0.5923  0.2748
  167SOPE   H6R18800   6.331   6.558   7.234 -1.7230  0.4463 -0.2748
  167SOPE   H6S18801   6.424   6.704   7.252 -0.5988  0.6766  1.1863
  167SOPE   C2718802   6.218   6.712   7.332  0.1621  0.1179  0.7764
  167SOPE   H7R18803   6.180   6.813   7.309 -3.0059 -1.4668 -1.7982
  167SOPE   H7S18804   6.136   6.637   7.324 -0.2177  0.7055 -1.5097
  167SOPE   C2818805   6.280   6.707   7.479  0.8898  0.3439  0.1062
  167SOPE   H8R18806   6.384   6.743   7.489  1.5768 -0.8091 -2.1046
  167SOPE   H8S18807   6.202   6.768   7.529 -0.2380 -0.1300 -1.0253
  167SOPE   C2918808   6.265   6.566   7.527 -0.0057 -0.1252 -0.0946
  167SOPE   H9118809   6.342   6.495   7.493  0.9197  0.2508  1.1189
  167SOPE  C21018810   6.166   6.511   7.608 -0.5756  0.2898  0.8452
  167SOPE  H10118811   6.180   6.406   7.638  1.3238 -0.1848 -1.4128
  167SOPE  C21118812   6.044   6.576   7.674 -0.8984  0.7159  1.0334
  167SOPE  H11R18813   5.991   6.512   7.748  2.3193 -1.9040  1.2585
  167SOPE  H11S18814   5.971   6.588   7.591 -0.4989 -0.8160  0.4358
  167SOPE  C21218815   6.069   6.709   7.751 -0.3224 -0.8590 -0.4496
  167SOPE  H12R18816   6.053   6.794   7.681 -2.5877 -0.0978  0.8663
  167SOPE  H12S18817   6.174   6.706   7.786 -0.4011 -1.0856 -0.2314
  167SOPE  C21318818   5.986   6.735   7.878 -0.8224  0.3136 -0.3258
  167SOPE  H13R18819   5.994   6.660   7.960  0.0914 -0.8542 -1.4304
  167SOPE  H13S18820   5.881   6.715   7.846 -1.3364  2.4466 -0.1076
  167SOPE  C21418821   5.977   6.871   7.951  1.0798 -0.1726  0.5137
  167SOPE  H14R18822   5.890   6.877   8.019 -0.3100 -0.9987 -1.1341
  167SOPE  H14S18823   5.950   6.943   7.872  0.6649  0.0601  0.8621
  167SOPE  C21518824   6.108   6.938   8.000  0.0618  0.4109  0.7229
  167SOPE  H15R18825   6.120   7.047   7.988  0.6096  0.2798  0.0175
  167SOPE  H15S18826   6.185   6.888   7.938  0.2901 -2.1341  2.8390
  167SOPE  C21618827   6.134   6.902   8.143 -0.5640  0.4935  0.2925
  167SOPE  H16R18828   6.164   6.797   8.164  1.7756  0.3633 -2.9343
  167SOPE  H16S18829   6.039   6.920   8.199 -0.3293  0.2999  0.7591
  167SOPE  C21718830   6.249   6.989   8.199  0.0605  1.2969  0.8712
  167SOPE  H17R18831   6.213   7.093   8.180  0.1840  1.0852 -0.6163
  167SOPE  H17S18832   6.336   6.970   8.133 -1.1587  1.4733 -0.8729
  167SOPE  C21818833   6.297   6.971   8.347 -0.0154 -0.2947  0.1274
  167SOPE  H18R18834   6.236   7.029   8.419  0.0844 -0.6392  0.4895
  167SOPE  H18S18835   6.397   7.019   8.347 -0.5601  0.8643 -0.2426
  167SOPE  H18T18836   6.304   6.866   8.384 -0.2899  0.2128  1.6960
  167SOPE   C3318837   5.756   6.470   6.802  0.1903 -0.1042 -0.2546
  167SOPE   H3X18838   5.851   6.461   6.858 -1.1125 -0.3984  1.9945
  167SOPE   H3Y18839   5.754   6.404   6.712  2.2169 -1.2178  0.4703
  167SOPE   C3418840   5.659   6.407   6.903  0.2262 -0.2718 -0.6626
  167SOPE   H4X18841   5.676   6.302   6.936 -0.8504  0.2047  1.5914
  167SOPE   H4Y18842   5.562   6.415   6.848  1.2396  0.8048 -2.3883
  167SOPE   C3518843   5.627   6.494   7.028 -0.4958  0.3206 -0.5377
  167SOPE   H5X18844   5.590   6.595   7.003 -0.4452  0.9713  1.7440
  167SOPE   H5Y18845   5.721   6.521   7.083 -0.5755 -0.5038  0.0266
  167SOPE   C3618846   5.532   6.423   7.129  0.0962 -0.8023  0.3992
  167SOPE   H6X18847   5.585   6.331   7.161 -1.2262 -2.6864 -2.4524
  167SOPE   H6Y18848   5.438   6.410   7.072  0.4936  2.6000 -1.3291
  167SOPE   C3718849   5.513   6.521   7.246 -0.5253  0.0030  0.6501
  167SOPE   H7X18850   5.445   6.598   7.203 -0.3544 -0.4683 -0.5128
  167SOPE   H7Y18851   5.611   6.562   7.279 -0.7295 -1.5027  3.4756
  167SOPE   C3818852   5.437   6.453   7.360  0.6648  1.0148  0.0245
  167SOPE   H8X18853   5.505   6.375   7.400 -1.9935 -2.3387 -1.5112
  167SOPE   H8Y18854   5.353   6.392   7.322  1.2324  0.6600 -0.6736
  167SOPE   C3918855   5.394   6.543   7.480 -0.0765  0.0464  0.7801
  167SOPE   H9X18856   5.363   6.641   7.440  1.6527  0.2798 -0.1099
  167SOPE   H9Y18857   5.481   6.561   7.547  0.1224 -0.1453  0.5790
  167SOPE  C31018858   5.287   6.470   7.566 -0.3145 -0.4728 -0.0817
  167SOPE  H10X18859   5.339   6.391   7.623 -1.2388 -2.3588 -1.7301
  167SOPE  H10Y18860   5.209   6.422   7.503  0.3068 -0.6696 -0.7185
  167SOPE  C31118861   5.227   6.560   7.675  0.5168  0.5581 -0.4094
  167SOPE  H11X18862   5.134   6.599   7.629  0.0722  1.5607  1.2451
  167SOPE  H11Y18863   5.292   6.649   7.691 -0.9980  1.6286  0.0298
  167SOPE  C31218864   5.182   6.481   7.802 -0.1596  0.6944  0.5170
  167SOPE  H12X18865   5.275   6.451   7.855 -0.2015 -1.4301 -0.5385
  167SOPE  H12Y18866   5.120   6.392   7.779  1.3222  0.5451 -3.5804
  167SOPE  C31318867   5.093   6.566   7.894  0.2484 -0.1579  0.1745
  167SOPE  H13X18868   5.008   6.596   7.829  1.1993  0.5496 -0.7909
  167SOPE  H13Y18869   5.148   6.662   7.909  0.5804 -0.4897  1.1101
  167SOPE  C31418870   5.063   6.498   8.026 -0.3184 -0.8824  0.0192
  167SOPE  H14X18871   5.158   6.464   8.071 -1.2050 -0.3507  2.4619
  167SOPE  H14Y18872   5.003   6.407   8.001 -1.2990 -0.2514  0.0150
  167SOPE  C31518873   4.985   6.593   8.110  0.2578 -0.0817  0.2954
  167SOPE  H15X18874   4.888   6.607   8.058  0.7825 -2.4354 -1.5216
  167SOPE  H15Y18875   5.040   6.688   8.128 -1.3364  0.7469  1.0087
  167SOPE  C31618876   4.962   6.542   8.257 -0.4805  0.2239  0.0207
  167SOPE  H16X18877   4.926   6.438   8.271  3.1372 -1.4906 -1.9157
  167SOPE  H16Y18878   4.898   6.612   8.316  2.1694  2.3261  0.6150
  167SOPE  C31718879   5.094   6.547   8.334  0.3200 -1.1196  0.0340
  167SOPE  H17X18880   5.150   6.643   8.333  1.4510 -1.7359  1.0423
  167SOPE  H17Y18881   5.165   6.475   8.287 -1.8652 -3.3442 -0.0914
  167SOPE  C31818882   5.080   6.504   8.482  0.3098  0.0025 -0.0134
  167SOPE  H18X18883   5.001   6.566   8.528  0.3491 -0.3808  0.5835
  167SOPE  H18Y18884   5.179   6.520   8.530 -0.9095  2.3795  1.8963
  167SOPE  H18Z18885   5.050   6.398   8.499 -1.0385  0.6253  1.7432
  168SOPE     N18886   6.345   4.843   6.417  0.1538 -0.0002 -0.1239
  168SOPE   HN118887   6.301   4.882   6.331 -0.1262 -0.7076 -0.3060
  168SOPE   HN218888   6.372   4.923   6.478  1.2287 -0.0574 -0.5038
  168SOPE   HN318889   6.440   4.804   6.400  0.9065  0.7868  1.9022
  168SOPE   C1218890   6.266   4.734   6.486  0.6144 -0.4144  0.7017
  168SOPE  H12A18891   6.161   4.769   6.485 -0.0115 -2.1426  2.0722
  168SOPE  H12B18892   6.304   4.727   6.591  0.0553 -0.6842  0.8858
  168SOPE   C1118893   6.289   4.601   6.418  0.1297  0.9993 -0.7603
  168SOPE  H11A18894   6.396   4.574   6.424  0.2315  1.5364 -0.1582
  168SOPE  H11B18895   6.275   4.600   6.307 -0.5656 -1.4306 -0.7065
  168SOPE     P18896   6.096   4.415   6.419  0.2926 -0.3844 -0.1457
  168SOPE   O1318897   6.138   4.318   6.314  0.8236  0.9144 -0.5737
  168SOPE   O1418898   5.991   4.513   6.381 -0.4080  0.0489  0.9571
  168SOPE   O1218899   6.207   4.501   6.486 -0.6090 -0.5852  0.0225
  168SOPE   O1118900   6.038   4.333   6.541 -0.5967 -0.0762  0.4677
  168SOPE    C118901   6.125   4.238   6.601 -0.3091 -0.2690 -0.0068
  168SOPE    HA18902   6.232   4.268   6.605 -0.5423  0.4210  1.3263
  168SOPE    HB18903   6.113   4.140   6.548 -0.1110 -0.0868 -0.3963
  168SOPE    C218904   6.089   4.219   6.753  0.3831 -0.3265 -0.4625
  168SOPE    HS18905   6.144   4.128   6.784  0.2603  0.0286  0.8280
  168SOPE   O2118906   5.946   4.198   6.776 -0.1099  0.6389 -0.1973
  168SOPE   C2118907   5.895   4.084   6.760  0.8803 -0.9611 -0.0029
  168SOPE   O2218908   5.943   3.988   6.714  0.2662  0.2795  0.6012
  168SOPE   C2218909   5.752   4.089   6.820  0.5205 -0.2942 -0.2202
  168SOPE   H2R18910   5.710   4.188   6.793  2.2673  0.4320 -0.4561
  168SOPE   H2S18911   5.762   4.083   6.931 -3.1694 -1.1219  0.1801
  168SOPE    C318912   6.128   4.342   6.827 -0.2165 -0.0166  0.2989
  168SOPE    HX18913   6.094   4.436   6.779 -0.0300 -0.0927  0.0153
  168SOPE    HY18914   6.239   4.349   6.834 -0.2823  1.8464 -0.0968
  168SOPE   O3118915   6.075   4.348   6.962 -0.0169 -0.3112  0.6280
  168SOPE   C3118916   6.138   4.281   7.059  0.2535 -0.5437  0.8220
  168SOPE   O3218917   6.235   4.214   7.044  0.2500 -0.4240 -0.1219
  168SOPE   C3218918   6.077   4.316   7.198 -0.1594  0.5283 -0.3600
  168SOPE   H2X18919   5.995   4.241   7.206  0.7207 -0.5462 -1.0970
  168SOPE   H2Y18920   6.047   4.423   7.206 -1.9173 -0.0678  2.4058
  168SOPE   C2318921   5.666   3.980   6.774 -0.0049 -0.3454 -0.0985
  168SOPE   H3R18922   5.717   3.882   6.765 -0.0832 -0.2663 -1.4670
  168SOPE   H3S18923   5.636   4.020   6.675 -0.0942  1.7112  0.7057
  168SOPE   C2418924   5.538   3.967   6.862 -0.6855  1.1413 -0.0944
  168SOPE   H4R18925   5.486   4.065   6.861 -1.2488  0.8468 -0.3393
  168SOPE   H4S18926   5.458   3.901   6.821 -2.0118  1.6403  1.5701
  168SOPE   C2518927   5.572   3.906   6.998  0.9575  0.3707  0.5596
  168SOPE   H5R18928   5.638   3.817   6.988 -0.7386 -0.7968 -0.9642
  168SOPE   H5S18929   5.632   3.984   7.049  0.9479 -0.1435  1.3840
  168SOPE   C2618930   5.454   3.872   7.082 -0.0867  0.7076  0.8835
  168SOPE   H6R18931   5.391   3.959   7.109  0.7054  0.7340  2.7795
  168SOPE   H6S18932   5.386   3.799   7.032  0.4226  0.0764  1.0992
  168SOPE   C2718933   5.493   3.823   7.220 -0.1703 -0.4278  0.6156
  168SOPE   H7R18934   5.564   3.739   7.209  1.1376  0.4814  1.8830
  168SOPE   H7S18935   5.541   3.902   7.280 -0.6580  2.3459 -2.3461
  168SOPE   C2818936   5.376   3.759   7.295  0.1242  0.0070  0.5631
  168SOPE   H8R18937   5.311   3.703   7.225  0.5438  1.2651 -0.8842
  168SOPE   H8S18938   5.421   3.685   7.365 -1.5283  0.3020  2.0067
  168SOPE   C2918939   5.292   3.859   7.376  0.3869 -0.3699  0.5983
  168SOPE   H9118940   5.206   3.893   7.317  0.3859  0.6792  1.1885
  168SOPE  C21018941   5.312   3.885   7.506  0.3981 -0.5920 -0.2809
  168SOPE  H10118942   5.253   3.963   7.556  0.4330 -0.1854 -0.8560
  168SOPE  C21118943   5.412   3.832   7.601 -0.6718  0.2517 -0.3869
  168SOPE  H11R18944   5.486   3.911   7.627 -0.6262 -0.2214  0.9943
  168SOPE  H11S18945   5.460   3.740   7.561 -0.9012 -1.3235  2.6600
  168SOPE  C21218946   5.347   3.783   7.733  0.4560  0.0735 -0.0980
  168SOPE  H12R18947   5.426   3.732   7.791 -0.1285  0.1106  0.7463
  168SOPE  H12S18948   5.276   3.700   7.712 -0.4824  0.3016  1.9820
  168SOPE  C21318949   5.294   3.899   7.813 -0.2629 -0.0602  0.4300
  168SOPE  H13R18950   5.187   3.914   7.788 -0.5053 -0.6866  1.0478
  168SOPE  H13S18951   5.332   4.001   7.790  0.8270 -0.0520  2.1090
  168SOPE  C21418952   5.290   3.884   7.961  0.2452 -0.1230 -0.5674
  168SOPE  H14R18953   5.391   3.869   8.007 -1.3472  0.7974  3.7299
  168SOPE  H14S18954   5.226   3.797   7.987  0.1725  0.1647  0.2566
  168SOPE  C21518955   5.229   3.998   8.041 -1.1011 -0.1910 -0.5076
  168SOPE  H15R18956   5.172   3.973   8.132 -0.9979  3.0656  0.5743
  168SOPE  H15S18957   5.146   4.038   7.979 -0.5403  0.0118 -1.1394
  168SOPE  C21618958   5.335   4.106   8.070 -1.2902 -0.1982 -0.7144
  168SOPE  H16R18959   5.406   4.140   7.992 -1.5293 -0.9350 -1.2622
  168SOPE  H16S18960   5.412   4.058   8.134 -1.0847 -1.7315 -2.0489
  168SOPE  C21718961   5.273   4.218   8.149  0.0451  0.0511  0.1389
  168SOPE  H17R18962   5.187   4.250   8.087  0.9375 -1.4374 -2.0106
  168SOPE  H17S18963   5.353   4.290   8.174 -0.8599  1.3620 -0.6298
  168SOPE  C21818964   5.225   4.171   8.291 -0.5157 -0.5120  0.0393
  168SOPE  H18R18965   5.310   4.139   8.355  0.9832  0.8713 -1.1782
  168SOPE  H18S18966   5.146   4.092   8.292 -0.4433 -0.6067 -0.7409
  168SOPE  H18T18967   5.185   4.262   8.341  0.3779  1.5656 -2.7635
  168SOPE   C3318968   6.179   4.297   7.314 -0.1516 -0.4419 -0.2665
  168SOPE   H3X18969   6.271   4.356   7.296 -0.1755  0.0797  1.1631
  168SOPE   H3Y18970   6.201   4.190   7.331 -2.1627 -0.7296  0.8514
  168SOPE   C3418971   6.133   4.349   7.449 -0.2234  0.2731  0.8528
  168SOPE   H4X18972   6.043   4.293   7.483  0.0677 -2.4064 -2.3966
  168SOPE   H4Y18973   6.111   4.458   7.435 -1.2314 -0.2627 -2.8699
  168SOPE   C3518974   6.231   4.323   7.564 -0.2094  0.2655  0.1912
  168SOPE   H5X18975   6.339   4.328   7.539 -0.2587  1.5584  0.1640
  168SOPE   H5Y18976   6.210   4.224   7.610 -4.2716 -0.7571 -3.2889
  168SOPE   C3618977   6.222   4.432   7.668 -0.2189 -0.2032 -0.6324
  168SOPE   H6X18978   6.116   4.465   7.672 -0.1172  0.0753 -0.2114
  168SOPE   H6Y18979   6.277   4.525   7.642 -2.0592  1.1753  0.2466
  168SOPE   C3718980   6.255   4.376   7.810  0.0351 -0.3228 -0.1822
  168SOPE   H7X18981   6.363   4.352   7.809 -0.2041 -1.4798 -1.3880
  168SOPE   H7Y18982   6.219   4.271   7.815  0.0820 -0.4740 -2.1243
  168SOPE   C3818983   6.205   4.465   7.927  0.2843 -0.0041  0.4868
  168SOPE   H8X18984   6.229   4.572   7.908 -0.4586  0.1241  0.2207
  168SOPE   H8Y18985   6.250   4.444   8.026 -2.5195 -2.6245  1.3748
  168SOPE   C3918986   6.046   4.466   7.943  0.8231  0.2417 -0.3878
  168SOPE   H9X18987   5.997   4.525   7.863 -0.3680  0.2701  0.3397
  168SOPE   H9Y18988   6.029   4.520   8.038  0.5984  0.2050 -0.4073
  168SOPE  C31018989   5.989   4.322   7.950  0.1744 -0.6543 -0.1881
  168SOPE  H10X18990   6.044   4.276   8.034  0.4163 -1.0131 -0.5379
  168SOPE  H10Y18991   5.994   4.272   7.851 -0.9329  0.4070 -0.8142
  168SOPE  C31118992   5.840   4.330   7.992  0.6505 -0.2820  0.1387
  168SOPE  H11X18993   5.778   4.369   7.908  2.3518  1.0826 -0.5361
  168SOPE  H11Y18994   5.839   4.415   8.064  1.6667  0.6079 -0.8561
  168SOPE  C31218995   5.781   4.204   8.053  0.1340 -0.1852 -0.2343
  168SOPE  H12X18996   5.830   4.117   8.003  0.1824 -0.6072  0.5206
  168SOPE  H12Y18997   5.672   4.198   8.035  0.4018 -1.6796 -1.5733
  168SOPE  C31318998   5.820   4.189   8.200  0.2096  0.0539  0.3822
  168SOPE  H13X18999   5.781   4.284   8.242  0.3353 -0.6007  2.0462
  168SOPE  H13Y19000   5.931   4.190   8.201  0.3173  0.7193 -2.3870
  168SOPE  C31419001   5.756   4.071   8.273  0.5038  0.7399 -0.3872
  168SOPE  H14X19002   5.790   3.981   8.219 -0.9441  0.2948 -0.6106
  168SOPE  H14Y19003   5.648   4.065   8.247  0.4290 -2.6465  0.2662
  168SOPE  C31519004   5.780   4.070   8.424 -1.1035 -1.0532 -0.1388
  168SOPE  H15X19005   5.717   4.147   8.473  1.3467  1.0089 -0.0218
  168SOPE  H15Y19006   5.887   4.086   8.449 -1.0207 -1.9863  0.1423
  168SOPE  C31619007   5.748   3.933   8.485 -0.1600 -0.7515  0.3692
  168SOPE  H16X19008   5.830   3.870   8.445  1.4551  1.2739  0.2573
  168SOPE  H16Y19009   5.659   3.883   8.442  0.3602 -0.2482 -1.3784
  168SOPE  C31719010   5.743   3.948   8.633 -0.6674 -0.0354 -0.7721
  168SOPE  H17X19011   5.649   3.999   8.663 -2.4092 -4.0069  1.1699
  168SOPE  H17Y19012   5.831   4.007   8.667 -1.1934 -1.0347  2.6107
  168SOPE  C31819013   5.743   3.808   8.702  0.1590 -0.2044 -0.5923
  168SOPE  H18X19014   5.654   3.745   8.680 -0.2219  0.8379 -2.1349
  168SOPE  H18Y19015   5.747   3.822   8.812 -1.8409 -0.7273 -0.4084
  168SOPE  H18Z19016   5.833   3.752   8.670  0.6415  1.8069 -3.0896
  169SOPE     N19017   3.257   6.221   6.605  0.4651  0.6752 -0.5921
  169SOPE   HN119018   3.358   6.206   6.585  0.6514  0.3343  0.5732
  169SOPE   HN219019   3.215   6.130   6.632  1.7279  0.2423 -0.0045
  169SOPE   HN319020   3.208   6.261   6.522  1.5808  3.2156 -0.1129
  169SOPE   C1219021   3.251   6.320   6.708 -0.2446 -0.3366  0.3812
  169SOPE  H12A19022   3.312   6.279   6.790  1.9590 -0.0817 -1.0504
  169SOPE  H12B19023   3.143   6.329   6.733 -1.0878 -1.1270 -2.4918
  169SOPE   C1119024   3.311   6.453   6.662 -0.4536 -0.4152 -0.0276
  169SOPE  H11A19025   3.413   6.430   6.626  0.1688 -0.8231  1.8836
  169SOPE  H11B19026   3.317   6.531   6.741  1.1116  0.9427 -1.4217
  169SOPE     P19027   3.258   6.644   6.488  0.1446  0.6076 -0.5339
  169SOPE   O1319028   3.308   6.609   6.352 -0.0989 -0.3376 -0.1885
  169SOPE   O1419029   3.352   6.728   6.564  0.0673 -0.0891 -0.1294
  169SOPE   O1219030   3.224   6.509   6.565  0.1144 -0.0864  0.4493
  169SOPE   O1119031   3.116   6.711   6.470  0.2762  0.1370 -0.1228
  169SOPE    C119032   3.004   6.692   6.555 -0.3513 -0.3564 -0.1959
  169SOPE    HA19033   3.005   6.597   6.613 -0.5938  0.1261  0.5968
  169SOPE    HB19034   2.907   6.692   6.501 -0.3694  1.5256 -0.2168
  169SOPE    C219035   2.998   6.821   6.641  0.4047 -0.1574 -0.5135
  169SOPE    HS19036   3.015   6.905   6.570  2.1109 -0.7871 -0.9178
  169SOPE   O2119037   3.095   6.799   6.744  0.6006 -0.6633 -0.2925
  169SOPE   C2119038   3.179   6.901   6.760 -0.4154  0.6025  0.0321
  169SOPE   O2219039   3.179   7.008   6.701  0.5797 -0.1784  0.1760
  169SOPE   C2219040   3.294   6.851   6.855  0.4717 -1.0036  0.0737
  169SOPE   H2R19041   3.387   6.840   6.795  1.1956 -0.2006  1.0289
  169SOPE   H2S19042   3.270   6.750   6.893  0.3286 -2.6596 -3.8860
  169SOPE    C319043   2.858   6.846   6.719 -0.0323  0.3472 -0.1435
  169SOPE    HX19044   2.822   6.752   6.766  2.9220 -0.3408  0.9588
  169SOPE    HY19045   2.772   6.868   6.651 -1.9417 -1.7291  1.4204
  169SOPE   O3119046   2.870   6.945   6.830  0.5520 -0.0224 -0.0197
  169SOPE   C3119047   2.819   7.068   6.812  0.3965 -0.2488 -1.0286
  169SOPE   O3219048   2.767   7.103   6.705 -0.5208  0.1296 -0.5547
  169SOPE   C3219049   2.857   7.159   6.928  0.7656  0.0063 -0.3986
  169SOPE   H2X19050   2.965   7.183   6.924  0.4245  2.5379  2.3229
  169SOPE   H2Y19051   2.840   7.108   7.024 -0.3524 -1.3490 -1.2788
  169SOPE   C2319052   3.334   6.958   6.962 -0.2205 -0.6490  0.5417
  169SOPE   H3R19053   3.376   7.049   6.914  2.0819 -2.5813 -1.4138
  169SOPE   H3S19054   3.419   6.917   7.022  1.1407  1.9353  0.5329
  169SOPE   C2419055   3.218   6.987   7.058  0.0451  0.4906  0.2435
  169SOPE   H4R19056   3.253   7.073   7.119 -0.4744  0.5850  0.4124
  169SOPE   H4S19057   3.131   7.005   6.991 -1.8388 -1.5714  1.9680
  169SOPE   C2519058   3.185   6.871   7.148  0.5070 -0.4250  0.4839
  169SOPE   H5R19059   3.172   6.777   7.090  1.0102 -0.4336  0.3829
  169SOPE   H5S19060   3.258   6.858   7.230 -0.5804  0.5258  1.6538
  169SOPE   C2619061   3.049   6.883   7.219 -0.1638  0.1372 -0.2523
  169SOPE   H6R19062   2.977   6.870   7.136  1.3181 -1.2571 -1.3858
  169SOPE   H6S19063   3.042   6.789   7.277  1.0290 -0.1723 -0.5786
  169SOPE   C2719064   3.040   7.016   7.298  0.0032 -0.1889  0.1585
  169SOPE   H7R19065   3.119   7.012   7.376  0.3831 -2.0752 -0.2680
  169SOPE   H7S19066   3.054   7.100   7.227  0.9418 -0.4315  0.0330
  169SOPE   C2819067   2.897   7.037   7.360 -0.5740  0.3371  0.3745
  169SOPE   H8R19068   2.898   7.142   7.396 -0.8273  0.0461  1.2731
  169SOPE   H8S19069   2.823   7.022   7.278  0.4232  1.1181 -0.6881
  169SOPE   C2919070   2.886   6.932   7.470  0.3405 -0.0352 -0.4305
  169SOPE   H9119071   2.853   6.834   7.432 -3.5950  1.4667 -1.4536
  169SOPE  C21019072   2.913   6.949   7.603  0.1442 -0.2789  0.4822
  169SOPE  H10119073   2.895   6.870   7.677  1.7221  0.5841  1.8546
  169SOPE  C21119074   2.954   7.084   7.656 -0.6093 -0.1156  0.0575
  169SOPE  H11R19075   2.870   7.129   7.713  0.3038 -0.0382  1.3751
  169SOPE  H11S19076   2.974   7.161   7.578 -0.4676  0.0439  0.2509
  169SOPE  C21219077   3.073   7.078   7.758  0.8272  0.0889  0.0452
  169SOPE  H12R19078   3.111   7.181   7.774  0.0092  0.1167  2.0705
  169SOPE  H12S19079   3.163   7.021   7.727  2.3611  2.4434 -0.0670
  169SOPE  C21319080   3.022   7.032   7.899  0.1851  0.2842 -0.0574
  169SOPE  H13R19081   2.977   6.931   7.900 -0.4360  0.5346 -1.2503
  169SOPE  H13S19082   2.936   7.094   7.930 -0.9550  0.6382 -3.4933
  169SOPE  C21419083   3.136   7.027   7.999  0.0872 -0.2658 -0.0447
  169SOPE  H14R19084   3.180   7.127   8.019 -2.9032  0.7716  1.9255
  169SOPE  H14S19085   3.214   6.957   7.961 -1.4896 -2.5753  0.6981
  169SOPE  C21519086   3.087   6.966   8.136  0.2953  0.3096 -0.2470
  169SOPE  H15R19087   3.177   6.927   8.188  1.4391  1.3811 -1.3278
  169SOPE  H15S19088   3.021   6.880   8.113 -0.2234  0.3370  1.0835
  169SOPE  C21619089   3.025   7.072   8.229 -1.1116  0.0386  0.0305
  169SOPE  H16R19090   2.936   7.112   8.176  0.1719 -0.1210 -2.3776
  169SOPE  H16S19091   3.103   7.148   8.252  1.2739 -2.1737 -0.4303
  169SOPE  C21719092   2.988   7.023   8.371  0.0761 -0.0812 -0.3833
  169SOPE  H17R19093   3.079   6.989   8.425  0.0774  1.4894  0.6691
  169SOPE  H17S19094   2.904   6.950   8.359 -2.9850  3.2566 -0.8084
  169SOPE  C21819095   2.919   7.128   8.451  0.2073  0.0928 -0.5936
  169SOPE  H18R19096   3.003   7.194   8.481 -0.3821  0.9992 -0.8826
  169SOPE  H18S19097   2.882   7.090   8.549  0.3527  1.9365  0.2207
  169SOPE  H18T19098   2.834   7.185   8.408 -0.0800  0.7668  0.7920
  169SOPE   C3319099   2.778   7.290   6.915 -0.0669  0.9661  0.2182
  169SOPE   H3X19100   2.675   7.273   6.954 -0.1792  1.7115  0.2640
  169SOPE   H3Y19101   2.777   7.329   6.811  2.8505  0.7561  0.0363
  169SOPE   C3419102   2.830   7.396   7.013  0.5127  0.4088 -0.4684
  169SOPE   H4X19103   2.760   7.483   7.018 -0.0214  0.0115 -0.9668
  169SOPE   H4Y19104   2.930   7.429   6.977  1.1696  0.7773  1.5666
  169SOPE   C3519105   2.839   7.352   7.163 -0.0092  0.0240  0.0583
  169SOPE   H5X19106   2.911   7.268   7.169  1.1318  1.0752  2.2257
  169SOPE   H5Y19107   2.748   7.296   7.196  0.4344  0.3283  1.9234
  169SOPE   C3619108   2.873   7.462   7.266 -0.1041  0.2647 -0.0390
  169SOPE   H6X19109   2.787   7.532   7.255 -0.4288 -0.0780  0.2865
  169SOPE   H6Y19110   2.969   7.514   7.249  1.1782 -0.9568  2.7497
  169SOPE   C3719111   2.867   7.414   7.414 -0.0508 -0.1088  0.4248
  169SOPE   H7X19112   2.957   7.354   7.440  0.3050 -0.0810 -0.6629
  169SOPE   H7Y19113   2.776   7.353   7.432 -0.7530  0.7133 -0.2450
  169SOPE   C3819114   2.854   7.537   7.504  0.9871  0.3628  1.0972
  169SOPE   H8X19115   2.948   7.595   7.490  0.0108  1.5017 -1.4615
  169SOPE   H8Y19116   2.775   7.609   7.472  3.2567  2.8879  0.7609
  169SOPE   C3919117   2.829   7.517   7.652 -0.3120 -0.1335  1.0069
  169SOPE   H9X19118   2.903   7.437   7.674  0.6216  0.0496 -1.2102
  169SOPE   H9Y19119   2.727   7.478   7.675 -1.9149  1.9664 -1.8640
  169SOPE  C31019120   2.859   7.637   7.746  0.7947 -0.4057  0.2299
  169SOPE  H10X19121   2.801   7.726   7.714  1.1697  0.1188  0.9772
  169SOPE  H10Y19122   2.963   7.674   7.747  0.5763  0.2064  1.0054
  169SOPE  C31119123   2.823   7.614   7.894  0.5731  0.1651 -0.0723
  169SOPE  H11X19124   2.712   7.615   7.904  0.2807 -4.1210 -0.8013
  169SOPE  H11Y19125   2.876   7.693   7.951  0.3390 -0.7394  1.4783
  169SOPE  C31219126   2.869   7.480   7.950 -0.3102  0.1181 -1.1196
  169SOPE  H12X19127   2.973   7.472   7.912  0.1055  1.9480 -0.4332
  169SOPE  H12Y19128   2.815   7.392   7.907  1.0760 -0.4856 -1.7019
  169SOPE  C31319129   2.883   7.490   8.102 -1.3909  0.9647 -0.1917
  169SOPE  H13X19130   2.949   7.578   8.115 -0.5699  0.4661 -0.8966
  169SOPE  H13Y19131   2.938   7.398   8.130 -1.5277  1.0385  0.3312
  169SOPE  C31419132   2.758   7.509   8.187  0.7598 -0.4833 -0.2308
  169SOPE  H14X19133   2.688   7.423   8.174 -0.9674  0.6460  1.1119
  169SOPE  H14Y19134   2.705   7.604   8.165  0.2225 -0.7293 -0.0354
  169SOPE  C31519135   2.801   7.516   8.332  0.4185  0.1133  0.2139
  169SOPE  H15X19136   2.870   7.601   8.355  2.1155 -0.7758 -1.3675
  169SOPE  H15Y19137   2.859   7.425   8.357  0.3162  0.4072  1.6343
  169SOPE  C31619138   2.690   7.519   8.428  0.6438 -0.1333 -0.4262
  169SOPE  H16X19139   2.622   7.438   8.394 -0.8503  1.0704 -0.3931
  169SOPE  H16Y19140   2.634   7.614   8.419 -2.3201 -1.7760 -0.3952
  169SOPE  C31719141   2.747   7.520   8.571 -0.0389  0.6141  0.7414
  169SOPE  H17X19142   2.804   7.615   8.578  1.4069 -0.3160  1.9767
  169SOPE  H17Y19143   2.821   7.438   8.575 -0.2621  0.3913  0.4120
  169SOPE  C31819144   2.636   7.509   8.679 -0.1711  0.1859  0.5014
  169SOPE  H18X19145   2.687   7.514   8.777  0.6736  0.9334  0.0374
  169SOPE  H18Y19146   2.584   7.411   8.680 -1.2699  0.7566  1.3623
  169SOPE  H18Z19147   2.571   7.599   8.684  0.2960  0.4849  1.2836
  170SOPE     N19148   4.177   0.578   6.198 -0.0746 -0.2221  0.1509
  170SOPE   HN119149   4.164   0.680   6.211  0.4450 -0.2457  0.9421
  170SOPE   HN219150   4.273   0.547   6.172  0.1603  0.6618 -0.0815
  170SOPE   HN319151   4.121   0.542   6.118  0.9895  3.1351 -2.3070
  170SOPE   C1219152   4.129   0.506   6.327 -0.0537  0.4594 -0.8671
  170SOPE  H12A19153   4.210   0.512   6.403 -0.2217  0.0102 -0.6477
  170SOPE  H12B19154   4.114   0.398   6.306  0.2266 -0.4533  2.8726
  170SOPE   C1119155   4.002   0.566   6.397  0.3994  0.4421  0.4892
  170SOPE  H11A19156   4.035   0.662   6.442  3.3997 -0.5205  0.5481
  170SOPE  H11B19157   3.966   0.493   6.474  3.9265 -0.7806  1.1535
  170SOPE     P19158   3.751   0.585   6.323 -0.0949  0.1541  0.3392
  170SOPE   O1319159   3.708   0.448   6.316  0.3077  0.4626  0.0960
  170SOPE   O1419160   3.670   0.684   6.247 -0.6041 -0.6289 -0.2777
  170SOPE   O1219161   3.908   0.596   6.294  0.5306  0.7794  0.5127
  170SOPE   O1119162   3.744   0.629   6.474  0.1557 -0.2538  0.2115
  170SOPE    C119163   3.618   0.665   6.540  0.4070  0.5777  0.2944
  170SOPE    HA19164   3.530   0.621   6.489 -0.8905  2.0108  1.2281
  170SOPE    HB19165   3.609   0.776   6.536 -0.1832  0.5678  1.2696
  170SOPE    C219166   3.625   0.617   6.686 -0.1902  0.4675 -0.9085
  170SOPE    HS19167   3.520   0.626   6.722 -0.7759 -0.7690 -2.2032
  170SOPE   O2119168   3.723   0.682   6.768 -0.0570 -0.8523 -0.6116
  170SOPE   C2119169   3.674   0.798   6.816 -0.1077 -0.5405  0.0180
  170SOPE   O2219170   3.559   0.841   6.799  0.1911  0.0539 -0.0098
  170SOPE   C2219171   3.780   0.862   6.902 -0.2195  0.5567 -0.1892
  170SOPE   H2R19172   3.758   0.968   6.927 -1.7140 -0.1601  1.7800
  170SOPE   H2S19173   3.875   0.855   6.845 -0.3616  1.8416 -0.6155
  170SOPE    C319174   3.662   0.469   6.685 -0.6807 -0.2479  0.6042
  170SOPE    HX19175   3.773   0.476   6.678 -0.6281 -0.4172  1.2085
  170SOPE    HY19176   3.619   0.409   6.602  0.8142 -0.3836 -0.1154
  170SOPE   O3119177   3.626   0.416   6.812 -0.0402 -0.1083  0.7322
  170SOPE   C3119178   3.695   0.311   6.859  0.4205 -0.4964  0.1180
  170SOPE   O3219179   3.762   0.238   6.794 -0.3049 -0.8161  0.1676
  170SOPE   C3219180   3.645   0.281   7.009 -0.1096  0.1529  0.7016
  170SOPE   H2X19181   3.620   0.175   7.031  1.9043 -0.4485  0.3373
  170SOPE   H2Y19182   3.563   0.349   7.040 -0.7723 -0.4184  0.2130
  170SOPE   C2319183   3.791   0.770   7.023  0.2372 -0.7918 -0.2343
  170SOPE   H3R19184   3.890   0.770   7.073  0.5311 -1.7142 -0.7947
  170SOPE   H3S19185   3.780   0.662   6.998 -1.3701 -0.8875  0.6838
  170SOPE   C2419186   3.684   0.795   7.133  0.4099  0.9196 -0.0968
  170SOPE   H4R19187   3.696   0.893   7.186 -3.5003  1.7810 -0.5338
  170SOPE   H4S19188   3.579   0.796   7.098  0.2280 -1.2528  0.2726
  170SOPE   C2519189   3.693   0.683   7.241  0.3677  0.0522 -0.8685
  170SOPE   H5R19190   3.612   0.694   7.316  0.2009 -0.9207 -0.8913
  170SOPE   H5S19191   3.671   0.586   7.193 -1.0465  0.6876 -1.5657
  170SOPE   C2619192   3.829   0.662   7.318  0.0464 -0.6347  0.0087
  170SOPE   H6R19193   3.817   0.589   7.401  0.7001  0.2779  0.9210
  170SOPE   H6S19194   3.915   0.625   7.258  2.3772 -0.9945  3.3375
  170SOPE   C2719195   3.877   0.787   7.380 -0.6602 -0.1661  0.3604
  170SOPE   H7R19196   3.902   0.853   7.295  0.7317 -1.7529 -0.5079
  170SOPE   H7S19197   3.813   0.843   7.452  0.7590  3.0010 -0.7205
  170SOPE   C2819198   4.013   0.770   7.455  0.0913  0.0866 -0.5655
  170SOPE   H8R19199   4.086   0.747   7.375  0.0221 -1.4237 -0.2065
  170SOPE   H8S19200   4.035   0.870   7.498 -0.2638  0.7918 -1.9647
  170SOPE   C2919201   4.017   0.668   7.569  0.1584  0.0739  0.2543
  170SOPE   H9119202   4.048   0.572   7.525 -1.7261 -1.5108  2.1866
  170SOPE  C21019203   4.009   0.676   7.696 -0.0016 -0.3385 -0.4370
  170SOPE  H10119204   4.005   0.578   7.746  1.4839 -0.9376 -1.4113
  170SOPE  C21119205   3.981   0.793   7.779  0.5983 -0.1523 -0.3194
  170SOPE  H11R19206   4.008   0.876   7.711 -0.1303  1.4194  1.2379
  170SOPE  H11S19207   4.041   0.790   7.872 -0.4857 -0.3982  0.3992
  170SOPE  C21219208   3.831   0.800   7.820 -0.5377  0.1498 -0.1614
  170SOPE  H12R19209   3.804   0.706   7.873 -2.7059  1.2797  0.8554
  170SOPE  H12S19210   3.761   0.814   7.735  0.8015  3.0534 -0.9027
  170SOPE  C21319211   3.791   0.904   7.927  0.0231 -0.0358 -0.2849
  170SOPE  H13R19212   3.747   0.988   7.869  1.0984 -1.0355 -2.6637
  170SOPE  H13S19213   3.890   0.934   7.970  0.6629 -2.3897 -0.0163
  170SOPE  C21419214   3.699   0.857   8.041 -0.3950  0.2284 -0.1965
  170SOPE  H14R19215   3.749   0.783   8.108 -1.4829 -0.4726 -0.1425
  170SOPE  H14S19216   3.608   0.806   8.004 -1.1967  1.7981 -0.4453
  170SOPE  C21519217   3.673   0.983   8.128  0.0885  0.1244  0.8189
  170SOPE  H15R19218   3.574   1.028   8.107 -0.4690 -0.6654  1.6652
  170SOPE  H15S19219   3.750   1.059   8.103 -1.3957  1.6302  0.6411
  170SOPE  C21619220   3.662   0.961   8.277  0.7917 -0.0474 -0.5651
  170SOPE  H16R19221   3.757   0.918   8.315 -0.1803 -1.8509 -0.0871
  170SOPE  H16S19222   3.569   0.903   8.292  1.2169 -0.4457  0.6073
  170SOPE  C21719223   3.643   1.095   8.350 -0.2306  0.6423 -0.0223
  170SOPE  H17R19224   3.546   1.126   8.306  0.2630  0.0584 -1.5909
  170SOPE  H17S19225   3.722   1.169   8.322  1.2123 -1.7676 -2.9303
  170SOPE  C21819226   3.627   1.085   8.502  0.0269  0.1157  0.1138
  170SOPE  H18R19227   3.582   1.178   8.543  0.8651  0.3634  0.4912
  170SOPE  H18S19228   3.719   1.057   8.557  1.2598  0.8578 -1.4639
  170SOPE  H18T19229   3.547   1.012   8.524 -2.3244  2.1146 -1.2667
  170SOPE   C3319230   3.758   0.305   7.113  0.5583  0.4753  0.0987
  170SOPE   H3X19231   3.802   0.407   7.110  2.4044 -0.2938 -1.0876
  170SOPE   H3Y19232   3.838   0.233   7.085 -0.4546 -0.3112 -0.8739
  170SOPE   C3419233   3.705   0.279   7.252  0.5310  0.2870  0.4526
  170SOPE   H4X19234   3.647   0.184   7.247  0.9404 -0.0447  1.6919
  170SOPE   H4Y19235   3.645   0.369   7.274  2.3796  1.3419  1.3616
  170SOPE   C3519236   3.808   0.264   7.364  1.1838  0.4216  0.5545
  170SOPE   H5X19237   3.877   0.351   7.351  0.4852  0.7646 -1.0307
  170SOPE   H5Y19238   3.859   0.166   7.353 -2.9035 -1.8845  0.0016
  170SOPE   C3619239   3.745   0.270   7.505 -0.1744 -0.2212 -0.6394
  170SOPE   H6X19240   3.682   0.180   7.521  0.1110 -0.2345  0.4782
  170SOPE   H6Y19241   3.683   0.363   7.505  0.8643  0.5058  0.7975
  170SOPE   C3719242   3.845   0.271   7.616  0.0042  0.8651  0.1500
  170SOPE   H7X19243   3.924   0.349   7.614  0.7951  0.0660 -1.2965
  170SOPE   H7Y19244   3.899   0.174   7.610 -0.3346  0.7663 -2.5593
  170SOPE   C3819245   3.781   0.258   7.761  0.4310 -0.9497  1.0201
  170SOPE   H8X19246   3.729   0.160   7.750  0.0021 -0.4592 -3.5077
  170SOPE   H8Y19247   3.704   0.338   7.768  1.7481  0.4483  0.0546
  170SOPE   C3919248   3.880   0.265   7.875 -0.3424  0.5881  1.3012
  170SOPE   H9X19249   3.904   0.372   7.894  1.2276  1.0429 -2.4377
  170SOPE   H9Y19250   3.971   0.225   7.827 -2.4932 -1.2632 -1.5430
  170SOPE  C31019251   3.836   0.176   7.994 -0.6390 -0.1892  0.6418
  170SOPE  H10X19252   3.917   0.154   8.067 -1.7150 -2.6736  1.2009
  170SOPE  H10Y19253   3.808   0.074   7.959  0.0442  0.1106 -0.8346
  170SOPE  C31119254   3.715   0.237   8.068 -0.2798 -0.8070 -0.3176
  170SOPE  H11X19255   3.672   0.169   8.144 -1.4084  1.9971  1.7314
  170SOPE  H11Y19256   3.632   0.235   7.994  0.6385 -2.1458 -1.3549
  170SOPE  C31219257   3.725   0.380   8.127 -0.2361  0.3729  0.2792
  170SOPE  H12X19258   3.625   0.411   8.166  0.2796  0.2436  1.7447
  170SOPE  H12Y19259   3.757   0.444   8.042  0.5494  0.4143  0.6012
  170SOPE  C31319260   3.834   0.409   8.231  0.1172 -0.0949  0.0353
  170SOPE  H13X19261   3.924   0.368   8.181  0.1374  0.1458 -0.1259
  170SOPE  H13Y19262   3.815   0.363   8.330  2.2224  1.0431  1.0401
  170SOPE  C31419263   3.853   0.557   8.257 -0.2683 -0.3673 -0.0899
  170SOPE  H14X19264   3.768   0.604   8.312  0.4194  1.1811 -0.3124
  170SOPE  H14Y19265   3.854   0.617   8.163 -1.7025 -1.2811 -0.7170
  170SOPE  C31519266   3.986   0.604   8.332 -0.2098  0.3753 -0.3818
  170SOPE  H15X19267   4.072   0.568   8.273  0.8090  0.2567  1.1394
  170SOPE  H15Y19268   3.998   0.559   8.433 -2.0711 -2.0701 -1.1514
  170SOPE  C31619269   3.998   0.754   8.331  0.1114 -0.5201 -0.1762
  170SOPE  H16X19270   3.915   0.796   8.391  1.6171  0.1348  1.5434
  170SOPE  H16Y19271   3.984   0.790   8.227  0.6538  0.2481  0.0053
  170SOPE  C31719272   4.133   0.812   8.382 -0.3326 -1.0842 -0.3788
  170SOPE  H17X19273   4.148   0.782   8.488  1.5529 -0.0633 -0.3157
  170SOPE  H17Y19274   4.125   0.923   8.380  1.4025 -0.9301 -2.2497
  170SOPE  C31819275   4.253   0.784   8.287  0.2013  0.1063  0.0504
  170SOPE  H18X19276   4.275   0.676   8.289  0.0246  0.0425 -0.8409
  170SOPE  H18Y19277   4.344   0.834   8.327  0.8266 -0.5202 -0.5651
  170SOPE  H18Z19278   4.244   0.823   8.183  1.6656  2.7076  0.8077
  171SOPE     N19279   1.871   3.253   6.305  0.1280  0.0343 -0.2868
  171SOPE   HN119280   1.861   3.353   6.331  0.1326 -0.2807  1.0035
  171SOPE   HN219281   1.944   3.253   6.232  0.9379  0.8298  0.4945
  171SOPE   HN319282   1.777   3.214   6.282  0.6230 -1.2055 -0.2839
  171SOPE   C1219283   1.925   3.184   6.428  0.3052  0.1580 -0.5280
  171SOPE  H12A19284   1.934   3.078   6.395  0.8405 -1.8339  5.0250
  171SOPE  H12B19285   1.848   3.198   6.507 -1.6397 -0.8610 -2.1597
  171SOPE   C1119286   2.060   3.235   6.491  0.1241  0.2247  0.0441
  171SOPE  H11A19287   2.071   3.173   6.583 -0.1857  0.2556  0.1032
  171SOPE  H11B19288   2.042   3.335   6.536  0.2231  0.6909 -0.9404
  171SOPE     P19289   2.257   3.120   6.356  0.3599  0.0577  0.0225
  171SOPE   O1319290   2.383   3.175   6.296  0.0367  0.0080  0.3380
  171SOPE   O1419291   2.174   3.022   6.277 -0.4722 -0.6390 -0.5662
  171SOPE   O1219292   2.174   3.248   6.411  0.9608  0.1574  0.6221
  171SOPE   O1119293   2.292   3.045   6.485 -0.0983 -0.0103 -0.0600
  171SOPE    C119294   2.375   3.120   6.583 -0.1086  0.3005  0.6078
  171SOPE    HA19295   2.331   3.221   6.598 -0.9418  0.1946 -0.9294
  171SOPE    HB19296   2.479   3.127   6.545 -1.0648 -0.3228 -2.3800
  171SOPE    C219297   2.358   3.049   6.717 -0.6082  0.1972  0.1240
  171SOPE    HS19298   2.418   2.955   6.717  0.4494  0.8555  0.7671
  171SOPE   O2119299   2.226   3.035   6.758  0.2616 -0.3362  0.1505
  171SOPE   C2119300   2.197   2.931   6.842 -0.3955 -0.6069  0.4009
  171SOPE   O2219301   2.269   2.837   6.864  0.1465  0.3091 -0.2206
  171SOPE   C2219302   2.059   2.953   6.894 -0.1893  0.8271 -0.2960
  171SOPE   H2R19303   1.993   2.985   6.810 -0.1294  1.0488 -0.2582
  171SOPE   H2S19304   2.087   3.036   6.962  3.0408  0.1134 -0.5875
  171SOPE    C319305   2.435   3.137   6.820  0.3809 -0.8880  0.6161
  171SOPE    HX19306   2.376   3.228   6.846 -0.5644 -1.6209  1.0893
  171SOPE    HY19307   2.529   3.173   6.774  0.5504 -0.4929  1.2532
  171SOPE   O3119308   2.482   3.057   6.934  0.7092 -0.2146 -0.4462
  171SOPE   C3119309   2.421   3.083   7.048  0.9334  0.3409 -0.3967
  171SOPE   O3219310   2.328   3.163   7.063  0.0176  0.0931 -0.0670
  171SOPE   C3219311   2.473   2.974   7.150  0.1052 -0.8405 -0.0374
  171SOPE   H2X19312   2.581   2.998   7.147 -0.3289  1.3086 -0.2743
  171SOPE   H2Y19313   2.444   2.872   7.115 -0.6000 -0.3307 -0.9884
  171SOPE   C2319314   1.999   2.834   6.972 -0.5504  0.2952  0.5611
  171SOPE   H3R19315   2.085   2.775   7.011 -0.3495  0.5858  0.5598
  171SOPE   H3S19316   1.959   2.765   6.895  0.8176  0.6750 -0.5431
  171SOPE   C2419317   1.913   2.871   7.093 -0.2931 -0.7008 -0.4742
  171SOPE   H4R19318   1.856   2.789   7.141 -1.1970  1.2977  2.1547
  171SOPE   H4S19319   1.985   2.920   7.162  1.7832 -3.4322 -0.5254
  171SOPE   C2519320   1.799   2.972   7.053  0.0250  0.7385 -0.3513
  171SOPE   H5R19321   1.848   3.062   7.011  1.0672  1.3302  2.0139
  171SOPE   H5S19322   1.730   2.921   6.982  2.3541 -0.7707 -1.6530
  171SOPE   C2619323   1.715   3.004   7.176  1.1472  0.1352  0.4711
  171SOPE   H6R19324   1.658   2.911   7.201  0.3824  0.7039  0.8898
  171SOPE   H6S19325   1.789   3.018   7.258  0.1231 -0.7721  1.5995
  171SOPE   C2719326   1.623   3.129   7.169 -0.3912  0.2965 -1.1434
  171SOPE   H7R19327   1.687   3.218   7.152 -0.6935  0.9103  0.6533
  171SOPE   H7S19328   1.557   3.124   7.079  0.0616  0.6113 -1.4939
  171SOPE   C2819329   1.548   3.163   7.306 -0.5207  0.1731  0.3588
  171SOPE   H8R19330   1.624   3.190   7.382  0.5606  0.9200 -0.9448
  171SOPE   H8S19331   1.505   3.263   7.284  0.3479  0.5431  0.3197
  171SOPE   C2919332   1.449   3.056   7.342 -0.1106  0.3580  0.3525
  171SOPE   H9119333   1.459   2.956   7.297 -2.9595  0.8756 -1.7137
  171SOPE  C21019334   1.345   3.076   7.425 -0.0714  0.0069  0.1749
  171SOPE  H10119335   1.269   2.998   7.439  0.2542 -0.1222  1.3127
  171SOPE  C21119336   1.315   3.204   7.487 -0.4915  0.0667  0.5548
  171SOPE  H11R19337   1.209   3.213   7.519  0.2083 -0.6008  3.3225
  171SOPE  H11S19338   1.331   3.291   7.420  0.5644 -0.8380 -0.4149
  171SOPE  C21219339   1.404   3.224   7.613 -0.4214  0.0255 -0.4114
  171SOPE  H12R19340   1.386   3.319   7.668 -2.3384  0.4889 -1.7573
  171SOPE  H12S19341   1.512   3.226   7.589 -0.3648  2.5316 -0.2357
  171SOPE  C21319342   1.377   3.113   7.720 -0.0651 -0.4742 -0.0884
  171SOPE  H13R19343   1.448   3.031   7.695  0.8944  0.1531  0.5030
  171SOPE  H13S19344   1.274   3.073   7.717 -0.6884  0.8215  1.9771
  171SOPE  C21419345   1.397   3.162   7.871 -0.2888 -0.0714 -0.4510
  171SOPE  H14R19346   1.347   3.261   7.881 -2.4069 -1.0640 -0.6539
  171SOPE  H14S19347   1.507   3.169   7.887 -0.1643 -2.0527 -0.1764
  171SOPE  C21519348   1.329   3.066   7.977  0.0665 -0.1371 -0.1862
  171SOPE  H15R19349   1.389   2.973   7.962  1.4786  0.7755 -0.3583
  171SOPE  H15S19350   1.225   3.057   7.938 -1.1912  0.8801  2.6830
  171SOPE  C21619351   1.322   3.120   8.117  0.4069 -0.4060 -0.0710
  171SOPE  H16R19352   1.246   3.065   8.177 -0.2683 -0.6338 -1.1058
  171SOPE  H16S19353   1.282   3.223   8.107  1.4133  0.0142  0.1281
  171SOPE  C21719354   1.449   3.116   8.203 -0.0420  0.2570 -0.1282
  171SOPE  H17R19355   1.538   3.151   8.146  0.0942  0.0534 -0.0421
  171SOPE  H17S19356   1.456   3.010   8.234  0.2599  0.4841  0.6112
  171SOPE  C21819357   1.443   3.200   8.331  0.7928  0.6001  0.8791
  171SOPE  H18R19358   1.545   3.205   8.377  1.8116 -0.7610 -1.0786
  171SOPE  H18S19359   1.374   3.162   8.409  2.0728 -2.0717  0.8271
  171SOPE  H18T19360   1.415   3.302   8.297 -0.5691 -0.1507 -0.3601
  171SOPE   C3319361   2.425   3.007   7.293 -1.1989 -0.5977 -0.4460
  171SOPE   H3X19362   2.318   2.979   7.307 -1.0536 -0.2934  1.6033
  171SOPE   H3Y19363   2.420   3.117   7.310  0.7040 -0.2254 -1.9856
  171SOPE   C3419364   2.518   2.946   7.394  0.0902  0.1164 -0.1875
  171SOPE   H4X19365   2.626   2.971   7.381  0.1906 -0.4019 -0.3753
  171SOPE   H4Y19366   2.522   2.836   7.379 -0.2471  0.3215 -1.9433
  171SOPE   C3519367   2.479   2.977   7.535 -0.0218 -0.5863  0.0908
  171SOPE   H5X19368   2.374   2.958   7.567  0.2514  1.6563  2.6345
  171SOPE   H5Y19369   2.486   3.087   7.548  2.6900 -0.6680 -0.1285
  171SOPE   C3619370   2.566   2.910   7.643  0.1782 -0.2335 -0.3735
  171SOPE   H6X19371   2.673   2.939   7.639 -0.2897  1.8779  0.6656
  171SOPE   H6Y19372   2.548   2.801   7.635 -1.2686  0.0924 -2.2250
  171SOPE   C3719373   2.508   2.951   7.780  0.0975  0.5369 -0.3509
  171SOPE   H7X19374   2.399   2.929   7.777  0.2862 -0.3959 -3.2114
  171SOPE   H7Y19375   2.521   3.058   7.805  0.5671  0.6252 -0.9600
  171SOPE   C3819376   2.585   2.878   7.895  0.0912 -0.0239 -0.0545
  171SOPE   H8X19377   2.691   2.911   7.901  1.0204 -1.7441 -3.9568
  171SOPE   H8Y19378   2.603   2.772   7.866 -0.2402 -0.2680  0.6055
  171SOPE   C3919379   2.505   2.887   8.024 -0.2182  0.5689  0.4444
  171SOPE   H9X19380   2.555   2.826   8.103 -0.2002  0.1914  0.1439
  171SOPE   H9Y19381   2.406   2.840   8.004  1.3260 -2.0729 -1.6679
  171SOPE  C31019382   2.510   3.032   8.072  0.8795  0.6591 -0.7027
  171SOPE  H10X19383   2.453   3.098   8.004 -1.9681 -1.1521 -0.2424
  171SOPE  H10Y19384   2.614   3.070   8.079  1.4753 -0.8989 -0.5822
  171SOPE  C31119385   2.435   3.042   8.212 -0.2085 -0.3190  0.4029
  171SOPE  H11X19386   2.363   2.957   8.212  0.8191 -1.2594 -1.2538
  171SOPE  H11Y19387   2.370   3.131   8.203  0.6774  0.2344 -0.8685
  171SOPE  C31219388   2.532   3.053   8.324  0.3142 -0.0125 -0.0118
  171SOPE  H12X19389   2.580   3.152   8.312 -0.1838  0.4308  1.4725
  171SOPE  H12Y19390   2.604   2.968   8.316 -0.4372 -0.5640 -1.2628
  171SOPE  C31319391   2.466   3.046   8.463  0.2261  0.1352 -0.5134
  171SOPE  H13X19392   2.401   2.956   8.468 -1.2312  1.1929  2.8789
  171SOPE  H13Y19393   2.394   3.129   8.480 -0.3721 -0.7387  1.5930
  171SOPE  C31419394   2.571   3.046   8.582  0.2769  0.1199  0.5862
  171SOPE  H14X19395   2.615   3.145   8.607 -1.0044  1.0463 -0.6439
  171SOPE  H14Y19396   2.661   2.990   8.549  0.9516  0.5243  1.6879
  171SOPE  C31519397   2.527   2.949   8.700 -0.2182 -0.4237  0.1968
  171SOPE  H15X19398   2.479   2.855   8.665 -2.2336  0.4593  0.4440
  171SOPE  H15Y19399   2.458   3.010   8.762  0.6123 -0.3824  1.1031
  171SOPE  C31619400   2.658   2.915   8.782 -0.0240 -0.1296  0.1137
  171SOPE  H16X19401   2.629   2.868   8.878  0.8300  0.1397  0.5182
  171SOPE  H16Y19402   2.721   3.006   8.797  0.0623 -0.4829  2.2181
  171SOPE  C31719403   2.750   2.813   8.711 -0.0692  0.2719 -0.6047
  171SOPE  H17X19404   2.790   2.864   8.620  0.6662  0.2919 -0.2779
  171SOPE  H17Y19405   2.687   2.728   8.680 -0.6770  1.0064 -1.4260
  171SOPE  C31819406   2.873   2.765   8.802 -0.1581 -0.9777 -0.2523
  171SOPE  H18X19407   2.938   2.694   8.746  0.1902 -0.5066 -0.4518
  171SOPE  H18Y19408   2.834   2.711   8.891 -0.2907  1.5890  1.3517
  171SOPE  H18Z19409   2.934   2.852   8.834  1.1481 -2.0797  0.3890
  172SOPE     N19410   1.927   4.007   6.316 -0.0038  0.0105 -0.3981
  172SOPE   HN119411   1.916   3.909   6.285  1.7525  0.5947 -3.1875
  172SOPE   HN219412   1.840   4.061   6.297 -0.0341  0.0792 -0.0763
  172SOPE   HN319413   1.998   4.053   6.255 -1.0165  0.5105 -1.2409
  172SOPE   C1219414   1.953   4.001   6.467 -0.0556 -0.1170 -0.1712
  172SOPE  H12A19415   1.923   4.099   6.510 -0.8132 -0.4093 -0.0273
  172SOPE  H12B19416   2.062   3.984   6.482 -0.8704 -3.8438  2.9709
  172SOPE   C1119417   1.870   3.887   6.523  0.9810  0.7484 -0.2301
  172SOPE  H11A19418   1.764   3.914   6.503  1.1899  0.6109 -1.6380
  172SOPE  H11B19419   1.893   3.873   6.631  3.6779 -0.8626 -0.9212
  172SOPE     P19420   1.951   3.633   6.491  0.1053 -0.0794 -0.0038
  172SOPE   O1319421   2.100   3.640   6.493 -0.1747 -0.0682 -0.2332
  172SOPE   O1419422   1.895   3.522   6.415  0.0123 -0.7968 -0.5805
  172SOPE   O1219423   1.896   3.770   6.439  0.1908 -0.1159 -0.0340
  172SOPE   O1119424   1.899   3.624   6.636  0.0969  0.0928 -0.6076
  172SOPE    C119425   1.954   3.551   6.738 -0.6173 -0.7906 -0.0048
  172SOPE    HA19426   2.063   3.538   6.718 -0.2852  1.6318 -0.0730
  172SOPE    HB19427   1.918   3.446   6.739  1.0135 -1.4251  2.1734
  172SOPE    C219428   1.936   3.601   6.889 -0.0689  1.0844  0.5209
  172SOPE    HS19429   1.955   3.513   6.954 -2.0391 -0.3528 -0.7320
  172SOPE   O2119430   1.804   3.655   6.907  0.0878 -0.7716  0.4554
  172SOPE   C2119431   1.717   3.562   6.926 -0.1142  0.6508  0.3423
  172SOPE   O2219432   1.733   3.444   6.917 -0.4352 -0.1527  0.4146
  172SOPE   C2219433   1.581   3.631   6.946 -0.0096  0.7219  0.5716
  172SOPE   H2R19434   1.521   3.595   6.860  1.7599  0.4629 -0.5988
  172SOPE   H2S19435   1.577   3.742   6.946  1.3833  0.7805  0.1260
  172SOPE    C319436   2.040   3.706   6.909 -0.1215  0.1811 -0.1478
  172SOPE    HX19437   2.021   3.791   6.840 -0.7170  0.0711 -0.1306
  172SOPE    HY19438   2.137   3.661   6.881 -1.5421 -1.5543 -2.7728
  172SOPE   O3119439   2.026   3.766   7.047  0.0982 -0.4030  0.2058
  172SOPE   C3119440   2.065   3.701   7.147  0.4399 -0.7086 -0.3023
  172SOPE   O3219441   2.097   3.582   7.153  0.0474 -0.0361 -0.2103
  172SOPE   C3219442   2.037   3.792   7.266 -1.1837 -0.1126 -0.3056
  172SOPE   H2X19443   1.940   3.846   7.258 -0.6177  1.2869  1.5079
  172SOPE   H2Y19444   2.113   3.873   7.265 -0.4482 -0.7430  1.1773
  172SOPE   C2319445   1.500   3.581   7.065  0.1892 -0.4772 -0.3667
  172SOPE   H3R19446   1.489   3.471   7.076  1.9781 -0.5396  1.4492
  172SOPE   H3S19447   1.395   3.619   7.063  0.7011  0.9411 -1.7606
  172SOPE   C2419448   1.565   3.627   7.195  0.3416 -0.2822 -0.2528
  172SOPE   H4R19449   1.660   3.569   7.197  0.3181 -0.3139  0.0256
  172SOPE   H4S19450   1.584   3.737   7.195  0.2941 -0.2706  0.4708
  172SOPE   C2519451   1.476   3.595   7.314  0.7664  0.1331 -0.5674
  172SOPE   H5R19452   1.490   3.492   7.352 -0.0687 -0.1798 -1.1002
  172SOPE   H5S19453   1.518   3.655   7.397  0.2495 -0.6935  0.3096
  172SOPE   C2619454   1.332   3.648   7.300  0.5268  0.1591 -0.2661
  172SOPE   H6R19455   1.329   3.751   7.259 -1.2447  0.1720 -0.1564
  172SOPE   H6S19456   1.259   3.589   7.242 -0.2345  1.7449 -0.9673
  172SOPE   C2719457   1.267   3.668   7.443 -0.3242 -0.7829  0.3711
  172SOPE   H7R19458   1.323   3.758   7.477 -2.7966  2.2308 -2.8213
  172SOPE   H7S19459   1.157   3.682   7.446 -0.3924 -1.3606  0.7355
  172SOPE   C2819460   1.287   3.555   7.540 -0.0180  0.0131 -0.7003
  172SOPE   H8R19461   1.232   3.469   7.497  2.6762 -1.9849 -0.4502
  172SOPE   H8S19462   1.394   3.524   7.550 -0.1293 -0.1025  0.2052
  172SOPE   C2919463   1.218   3.598   7.663 -0.2068 -0.1129  0.6195
  172SOPE   H9119464   1.108   3.598   7.657 -0.1543 -1.4462 -1.3537
  172SOPE  C21019465   1.275   3.647   7.771  0.0328 -0.5301 -0.0095
  172SOPE  H10119466   1.207   3.678   7.852  1.2902  0.0241  0.8735
  172SOPE  C21119467   1.421   3.663   7.790 -0.0901  0.3812 -0.7710
  172SOPE  H11R19468   1.468   3.763   7.798 -0.7515  0.8640 -2.5327
  172SOPE  H11S19469   1.481   3.625   7.705  1.3734  0.6803  0.0854
  172SOPE  C21219470   1.468   3.582   7.921  0.2685 -0.0982  0.3082
  172SOPE  H12R19471   1.575   3.563   7.897  0.6179  1.1405  0.7547
  172SOPE  H12S19472   1.415   3.485   7.919 -0.5526  0.3495 -0.3452
  172SOPE  C21319473   1.456   3.662   8.053  0.0803 -1.3527 -0.3894
  172SOPE  H13R19474   1.397   3.754   8.033  0.0394 -1.1157  0.7638
  172SOPE  H13S19475   1.562   3.686   8.076  0.1086  1.6029 -2.8753
  172SOPE  C21419476   1.395   3.587   8.168 -0.2157  0.5332  0.7628
  172SOPE  H14R19477   1.437   3.635   8.259 -3.1270 -0.5997  2.8851
  172SOPE  H14S19478   1.441   3.487   8.186  0.9195  1.1329  1.2702
  172SOPE  C21519479   1.238   3.587   8.161 -0.1101  0.1395  0.5666
  172SOPE  H15R19480   1.198   3.515   8.236 -0.2791  3.1016  3.5549
  172SOPE  H15S19481   1.203   3.533   8.070 -2.7850 -1.0478  2.1581
  172SOPE  C21619482   1.169   3.723   8.185 -0.2447 -0.2400 -0.0364
  172SOPE  H16R19483   1.203   3.804   8.118  1.6168 -0.1826  0.9257
  172SOPE  H16S19484   1.205   3.756   8.285 -0.2669  0.4874 -0.2665
  172SOPE  C21719485   1.018   3.713   8.194  1.0186  0.6335  0.0033
  172SOPE  H17R19486   1.012   3.659   8.291  3.4243  0.0080 -0.1222
  172SOPE  H17S19487   0.965   3.649   8.121  3.7397 -2.9571  0.8910
  172SOPE  C21819488   0.937   3.843   8.201  0.2430  0.1594 -0.2774
  172SOPE  H18R19489   0.843   3.825   8.256 -0.2921 -0.7797 -1.4651
  172SOPE  H18S19490   0.914   3.877   8.098 -1.9913 -2.0378 -0.5827
  172SOPE  H18T19491   0.997   3.914   8.263  0.1422 -0.4969  0.5887
  172SOPE   C3319492   2.053   3.733   7.411 -0.0734 -0.3570 -0.1631
  172SOPE   H3X19493   2.148   3.677   7.429 -0.6345 -0.8894  1.2185
  172SOPE   H3Y19494   1.968   3.662   7.414  0.9436 -1.5985  0.0774
  172SOPE   C3419495   2.043   3.847   7.513 -0.0068 -0.5593 -0.1894
  172SOPE   H4X19496   1.960   3.921   7.506  1.0618  0.8049  0.8460
  172SOPE   H4Y19497   2.140   3.901   7.517  0.9409 -2.1515 -0.7837
  172SOPE   C3519498   2.026   3.767   7.643 -0.2960 -0.3033 -0.0509
  172SOPE   H5X19499   2.104   3.687   7.646 -0.2769 -0.2988 -0.4707
  172SOPE   H5Y19500   1.930   3.712   7.632 -1.8112  2.1073  0.2510
  172SOPE   C3619501   2.043   3.846   7.780 -0.0546 -0.2287  0.1869
  172SOPE   H6X19502   1.969   3.929   7.771  0.3781  0.1061 -0.3125
  172SOPE   H6Y19503   2.148   3.882   7.783 -0.7466  1.8466  1.1812
  172SOPE   C3719504   2.029   3.757   7.904  0.5362  0.3353 -0.5858
  172SOPE   H7X19505   2.093   3.665   7.903  0.6087  0.3893 -1.3792
  172SOPE   H7Y19506   1.925   3.718   7.894  0.6401  0.0166 -0.4342
  172SOPE   C3819507   2.042   3.843   8.037  0.3137  0.6552 -0.2441
  172SOPE   H8X19508   1.965   3.923   8.041 -0.8668 -0.5033  0.9570
  172SOPE   H8Y19509   2.145   3.883   8.031  0.7243 -0.2067  0.7432
  172SOPE   C3919510   2.019   3.752   8.153  0.6348 -0.0751 -0.7827
  172SOPE   H9X19511   2.058   3.799   8.246 -1.3414 -0.6419  0.4052
  172SOPE   H9Y19512   2.085   3.663   8.145  0.6555 -0.1788  0.3678
  172SOPE  C31019513   1.878   3.709   8.171 -0.0237  0.0391 -0.1932
  172SOPE  H10X19514   1.839   3.659   8.080  0.9965 -2.3208  0.6075
  172SOPE  H10Y19515   1.811   3.797   8.185  1.3701  1.2130 -0.5854
  172SOPE  C31119516   1.856   3.604   8.285  0.2060  0.5375 -0.1568
  172SOPE  H11X19517   1.895   3.649   8.379 -2.0913 -0.8498  1.5672
  172SOPE  H11Y19518   1.904   3.509   8.253  1.2870  0.7280  0.8279
  172SOPE  C31219519   1.710   3.599   8.317 -0.2741  0.4300 -0.7125
  172SOPE  H12X19520   1.662   3.530   8.244 -0.7836 -1.6848  1.4881
  172SOPE  H12Y19521   1.658   3.696   8.304 -3.2725 -0.7149  1.4939
  172SOPE  C31319522   1.682   3.536   8.457  0.2790 -0.7331  0.7831
  172SOPE  H13X19523   1.577   3.500   8.456  0.2952 -0.7638  0.1910
  172SOPE  H13Y19524   1.698   3.607   8.541 -2.8772  0.3494  0.5995
  172SOPE  C31419525   1.762   3.413   8.489 -0.0651  0.3691  0.0644
  172SOPE  H14X19526   1.864   3.425   8.531 -0.1445 -2.6155  1.3963
  172SOPE  H14Y19527   1.760   3.346   8.400  0.0497 -0.1581  0.4519
  172SOPE  C31519528   1.703   3.335   8.614 -0.8538 -1.1166  0.4459
  172SOPE  H15X19529   1.764   3.244   8.635  1.0711  0.0326  0.1467
  172SOPE  H15Y19530   1.597   3.306   8.596 -1.0152 -1.3553  1.7105
  172SOPE  C31619531   1.710   3.418   8.748  0.4311  0.0516 -0.2205
  172SOPE  H16X19532   1.639   3.503   8.736  0.0433 -0.3380 -0.7772
  172SOPE  H16Y19533   1.809   3.467   8.760  0.2340  0.7542 -1.2663
  172SOPE  C31719534   1.670   3.339   8.877  0.6226 -1.1077  0.4624
  172SOPE  H17X19535   1.569   3.297   8.858  0.7214 -1.6556  1.0872
  172SOPE  H17Y19536   1.665   3.402   8.969 -0.3529 -1.8081  0.9143
  172SOPE  C31819537   1.768   3.223   8.917  0.4112 -0.4941 -0.0221
  172SOPE  H18X19538   1.746   3.165   9.009  1.9527  1.1232  1.4273
  172SOPE  H18Y19539   1.874   3.254   8.911 -0.1427  1.5864  0.0615
  172SOPE  H18Z19540   1.758   3.157   8.829  0.6518  2.4130 -2.4060
  173SAPI   C1219541   3.805   1.707  10.886 -0.1686  0.2524 -0.9313
  173SAPI    H219542   3.908   1.668  10.871  0.6552  1.4303  1.2361
  173SAPI    O219543   3.781   1.669  11.020 -0.3119 -0.4156  0.6454
  173SAPI   HO219544   3.745   1.581  11.009 -0.0426 -0.3266 -1.4988
  173SAPI   C1319545   3.803   1.854  10.861  0.6986 -0.3259 -0.4924
  173SAPI    H319546   3.831   1.877  10.756 -1.8724 -0.7411 -1.3329
  173SAPI    O319547   3.894   1.931  10.942 -0.1742  0.1358 -0.0058
  173SAPI   HO319548   3.906   2.013  10.893 -2.9384  1.3711  1.1566
  173SAPI   C1419549   3.660   1.907  10.892  0.0305  0.1533  0.5640
  173SAPI    H419550   3.627   1.882  10.995  2.5905 -2.0596  0.9501
  173SAPI    O419551   3.653   2.054  10.869 -0.0281  0.9119  0.4052
  173SAPI   HO419552   3.652   2.107  10.949 -0.4442  0.7883  0.4875
  173SAPI   C1519553   3.561   1.835  10.800 -0.4797 -0.1990 -0.1560
  173SAPI    H519554   3.588   1.860  10.695 -0.5447 -0.2702 -0.1898
  173SAPI    O519555   3.424   1.876  10.827 -0.1017 -0.4495  0.5614
  173SAPI   HO519556   3.422   1.970  10.806  0.6184 -0.7310 -0.9269
  173SAPI   C1619557   3.570   1.681  10.813 -0.7916  0.1612  0.0047
  173SAPI    H619558   3.540   1.660  10.917  1.9353  2.9948  1.5583
  173SAPI    O619559   3.494   1.624  10.709  0.1293 -0.2799 -0.3179
  173SAPI   HO619560   3.546   1.550  10.678  1.2326  1.8786 -4.3089
  173SAPI   C1119561   3.708   1.644  10.790 -1.3182  0.9477  0.0868
  173SAPI    H119562   3.737   1.677  10.687  1.7015  0.8902  0.8163
  173SAPI     P19563   3.809   1.418  10.683 -0.1173  0.1998  0.0128
  173SAPI   O1319564   3.857   1.296  10.747  0.1603  0.2700 -0.4506
  173SAPI   O1419565   3.908   1.502  10.615  0.0434  0.1787  0.2478
  173SAPI   O1219566   3.730   1.499  10.806  0.7658  0.1837 -0.2088
  173SAPI   O1119567   3.688   1.386  10.590 -0.1660  0.4046 -0.2933
  173SAPI    C119568   3.665   1.446  10.467  0.1699 -0.5653 -0.2150
  173SAPI    HA19569   3.565   1.490  10.488  0.3848 -0.6320  1.0304
  173SAPI    HB19570   3.728   1.536  10.447 -2.0667  1.1971  0.2033
  173SAPI    C219571   3.661   1.344  10.350  0.0331  0.0001  0.2653
  173SAPI    HS19572   3.757   1.290  10.332 -0.6143 -0.7397 -1.1439
  173SAPI   O2119573   3.612   1.410  10.226  0.1167 -0.1993  0.2147
  173SAPI   C2119574   3.693   1.501  10.175  0.8976  0.4073 -0.1198
  173SAPI   O2219575   3.803   1.532  10.215 -0.1158 -0.5297 -0.0783
  173SAPI   C2219576   3.650   1.539  10.035 -0.8087  0.0155  0.4561
  173SAPI   H2R19577   3.656   1.463   9.954 -0.1111 -0.8211  1.2728
  173SAPI   H2S19578   3.546   1.575  10.050 -0.7136  0.4630  0.0837
  173SAPI    C319579   3.553   1.237  10.381  0.3730 -0.5224 -0.2468
  173SAPI    HX19580   3.453   1.284  10.376  1.0430  0.9483 -0.4153
  173SAPI    HY19581   3.579   1.197  10.481  2.7499  0.2398 -0.4930
  173SAPI   O3119582   3.567   1.140  10.280 -0.2798  0.5637  0.0036
  173SAPI   C3119583   3.640   1.027  10.310 -0.1083  0.6208  0.1905
  173SAPI   O3219584   3.675   0.993  10.420 -0.3381 -0.4819  0.0552
  173SAPI   C3219585   3.674   0.962  10.174 -0.3212 -0.0841 -0.2585
  173SAPI   H2X19586   3.583   0.908  10.142  0.2046 -1.8682  1.0652
  173SAPI   H2Y19587   3.753   0.885  10.190 -1.8788 -1.6826  0.0708
  173SAPI   C2319588   3.733   1.659   9.976 -0.7059 -0.5632  0.2458
  173SAPI   H3R19589   3.842   1.636   9.980 -0.2720  1.1999 -0.4563
  173SAPI   H3S19590   3.714   1.745  10.044  1.1637  0.1229 -0.0412
  173SAPI   C2419591   3.695   1.693   9.833  0.4325  0.3382  1.1872
  173SAPI   H4R19592   3.584   1.687   9.831  0.4120 -0.7372 -3.0609
  173SAPI   H4S19593   3.721   1.602   9.776 -2.4041 -0.4815  1.0460
  173SAPI   C2519594   3.757   1.811   9.763 -0.0809 -0.2297 -0.2622
  173SAPI   H5R19595   3.867   1.805   9.773  0.1287 -1.4656 -2.5809
  173SAPI   C2619596   3.707   1.915   9.689 -0.6273  0.2913 -0.5386
  173SAPI   H6R19597   3.775   1.996   9.655  0.3838  0.5142  1.8105
  173SAPI   C2719598   3.561   1.939   9.659  0.5342  0.0559 -0.2185
  173SAPI   H7R19599   3.513   1.917   9.757  2.4580 -0.5507  0.6508
  173SAPI   H7S19600   3.524   1.855   9.597 -0.0027  0.7007 -0.7762
  173SAPI   C2819601   3.508   2.064   9.596  0.3112  0.1705  0.2449
  173SAPI   H8R19602   3.447   2.132   9.658  0.3206 -1.1127  1.7307
  173SAPI   C2919603   3.529   2.094   9.469 -1.1921 -0.4146  0.6869
  173SAPI   H9R19604   3.482   2.186   9.430 -0.2731 -0.1324  0.2067
  173SAPI  C21019605   3.593   2.006   9.363 -0.1182  0.4255  0.2676
  173SAPI  H10R19606   3.551   2.043   9.267 -1.0205 -2.8568 -0.7156
  173SAPI  H10S19607   3.566   1.899   9.367 -0.0583  0.3201 -1.4446
  173SAPI  C21119608   3.746   2.009   9.360  0.7714  0.9102 -0.3275
  173SAPI  H11R19609   3.806   2.047   9.443  2.1009  1.3331 -1.4349
  173SAPI  C21219610   3.814   1.959   9.256 -0.0162 -0.1444 -0.3629
  173SAPI  H12R19611   3.923   1.949   9.269 -0.0208 -1.9574 -1.3576
  173SAPI  C21319612   3.754   1.908   9.132  0.2387 -0.1836  0.4405
  173SAPI  H13R19613   3.820   1.939   9.049  0.0040  0.2388  0.4087
  173SAPI  H13S19614   3.668   1.973   9.104  0.3449 -0.3659 -0.3296
  173SAPI  C21419615   3.709   1.764   9.139  1.0977  0.1649  0.4588
  173SAPI  H14R19616   3.716   1.709   9.234  1.0197 -0.1092  0.3071
  173SAPI  C21519617   3.662   1.702   9.025 -0.4743  0.1098 -0.6175
  173SAPI  H15R19618   3.630   1.597   9.029 -2.9635  0.7296 -2.1414
  173SAPI  C21619619   3.648   1.772   8.894 -0.6423 -0.2198 -0.2185
  173SAPI  H16R19620   3.676   1.697   8.817 -0.2685 -2.2270  1.7499
  173SAPI  H16S19621   3.730   1.846   8.879  0.7767 -1.2250  2.0332
  173SAPI  C21719622   3.511   1.836   8.869  0.2394  0.3145 -0.6275
  173SAPI  H17R19623   3.518   1.894   8.775 -0.9289  0.0731 -0.8860
  173SAPI  H17S19624   3.491   1.910   8.950 -2.6125 -0.7548 -0.2294
  173SAPI  C21819625   3.401   1.735   8.857  0.0008 -0.0775  0.5307
  173SAPI  H18R19626   3.409   1.668   8.946  1.5118  1.6120  1.7452
  173SAPI  H18S19627   3.425   1.663   8.776  2.3415 -1.6619  2.4959
  173SAPI  C21919628   3.257   1.784   8.841  0.2121  0.3954  0.1332
  173SAPI  H19R19629   3.220   1.833   8.933 -1.8171 -3.0512  1.3752
  173SAPI  H19S19630   3.203   1.688   8.823  1.5922 -0.0783 -1.7686
  173SAPI  C22019631   3.233   1.868   8.713 -0.1898 -0.0600 -0.2503
  173SAPI  H20R19632   3.284   1.966   8.723 -0.7819  0.1826  0.5168
  173SAPI  H20S19633   3.126   1.893   8.696  0.1081  1.8962  0.4119
  173SAPI  H20T19634   3.281   1.820   8.626  0.5864  0.3054 -0.0375
  173SAPI   C3319635   3.717   1.066  10.062 -0.0438  0.2618 -0.1488
  173SAPI   H3X19636   3.813   1.119  10.079 -1.2028  2.8932 -1.2191
  173SAPI   H3Y19637   3.630   1.134  10.051  0.4958  0.9572 -0.1858
  173SAPI   C3419638   3.746   0.985   9.927  0.2670 -0.5003 -0.4442
  173SAPI   H4X19639   3.654   0.923   9.918 -0.9048  0.9404  1.0352
  173SAPI   H4Y19640   3.837   0.922   9.936  2.2406  2.3692  1.4515
  173SAPI   C3519641   3.765   1.071   9.799 -0.3560  0.5582  0.5238
  173SAPI   H5X19642   3.794   0.998   9.720 -2.5702 -1.0160  1.0769
  173SAPI   H5Y19643   3.851   1.140   9.808  0.6752 -0.9495  3.0582
  173SAPI   C3619644   3.637   1.145   9.752 -0.3980  0.2198  0.0056
  173SAPI   H6X19645   3.617   1.228   9.823 -3.8107  0.9856 -1.6475
  173SAPI   H6Y19646   3.543   1.086   9.762 -0.3891  0.4620  1.6713
  173SAPI   C3719647   3.654   1.186   9.608 -0.0402 -0.0605  0.3659
  173SAPI   H7X19648   3.548   1.204   9.579  0.2817 -0.0237 -0.8257
  173SAPI   H7Y19649   3.693   1.109   9.538 -2.4519  1.1429 -2.5147
  173SAPI   C3819650   3.718   1.329   9.584 -0.5184  0.1529  0.2828
  173SAPI   H8X19651   3.824   1.311   9.556 -1.2341 -1.4051 -1.6468
  173SAPI   H8Y19652   3.705   1.403   9.667 -0.0565  1.9315 -1.1664
  173SAPI   C3919653   3.661   1.391   9.455 -0.4033 -0.1474  0.3816
  173SAPI   H9X19654   3.636   1.312   9.381  0.4026  0.0752 -0.1392
  173SAPI   H9Y19655   3.736   1.456   9.405  0.0769  1.0392  2.5186
  173SAPI  C31019656   3.536   1.477   9.484  0.0786  0.1899  0.0855
  173SAPI  H10X19657   3.565   1.576   9.526  1.3168  0.0346 -0.3486
  173SAPI  H10Y19658   3.466   1.417   9.546  0.3794 -0.7336 -0.4453
  173SAPI  C31119659   3.455   1.499   9.347 -0.4498  0.1544 -0.2967
  173SAPI  H11X19660   3.412   1.404   9.308 -1.5736  0.5723 -0.0991
  173SAPI  H11Y19661   3.524   1.543   9.271  1.0047  1.3783  1.6379
  173SAPI  C31219662   3.344   1.598   9.384 -0.0235 -0.4790  0.4124
  173SAPI  H12X19663   3.373   1.662   9.470  1.9643 -0.1219 -0.4575
  173SAPI  H12Y19664   3.259   1.543   9.429 -1.7948  2.1681  0.4981
  173SAPI  C31319665   3.283   1.677   9.272 -0.1317 -0.8760 -0.3455
  173SAPI  H13X19666   3.213   1.615   9.212 -1.4325  1.0444 -0.8954
  173SAPI  H13Y19667   3.364   1.721   9.209 -0.1977 -2.6389 -1.7496
  173SAPI  C31419668   3.215   1.802   9.337  0.7496  0.0371  0.3545
  173SAPI  H14X19669   3.285   1.849   9.409  1.7527 -0.4155 -0.3016
  173SAPI  H14Y19670   3.118   1.766   9.377 -0.7775  1.8149 -1.4897
  173SAPI  C31519671   3.178   1.905   9.230  0.0192 -1.2716  0.8166
  173SAPI  H15X19672   3.100   1.974   9.271 -0.0336 -1.2249  0.6351
  173SAPI  H15Y19673   3.130   1.854   9.145  0.6219  0.0140 -0.3361
  173SAPI  C31619674   3.294   1.991   9.173 -0.0063 -0.4190  0.1339
  173SAPI  H16X19675   3.374   1.933   9.122  1.0269  1.8743 -1.0062
  173SAPI  H16Y19676   3.348   2.037   9.258  2.0759  0.3262 -1.4970
  173SAPI  C31719677   3.243   2.113   9.098 -0.1213  0.1495 -0.2850
  173SAPI  H17X19678   3.173   2.166   9.167  1.8024  1.9329  0.3930
  173SAPI  H17Y19679   3.188   2.074   9.010 -2.3575  0.3681  0.9215
  173SAPI  C31819680   3.355   2.217   9.056 -0.4866 -0.0336 -0.3358
  173SAPI  H18X19681   3.324   2.309   9.001 -0.3628  0.5543  0.5645
  173SAPI  H18Y19682   3.428   2.159   8.996  0.2818 -2.8802  3.0400
  173SAPI  H18Z19683   3.400   2.253   9.151 -1.3466 -2.9052  1.2887
  174SAPI   C1219684   0.386   2.397  10.819  0.0202 -0.1040 -0.2241
  174SAPI    H219685   0.460   2.416  10.739  1.0884  2.8089  1.3018
  174SAPI    O219686   0.264   2.470  10.807  0.0500  0.5318 -0.3786
  174SAPI   HO219687   0.279   2.562  10.828  3.0788  0.1301 -0.2994
  174SAPI   C1319688   0.353   2.254  10.815 -0.3496 -0.1850 -0.0589
  174SAPI    H319689   0.445   2.193  10.826  0.4291  1.0485  0.5992
  174SAPI    O319690   0.304   2.223  10.679  0.3238  0.2132  0.0810
  174SAPI   HO319691   0.277   2.308  10.644  1.1963  0.5102  0.0957
  174SAPI   C1419692   0.260   2.209  10.934 -0.2617 -0.0981 -0.0353
  174SAPI    H419693   0.170   2.274  10.925  2.4860  3.8483 -2.0956
  174SAPI    O419694   0.216   2.076  10.927 -0.2986  0.3066  0.9176
  174SAPI   HO419695   0.295   2.023  10.938  0.8303  1.8517  0.6752
  174SAPI   C1519696   0.331   2.231  11.064  0.4820 -0.6716 -0.7814
  174SAPI    H519697   0.424   2.172  11.075 -0.3845 -1.6263  2.9770
  174SAPI    O519698   0.257   2.198  11.180 -0.4345 -0.0650 -0.4110
  174SAPI   HO519699   0.164   2.221  11.168 -0.9737 -1.7683  0.1778
  174SAPI   C1619700   0.373   2.380  11.076  1.5089  0.4291 -0.2590
  174SAPI    H619701   0.279   2.439  11.073  0.6455 -0.9175 -1.0715
  174SAPI    O619702   0.453   2.402  11.190  0.1565  0.2024  0.1951
  174SAPI   HO619703   0.495   2.479  11.151 -1.8329  0.4593 -1.6589
  174SAPI   C1119704   0.453   2.431  10.955  0.3799  0.0821 -0.8774
  174SAPI    H119705   0.545   2.369  10.950  1.0184  0.7276  1.4702
  174SAPI     P19706   0.640   2.617  10.926 -0.0592 -0.0770  0.1148
  174SAPI   O1319707   0.741   2.538  10.999  0.1563 -0.1025 -0.1222
  174SAPI   O1419708   0.660   2.762  10.940  0.2441  0.2698 -0.3433
  174SAPI   O1219709   0.490   2.568  10.971 -0.5358  0.1267  0.0544
  174SAPI   O1119710   0.639   2.575  10.775 -0.2179  0.8472 -0.0628
  174SAPI    C119711   0.681   2.651  10.668  0.2416  0.5280  0.2539
  174SAPI    HA19712   0.688   2.759  10.693  1.2721  0.8329 -1.2160
  174SAPI    HB19713   0.786   2.625  10.645 -0.1522  0.5968 -1.7943
  174SAPI    C219714   0.592   2.627  10.539 -0.2491 -0.3017  0.2144
  174SAPI    HS19715   0.484   2.638  10.562 -0.0049  1.0193  0.8624
  174SAPI   O2119716   0.610   2.490  10.500 -0.4144  0.7196  0.0759
  174SAPI   C2119717   0.506   2.415  10.464 -0.6282  0.7210 -0.7747
  174SAPI   O2219718   0.390   2.449  10.477  0.1599 -0.2338  0.6971
  174SAPI   C2219719   0.554   2.273  10.429  0.5055  0.5015 -0.0870
  174SAPI   H2R19720   0.588   2.224  10.522  1.6705 -1.3567 -1.4220
  174SAPI   H2S19721   0.469   2.216  10.385  0.7177  0.3284 -0.2773
  174SAPI    C319722   0.627   2.733  10.426 -0.3583  0.0497 -0.1576
  174SAPI    HX19723   0.737   2.727  10.420 -0.3257 -0.4705  0.6854
  174SAPI    HY19724   0.602   2.834  10.464 -1.6147 -0.9263  1.8518
  174SAPI   O3119725   0.572   2.696  10.296  0.8896 -0.0136  0.3822
  174SAPI   C3119726   0.443   2.712  10.280  0.4839 -0.0229 -0.0336
  174SAPI   O3219727   0.374   2.791  10.345  0.1416  0.5465 -0.2484
  174SAPI   C3219728   0.384   2.613  10.181  0.2314  0.0122 -0.6525
  174SAPI   H2X19729   0.276   2.638  10.171  0.3911  0.2901 -1.7497
  174SAPI   H2Y19730   0.397   2.507  10.212 -1.3320 -0.5581 -1.7760
  174SAPI   C2319731   0.688   2.271  10.351 -0.4161 -0.2767  1.1002
  174SAPI   H3R19732   0.733   2.170  10.341 -0.1399 -0.3768  2.9807
  174SAPI   H3S19733   0.760   2.328  10.412  1.8290  1.7885 -3.0618
  174SAPI   C2419734   0.662   2.324  10.210 -0.2602 -0.2665 -0.4726
  174SAPI   H4R19735   0.758   2.338  10.156 -0.0880 -0.7410 -0.2951
  174SAPI   H4S19736   0.604   2.419  10.215 -0.6349 -0.5535  1.3406
  174SAPI   C2519737   0.583   2.217  10.136  0.6534 -0.1047  1.1444
  174SAPI   H5R19738   0.521   2.146  10.192 -0.9631  1.0349  0.8627
  174SAPI   C2619739   0.579   2.213  10.001  0.0888  0.2096  0.1105
  174SAPI   H6R19740   0.532   2.123   9.958 -1.1359  0.3663  1.0672
  174SAPI   C2719741   0.654   2.303   9.906 -0.2090  0.1502  0.0126
  174SAPI   H7R19742   0.762   2.276   9.910 -0.0045  0.5387 -1.8374
  174SAPI   H7S19743   0.637   2.412   9.924 -2.7316 -0.2276  0.2447
  174SAPI   C2819744   0.604   2.287   9.760  0.2856  0.2051 -0.0019
  174SAPI   H8R19745   0.498   2.299   9.735  0.3227  1.2918  0.3002
  174SAPI   C2919746   0.687   2.282   9.652 -0.1426 -0.3165  0.1037
  174SAPI   H9R19747   0.652   2.272   9.548  2.0504 -0.3244 -0.6744
  174SAPI  C21019748   0.840   2.289   9.650  0.1181  0.5369 -0.1711
  174SAPI  H10R19749   0.871   2.359   9.731 -1.1085  2.1785 -1.0845
  174SAPI  H10S19750   0.864   2.347   9.559 -1.2108  1.1168 -0.1664
  174SAPI  C21119751   0.905   2.153   9.647 -0.1148 -0.5253  0.7690
  174SAPI  H11R19752   0.885   2.095   9.738 -0.5401 -1.8541 -0.1574
  174SAPI  C21219753   0.995   2.108   9.558 -0.1529 -0.2696  0.6952
  174SAPI  H12R19754   1.025   2.002   9.554  0.9234  0.0620 -0.7845
  174SAPI  C21319755   1.045   2.183   9.443  0.1384 -0.6002  0.2759
  174SAPI  H13R19756   1.149   2.165   9.410  0.2572  1.5628 -0.6448
  174SAPI  H13S19757   1.053   2.286   9.481  0.9926 -0.0346 -1.3610
  174SAPI  C21419758   0.950   2.198   9.319 -0.1807 -0.3535  0.0387
  174SAPI  H14R19759   0.843   2.219   9.338 -0.6649 -0.7919 -1.9589
  174SAPI  C21519760   0.996   2.184   9.192  0.2737 -0.6064 -0.0705
  174SAPI  H15R19761   0.926   2.205   9.110  0.3227 -0.6659 -0.1278
  174SAPI  C21619762   1.138   2.151   9.151  0.3830  0.0332 -0.4082
  174SAPI  H16R19763   1.136   2.041   9.137  0.0919 -0.0966  0.6014
  174SAPI  H16S19764   1.225   2.185   9.212 -0.1317  1.7531 -0.5827
  174SAPI  C21719765   1.192   2.218   9.014  0.3069  0.5818 -0.1734
  174SAPI  H17R19766   1.302   2.202   9.021  0.0128 -1.2904  1.2055
  174SAPI  H17S19767   1.172   2.327   9.016 -0.4671  0.4655  2.4435
  174SAPI  C21819768   1.133   2.141   8.890 -0.4001  0.1648  0.5120
  174SAPI  H18R19769   1.035   2.102   8.926  0.6310 -0.7777  2.4260
  174SAPI  H18S19770   1.199   2.055   8.867 -2.7238 -1.4992 -0.3682
  174SAPI  C21919771   1.112   2.220   8.761  0.5438  1.2637  0.1263
  174SAPI  H19R19772   1.067   2.154   8.684  2.7306 -0.0171 -0.1246
  174SAPI  H19S19773   1.211   2.259   8.733  0.7941  0.8587  0.4358
  174SAPI  C22019774   1.011   2.334   8.779  0.6450 -0.7178 -0.4643
  174SAPI  H20R19775   1.000   2.378   8.678  1.3707  1.8592  0.4974
  174SAPI  H20S19776   1.060   2.406   8.849  1.7218  0.2633 -2.1565
  174SAPI  H20T19777   0.911   2.304   8.817  0.3640 -1.8169 -1.9661
  174SAPI   C3319778   0.458   2.647  10.048  0.1180  0.4732 -0.7480
  174SAPI   H3X19779   0.561   2.605  10.052 -0.2637 -0.4649 -0.4726
  174SAPI   H3Y19780   0.474   2.756  10.031  1.7453  0.4072  0.1964
  174SAPI   C3419781   0.390   2.587   9.925 -0.2262 -0.1221  0.9686
  174SAPI   H4X19782   0.281   2.602   9.936 -0.3730 -1.7113  2.0404
  174SAPI   H4Y19783   0.407   2.477   9.934  1.2741  0.0229  0.2964
  174SAPI   C3519784   0.442   2.636   9.797  0.1786 -0.0010 -0.1148
  174SAPI   H5X19785   0.545   2.596   9.780 -0.5298 -2.1070  0.2411
  174SAPI   H5Y19786   0.456   2.746   9.794  0.3782 -0.0479 -1.1334
  174SAPI   C3619787   0.377   2.584   9.675  0.4566  0.3216 -0.2021
  174SAPI   H6X19788   0.283   2.639   9.655 -0.4228 -1.0479  0.0661
  174SAPI   H6Y19789   0.341   2.482   9.700  0.2204  0.4796  0.1258
  174SAPI   C3719790   0.464   2.591   9.552 -0.1998 -0.9321 -0.3053
  174SAPI   H7X19791   0.546   2.517   9.564 -0.3978 -1.0834  0.1049
  174SAPI   H7Y19792   0.520   2.688   9.555 -0.4327 -0.7362 -1.5823
  174SAPI   C3819793   0.392   2.569   9.412 -0.2758 -0.8753  0.1879
  174SAPI   H8X19794   0.330   2.658   9.384  0.5680 -0.8516 -1.7134
  174SAPI   H8Y19795   0.326   2.480   9.421 -0.2579 -0.8937  0.1330
  174SAPI   C3919796   0.490   2.559   9.296 -0.0538  0.6873  0.0207
  174SAPI   H9X19797   0.554   2.469   9.305 -0.8868  0.0957  0.1467
  174SAPI   H9Y19798   0.547   2.653   9.279  0.1474  0.3753 -1.1562
  174SAPI  C31019799   0.419   2.535   9.159 -0.6918 -0.7519  0.0517
  174SAPI  H10X19800   0.332   2.603   9.152  0.7692  1.1114 -0.8571
  174SAPI  H10Y19801   0.397   2.426   9.160  1.9350 -1.3584 -0.0361
  174SAPI  C31119802   0.518   2.556   9.042 -0.3721 -0.1217  0.4857
  174SAPI  H11X19803   0.604   2.486   9.042 -1.0889 -1.1337 -1.7444
  174SAPI  H11Y19804   0.549   2.661   9.026 -0.0799 -0.3459 -0.5065
  174SAPI  C31219805   0.446   2.537   8.909 -0.2287  0.7831  0.0526
  174SAPI  H12X19806   0.396   2.630   8.875  0.5288  0.6283 -1.6222
  174SAPI  H12Y19807   0.369   2.458   8.915 -0.9863  1.6302  3.9454
  174SAPI  C31319808   0.552   2.493   8.805  0.5402 -0.1188  0.0979
  174SAPI  H13X19809   0.612   2.407   8.842  0.5796  0.0003  0.3174
  174SAPI  H13Y19810   0.607   2.579   8.762 -1.5535  0.5199 -1.4489
  174SAPI  C31419811   0.483   2.442   8.677 -0.2122 -0.1266 -0.0772
  174SAPI  H14X19812   0.402   2.509   8.643 -0.2037  0.1209  0.3810
  174SAPI  H14Y19813   0.431   2.349   8.708  0.2147 -0.2150  0.3930
  174SAPI  C31519814   0.583   2.423   8.559  0.0647  0.9615  0.2995
  174SAPI  H15X19815   0.530   2.368   8.478 -0.7674  0.8602  0.8894
  174SAPI  H15Y19816   0.673   2.373   8.600 -1.3687 -0.1254  2.3196
  174SAPI  C31619817   0.625   2.553   8.489 -0.0975 -0.3186 -1.0752
  174SAPI  H16X19818   0.654   2.630   8.564  1.3555 -0.5030 -1.4222
  174SAPI  H16Y19819   0.534   2.609   8.455  1.3345  3.1060  0.2199
  174SAPI  C31719820   0.741   2.538   8.393 -0.1010 -0.7251 -0.1002
  174SAPI  H17X19821   0.815   2.461   8.424 -0.2871 -1.9917 -2.5641
  174SAPI  H17Y19822   0.795   2.635   8.388 -0.3626 -0.5266  0.8234
  174SAPI  C31819823   0.686   2.480   8.256 -0.9362 -0.2366 -0.2490
  174SAPI  H18X19824   0.615   2.542   8.197 -0.7375  0.7674  0.5452
  174SAPI  H18Y19825   0.648   2.377   8.270  2.7454 -1.5967  1.0174
  174SAPI  H18Z19826   0.779   2.464   8.197  0.4249 -1.7798  2.1172
  175SAPI   C1219827   4.161   5.822   6.312 -0.0303  0.1416  0.8279
  175SAPI    H219828   4.192   5.730   6.366  0.1992 -0.4108 -0.2152
  175SAPI    O219829   4.226   5.828   6.182 -0.6714  0.5033  0.1214
  175SAPI   HO219830   4.291   5.758   6.188  2.6102  3.3885  1.0674
  175SAPI   C1319831   4.004   5.823   6.305  0.1107  0.1409 -0.1611
  175SAPI    H319832   3.953   5.806   6.402  0.1973 -0.6691 -0.2505
  175SAPI    O319833   3.954   5.716   6.233 -0.1415  0.3810 -0.4992
  175SAPI   HO319834   3.867   5.707   6.271 -1.1656  1.1824 -2.5091
  175SAPI   C1419835   3.957   5.958   6.249  0.2420  0.3127  0.0861
  175SAPI    H419836   3.994   5.964   6.144 -0.3017  0.6979 -0.0889
  175SAPI    O419837   3.812   5.948   6.237  0.0080 -0.4351 -0.1664
  175SAPI   HO419838   3.769   5.958   6.323  1.3069  1.5644  0.3320
  175SAPI   C1519839   4.006   6.069   6.335  0.1859 -0.3092  0.5625
  175SAPI    H519840   3.974   6.067   6.441  1.4641 -0.3311  0.9632
  175SAPI    O519841   3.971   6.190   6.270 -0.1306  0.6498 -1.0143
  175SAPI   HO519842   3.875   6.184   6.278 -0.1323 -4.5322 -1.4816
  175SAPI   C1619843   4.158   6.068   6.350 -0.6881  0.3934 -0.1265
  175SAPI    H619844   4.205   6.076   6.250 -2.3440 -2.3076 -1.2063
  175SAPI    O619845   4.205   6.170   6.438  0.4084  0.2152 -0.4458
  175SAPI   HO619846   4.232   6.242   6.380  2.4358  1.3082  1.6939
  175SAPI   C1119847   4.212   5.932   6.401  0.3184 -0.1005 -0.5700
  175SAPI    H119848   4.170   5.922   6.503  3.3977  0.7552  0.9101
  175SAPI     P19849   4.444   5.818   6.474 -0.5423  0.3766  0.1506
  175SAPI   O1319850   4.586   5.841   6.457 -0.8150 -0.9207  0.4619
  175SAPI   O1419851   4.407   5.688   6.418  0.0663  0.2700  0.8091
  175SAPI   O1219852   4.354   5.937   6.418  0.9507 -0.9944  0.0930
  175SAPI   O1119853   4.417   5.817   6.627  0.0362  0.1407 -0.5314
  175SAPI    C119854   4.442   5.701   6.708 -0.0901  0.1201  0.3016
  175SAPI    HA19855   4.515   5.629   6.664 -0.4727 -0.9736  1.4092
  175SAPI    HB19856   4.488   5.743   6.801 -0.2956 -0.0459  0.4782
  175SAPI    C219857   4.311   5.635   6.762 -0.9488  0.6651  0.3138
  175SAPI    HS19858   4.259   5.589   6.675  1.5797 -2.4556  0.2662
  175SAPI   O2119859   4.234   5.730   6.837  0.1376 -0.2000 -0.1240
  175SAPI   C2119860   4.107   5.698   6.865  0.5525 -0.0867  0.2310
  175SAPI   O2219861   4.041   5.608   6.814 -0.0026  0.6472  0.0647
  175SAPI   C2219862   4.046   5.786   6.966  0.1662 -0.0030  0.0540
  175SAPI   H2R19863   4.084   5.889   6.950  0.6932 -0.2120 -0.0537
  175SAPI   H2S19864   3.935   5.785   6.960  0.1566  2.0619 -1.0757
  175SAPI    C319865   4.345   5.518   6.850 -0.2565  0.7657 -0.0711
  175SAPI    HX19866   4.399   5.444   6.787 -2.2197  0.8810 -2.0365
  175SAPI    HY19867   4.253   5.467   6.886  0.8053 -2.3192 -1.4340
  175SAPI   O3119868   4.433   5.563   6.962 -0.1815 -0.3342  0.1584
  175SAPI   C3119869   4.542   5.495   6.986  0.1103  0.4480  0.2772
  175SAPI   O3219870   4.590   5.402   6.917  0.2797 -0.4572 -0.0169
  175SAPI   C3219871   4.615   5.539   7.104 -0.4429  0.1204 -0.0080
  175SAPI   H2X19872   4.549   5.589   7.178 -0.0989 -2.4516  2.1835
  175SAPI   H2Y19873   4.689   5.614   7.068 -0.3260 -0.0681 -0.1563
  175SAPI   C2319874   4.076   5.751   7.119  0.1904 -0.4384 -0.1750
  175SAPI   H3R19875   4.016   5.659   7.135  1.1354 -0.9304  0.6596
  175SAPI   H3S19876   4.031   5.834   7.177  0.2729 -1.1225  0.8956
  175SAPI   C2419877   4.219   5.732   7.166 -0.1306  0.7177 -0.0640
  175SAPI   H4R19878   4.270   5.643   7.123 -4.5040 -1.6121 -0.9562
  175SAPI   H4S19879   4.198   5.690   7.267  0.8193 -0.7539 -0.4337
  175SAPI   C2519880   4.318   5.843   7.156  0.6592  0.0758  0.5073
  175SAPI   H5R19881   4.319   5.890   7.057  1.1360  0.3797  0.6549
  175SAPI   C2619882   4.408   5.880   7.251 -0.0952  0.0901 -0.5168
  175SAPI   H6R19883   4.485   5.956   7.230 -0.0879  1.1919  2.8888
  175SAPI   C2719884   4.431   5.814   7.385 -0.2796 -0.9788 -0.2697
  175SAPI   H7R19885   4.426   5.704   7.368 -0.8908 -0.8821 -0.7643
  175SAPI   H7S19886   4.344   5.832   7.452 -0.3711 -3.0859  0.2597
  175SAPI   C2819887   4.558   5.839   7.458 -0.5738 -0.2941  0.4995
  175SAPI   H8R19888   4.625   5.915   7.413  0.3738 -0.8539  0.9423
  175SAPI   C2919889   4.609   5.761   7.562  0.2690 -0.7758  0.7549
  175SAPI   H9R19890   4.706   5.794   7.602 -0.6897  0.4252  2.2031
  175SAPI  C21019891   4.540   5.653   7.643 -0.3731  0.1267  0.0688
  175SAPI  H10R19892   4.606   5.639   7.731  2.6947  0.4335 -2.0036
  175SAPI  H10S19893   4.546   5.564   7.577 -1.7982 -1.3128  1.7733
  175SAPI  C21119894   4.391   5.674   7.688 -1.1897 -0.3385  0.5855
  175SAPI  H11R19895   4.319   5.630   7.618 -0.8398 -0.8007  0.5128
  175SAPI  C21219896   4.338   5.717   7.803 -0.7517 -0.6591 -0.7954
  175SAPI  H12R19897   4.228   5.718   7.811 -0.8301  0.0295 -1.8671
  175SAPI  C21319898   4.412   5.767   7.927  0.1141  1.0687 -0.0688
  175SAPI  H13R19899   4.434   5.876   7.925 -0.8798  1.2709 -0.0236
  175SAPI  H13S19900   4.514   5.721   7.926  0.0928  0.7881  3.0450
  175SAPI  C21419901   4.351   5.756   8.065  0.1428  0.3227  0.7882
  175SAPI  H14R19902   4.264   5.823   8.072 -1.2859 -0.9674 -2.5809
  175SAPI  C21519903   4.385   5.686   8.170  0.5358  0.4598  0.2865
  175SAPI  H15R19904   4.343   5.715   8.267 -0.5124 -1.8231  0.5952
  175SAPI  C21619905   4.507   5.596   8.168 -0.3827 -0.1017  0.1948
  175SAPI  H16R19906   4.537   5.576   8.063  0.4710 -2.8893  0.8632
  175SAPI  H16S19907   4.480   5.490   8.188 -0.1135 -0.3888 -0.9174
  175SAPI  C21719908   4.623   5.649   8.263  0.6904 -0.1100  0.1097
  175SAPI  H17R19909   4.596   5.616   8.366 -2.0829 -0.5427 -0.6634
  175SAPI  H17S19910   4.613   5.758   8.278 -2.2064 -0.5485  2.4543
  175SAPI  C21819911   4.758   5.591   8.227  0.9807 -0.1107 -0.1432
  175SAPI  H18R19912   4.765   5.481   8.237  2.1180 -0.0784 -0.5310
  175SAPI  H18S19913   4.826   5.626   8.308  1.1727  0.5133 -0.5646
  175SAPI  C21919914   4.813   5.641   8.092  0.0395 -0.0550 -0.4720
  175SAPI  H19R19915   4.782   5.745   8.069  1.4860  0.2261 -1.2902
  175SAPI  H19S19916   4.770   5.590   8.003  1.6223 -0.8634 -0.8122
  175SAPI  C22019917   4.961   5.632   8.078 -0.3154 -0.3638 -0.0582
  175SAPI  H20R19918   4.979   5.650   7.970 -2.7055 -0.5362 -0.5333
  175SAPI  H20S19919   4.995   5.535   8.120  0.5280  0.6503  1.7440
  175SAPI  H20T19920   5.018   5.710   8.134 -0.4040 -1.5900  1.8261
  175SAPI   C3319921   4.698   5.437   7.185  0.0425  0.1278  0.5180
  175SAPI   H3X19922   4.777   5.393   7.120  0.4116 -1.8342  2.1881
  175SAPI   H3Y19923   4.629   5.355   7.213 -1.5402  1.4194  0.5323
  175SAPI   C3419924   4.773   5.491   7.311 -0.4075 -0.5762  0.4546
  175SAPI   H4X19925   4.713   5.573   7.358  0.5601  1.6562 -1.9615
  175SAPI   H4Y19926   4.861   5.545   7.271  0.2570 -3.8749 -3.1590
  175SAPI   C3519927   4.808   5.370   7.399 -0.6877  0.0425 -0.2843
  175SAPI   H5X19928   4.865   5.295   7.339 -2.3193 -2.7293  1.3726
  175SAPI   H5Y19929   4.718   5.310   7.426 -0.3284 -0.9266 -1.1470
  175SAPI   C3619930   4.873   5.407   7.533 -0.2250  0.2803 -0.5277
  175SAPI   H6X19931   4.816   5.485   7.588 -0.5443  0.1366 -0.6519
  175SAPI   H6Y19932   4.968   5.461   7.512  0.3150 -0.9186 -1.2792
  175SAPI   C3719933   4.900   5.285   7.624  0.3868  0.3655 -0.1760
  175SAPI   H7X19934   4.999   5.294   7.674 -0.5522 -1.2073  2.1067
  175SAPI   H7Y19935   4.915   5.201   7.554 -0.5594  1.5997 -1.9381
  175SAPI   C3819936   4.790   5.237   7.714  0.2517 -0.5788  0.0473
  175SAPI   H8X19937   4.797   5.127   7.725 -0.0319 -0.3859  2.6894
  175SAPI   H8Y19938   4.697   5.259   7.658  1.5014  0.6249 -1.6782
  175SAPI   C3919939   4.790   5.300   7.850 -0.0390 -0.2148 -0.0598
  175SAPI   H9X19940   4.793   5.411   7.846  0.7596 -0.1284  1.9181
  175SAPI   H9Y19941   4.881   5.273   7.908  0.7402  1.7018 -0.3006
  175SAPI  C31019942   4.678   5.256   7.939 -0.0840 -1.0163 -0.1043
  175SAPI  H10X19943   4.577   5.286   7.904 -1.2223 -2.2679  1.8786
  175SAPI  H10Y19944   4.696   5.311   8.034  0.1219  1.1825 -1.3527
  175SAPI  C31119945   4.655   5.105   7.959 -0.4365  0.6996  0.2409
  175SAPI  H11X19946   4.741   5.073   8.020 -0.7129 -0.3479  0.1089
  175SAPI  H11Y19947   4.658   5.058   7.858 -1.2259 -1.8702  1.3408
  175SAPI  C31219948   4.525   5.073   8.031 -0.4882  0.4769 -0.3131
  175SAPI  H12X19949   4.516   4.964   8.050  2.2643 -0.0598 -1.6539
  175SAPI  H12Y19950   4.433   5.081   7.969 -0.1460 -0.3276 -0.9483
  175SAPI  C31319951   4.506   5.144   8.165  0.4241  0.7894 -0.4149
  175SAPI  H13X19952   4.481   5.249   8.140  1.6777  0.8523 -1.5468
  175SAPI  H13Y19953   4.601   5.143   8.223 -0.2821  3.2025  0.9154
  175SAPI  C31419954   4.381   5.098   8.237  0.0110 -0.4024 -1.2423
  175SAPI  H14X19955   4.296   5.089   8.166 -0.5843  0.6792 -0.6934
  175SAPI  H14Y19956   4.357   5.176   8.312 -0.2858 -0.0319 -1.7144
  175SAPI  C31519957   4.396   4.979   8.336  0.2542 -0.7799 -1.0050
  175SAPI  H15X19958   4.459   5.010   8.423 -1.2068  0.0039 -0.1871
  175SAPI  H15Y19959   4.459   4.902   8.288 -0.3857 -2.0493  0.1276
  175SAPI  C31619960   4.264   4.929   8.387  0.2275  1.0199  0.5184
  175SAPI  H16X19961   4.204   4.893   8.301  0.1307  4.5196 -1.0346
  175SAPI  H16Y19962   4.197   5.005   8.430 -0.7696  0.4478  0.0092
  175SAPI  C31719963   4.281   4.822   8.493  0.3578  0.0675  0.1898
  175SAPI  H17X19964   4.343   4.871   8.572  1.3696  0.5092 -0.8584
  175SAPI  H17Y19965   4.334   4.729   8.463  0.4916  0.6186 -1.3266
  175SAPI  C31819966   4.138   4.772   8.542 -0.1593 -0.2091 -0.2174
  175SAPI  H18X19967   4.146   4.698   8.624  0.8019 -0.3760 -0.4454
  175SAPI  H18Y19968   4.085   4.715   8.463 -0.1511  1.5785 -1.5676
  175SAPI  H18Z19969   4.072   4.854   8.578 -0.5413  0.0935 -1.5613
  176SAPI   C1219970   3.292   5.646   6.345 -0.1341 -0.3879 -0.3565
  176SAPI    H219971   3.194   5.675   6.303 -0.4154  1.1002  1.2123
  176SAPI    O219972   3.264   5.535   6.432  0.3648 -0.1799 -0.1752
  176SAPI   HO219973   3.186   5.551   6.486 -0.5340 -1.0662 -1.1478
  176SAPI   C1319974   3.373   5.614   6.219 -0.7269 -1.1842  0.0598
  176SAPI    H319975   3.402   5.702   6.159 -0.7481 -1.1405  0.1138
  176SAPI    O319976   3.295   5.528   6.133 -0.6416  0.0960  0.2844
  176SAPI   HO319977   3.329   5.446   6.171 -1.4707 -0.0416  0.7603
  176SAPI   C1419978   3.514   5.561   6.257  0.8144  0.3034  0.1309
  176SAPI    H419979   3.498   5.465   6.311 -2.4959  1.2088  0.9977
  176SAPI    O419980   3.596   5.518   6.148 -1.1252  0.3400  0.1571
  176SAPI   HO419981   3.635   5.598   6.112 -0.6327  0.7175  1.4896
  176SAPI   C1519982   3.585   5.661   6.346 -0.1460 -0.2002 -0.1664
  176SAPI    H519983   3.595   5.759   6.294  1.4716 -0.0693  0.3434
  176SAPI    O519984   3.721   5.620   6.369  0.5652  0.2292 -0.0390
  176SAPI   HO519985   3.715   5.550   6.434 -1.3852  0.1801 -0.2115
  176SAPI   C1619986   3.498   5.683   6.477  0.9542  0.4618 -0.0575
  176SAPI    H619987   3.475   5.591   6.536 -4.9508  1.8402  0.4296
  176SAPI    O619988   3.568   5.783   6.559 -0.0707 -0.6139  0.3869
  176SAPI   HO619989   3.569   5.861   6.503 -0.7496 -0.0417  1.1448
  176SAPI   C1119990   3.361   5.743   6.431 -0.9302 -0.1491 -0.0261
  176SAPI    H119991   3.383   5.834   6.371  1.1346 -0.6692 -0.1205
  176SAPI     P19992   3.155   5.871   6.533  0.4088  0.3321 -0.4623
  176SAPI   O1319993   3.141   5.912   6.392 -0.2673  0.5809 -0.0725
  176SAPI   O1419994   3.155   5.976   6.635 -0.2198  0.4149 -0.2481
  176SAPI   O1219995   3.287   5.776   6.551 -0.1788  0.2165  0.0304
  176SAPI   O1119996   3.039   5.767   6.557  0.1025  0.0067 -0.0570
  176SAPI    C119997   2.903   5.792   6.606  0.2902 -0.7916  0.1001
  176SAPI    HA19998   2.845   5.854   6.534  1.6230 -2.2955 -2.3988
  176SAPI    HB19999   2.853   5.693   6.599  0.9844 -1.0546 -2.1665
  176SAPI    C220000   2.890   5.859   6.746 -0.0476  0.0300  0.0539
  176SAPI    HS20001   2.943   5.957   6.739  2.0178 -0.9110  1.4927
  176SAPI   O2120002   2.951   5.761   6.834  0.1117 -0.2925 -0.5317
  176SAPI   C2120003   2.992   5.803   6.950 -0.4801  0.4887 -0.1042
  176SAPI   O2220004   2.986   5.922   6.984 -0.0937  0.1548 -0.2534
  176SAPI   C2220005   3.054   5.688   7.027  0.1344 -0.7213 -0.5439
  176SAPI   H2R20006   3.008   5.589   7.011  1.0683 -1.0239 -1.4296
  176SAPI   H2S20007   3.159   5.697   6.995 -0.7478  0.9851 -3.3270
  176SAPI    C320008   2.737   5.878   6.784 -0.6037  0.0980 -0.4423
  176SAPI    HX20009   2.683   5.781   6.776 -1.2308  0.3530  0.4696
  176SAPI    HY20010   2.696   5.941   6.702  1.5468 -0.8036 -2.3195
  176SAPI   O3120011   2.720   5.946   6.914 -0.4937  0.6256  0.0259
  176SAPI   C3120012   2.682   5.861   7.016  0.3804 -0.9553  0.1301
  176SAPI   O3220013   2.685   5.736   7.012  0.0904 -0.0261 -0.5935
  176SAPI   C3220014   2.612   5.953   7.110  0.3633  0.1474  0.5249
  176SAPI   H2X20015   2.502   5.944   7.099  0.2996 -1.4244  1.9549
  176SAPI   H2Y20016   2.645   6.058   7.099 -1.4741  0.7243  0.1445
  176SAPI   C2320017   3.077   5.716   7.177  0.6553  0.3424  0.3347
  176SAPI   H3R20018   2.982   5.697   7.233 -0.0527 -0.5459 -1.0880
  176SAPI   H3S20019   3.091   5.826   7.182 -2.9244  0.9108  1.7650
  176SAPI   C2420020   3.185   5.637   7.234 -0.2333  0.0396 -0.1167
  176SAPI   H4R20021   3.223   5.674   7.331  2.3310 -1.7928 -0.3081
  176SAPI   H4S20022   3.275   5.662   7.173  1.8766 -0.4167  2.5904
  176SAPI   C2520023   3.167   5.482   7.225 -0.2598 -0.7867  0.2118
  176SAPI   H5R20024   3.193   5.430   7.131 -3.1479 -2.9101  0.4530
  176SAPI   C2620025   3.126   5.400   7.329 -0.2254  0.0538  0.6737
  176SAPI   H6R20026   3.113   5.291   7.321 -1.3291  0.3047 -1.7876
  176SAPI   C2720027   3.090   5.449   7.465  0.4322 -0.2408  0.0918
  176SAPI   H7R20028   3.148   5.541   7.488  2.8353 -1.4324 -0.8384
  176SAPI   H7S20029   3.123   5.368   7.533 -0.1695 -0.4132  0.1817
  176SAPI   C2820030   2.943   5.474   7.489 -0.0605 -0.0630  0.4232
  176SAPI   H8R20031   2.879   5.477   7.400  0.8336 -1.7550 -0.3028
  176SAPI   C2920032   2.885   5.492   7.608  0.0640  0.0181 -0.4619
  176SAPI   H9R20033   2.782   5.528   7.616 -0.5133 -1.9133  1.9867
  176SAPI  C21020034   2.955   5.481   7.743  1.0484 -0.1363 -0.4279
  176SAPI  H10R20035   3.051   5.425   7.731  0.0675 -1.4411 -3.1370
  176SAPI  H10S20036   2.892   5.414   7.806  1.4711  0.4388  0.6212
  176SAPI  C21120037   2.981   5.615   7.809 -0.1940  0.6098  0.1269
  176SAPI  H11R20038   3.085   5.651   7.808 -0.1810  0.7825  2.3573
  176SAPI  C21220039   2.885   5.700   7.851  0.0434  0.5607 -0.3936
  176SAPI  H12R20040   2.908   5.799   7.892  0.2299  0.1174  0.6218
  176SAPI  C21320041   2.733   5.676   7.849 -0.6277 -0.4031 -0.0398
  176SAPI  H13R20042   2.697   5.720   7.944  1.0328 -0.6594  0.7404
  176SAPI  H13S20043   2.715   5.568   7.866 -0.6079  0.0799  4.1003
  176SAPI  C21420044   2.667   5.730   7.725  0.3506 -0.5737  0.1894
  176SAPI  H14R20045   2.720   5.810   7.672 -0.3953  0.3866  0.8735
  176SAPI  C21520046   2.558   5.684   7.670 -0.2695 -0.1819 -0.1625
  176SAPI  H15R20047   2.526   5.735   7.578  0.6994 -0.1782 -0.5055
  176SAPI  C21620048   2.479   5.569   7.720  0.3033  0.6098  0.6588
  176SAPI  H16R20049   2.377   5.601   7.751  0.4289 -0.3983  2.2389
  176SAPI  H16S20050   2.517   5.518   7.811 -1.1464  0.3484  1.1428
  176SAPI  C21720051   2.460   5.453   7.617  0.3448  0.1166 -0.0330
  176SAPI  H17R20052   2.429   5.368   7.681  0.1825  0.2817  0.1098
  176SAPI  H17S20053   2.551   5.421   7.562  0.7694  1.4390 -0.1518
  176SAPI  C21820054   2.356   5.470   7.498 -0.3370  0.4645  0.1991
  176SAPI  H18R20055   2.255   5.494   7.538 -0.2749  0.4922  0.3419
  176SAPI  H18S20056   2.344   5.371   7.450 -1.5953 -0.0935  1.6026
  176SAPI  C21920057   2.391   5.567   7.387 -0.3912 -0.8783  0.2580
  176SAPI  H19R20058   2.382   5.667   7.434 -1.6058 -1.3051  0.9803
  176SAPI  H19S20059   2.316   5.569   7.305  1.2483  0.3725 -1.3092
  176SAPI  C22020060   2.532   5.545   7.333  0.5418  0.6296  0.6307
  176SAPI  H20R20061   2.543   5.445   7.287 -0.4904  0.8855 -0.2220
  176SAPI  H20S20062   2.607   5.556   7.414  1.1325 -1.4953  0.4156
  176SAPI  H20T20063   2.550   5.604   7.240 -0.5632 -0.1722 -0.1118
  176SAPI   C3320064   2.643   5.915   7.256 -0.6633 -0.6244 -0.2723
  176SAPI   H3X20065   2.639   5.804   7.268  0.3644 -1.0462 -3.2581
  176SAPI   H3Y20066   2.558   5.950   7.319  0.2488 -1.4136  1.4695
  176SAPI   C3420067   2.776   5.981   7.300  0.4434 -0.3903 -0.0646
  176SAPI   H4X20068   2.756   6.087   7.273  1.1406 -0.1516  0.3401
  176SAPI   H4Y20069   2.863   5.946   7.240  2.0333  0.9143  1.3835
  176SAPI   C3520070   2.791   5.989   7.455 -0.0985  0.0824  0.6099
  176SAPI   H5X20071   2.832   5.894   7.496  0.4589 -0.0608 -0.2631
  176SAPI   H5Y20072   2.693   6.008   7.502 -0.2035  0.0570  0.4016
  176SAPI   C3620073   2.876   6.099   7.527  0.0972  0.1214  0.1629
  176SAPI   H6X20074   2.847   6.081   7.632 -5.4703 -1.3779 -1.2783
  176SAPI   H6Y20075   2.857   6.200   7.485 -1.3894  0.3893  1.3763
  176SAPI   C3720076   3.028   6.070   7.512  0.3631 -0.6170  0.2599
  176SAPI   H7X20077   3.053   6.046   7.406  0.9304  2.3148 -0.3663
  176SAPI   H7Y20078   3.053   5.979   7.570  2.3821  0.0189  0.4459
  176SAPI   C3820079   3.120   6.180   7.568  0.3200 -0.0633 -0.3344
  176SAPI   H8X20080   3.082   6.276   7.527 -2.3483 -0.9062 -0.0235
  176SAPI   H8Y20081   3.218   6.145   7.530 -1.1156 -4.2089 -0.6816
  176SAPI   C3920082   3.125   6.188   7.722  0.7347  0.4505 -0.1254
  176SAPI   H9X20083   3.131   6.089   7.772 -0.6246  1.5157  2.2936
  176SAPI   H9Y20084   3.025   6.233   7.739 -0.2780 -0.6713 -2.6392
  176SAPI  C31020085   3.240   6.277   7.766  0.3246 -0.0835 -0.4029
  176SAPI  H10X20086   3.216   6.384   7.748  3.0406  0.6385 -0.1303
  176SAPI  H10Y20087   3.337   6.257   7.716 -0.4484  0.1765 -2.0836
  176SAPI  C31120088   3.266   6.259   7.921  0.1137  0.1461  0.3299
  176SAPI  H11X20089   3.364   6.308   7.939  0.3531 -1.0850  2.8440
  176SAPI  H11Y20090   3.282   6.153   7.948  1.6811  0.0919 -0.7166
  176SAPI  C31220091   3.158   6.313   8.024 -0.3365 -0.2198  0.6490
  176SAPI  H12X20092   3.053   6.284   8.003 -1.2506  3.2174 -0.2908
  176SAPI  H12Y20093   3.155   6.423   8.007  1.2555 -0.3474 -0.6833
  176SAPI  C31320094   3.186   6.278   8.171  0.2118  0.1285 -0.2305
  176SAPI  H13X20095   3.290   6.314   8.184  0.9380 -2.4344  1.7255
  176SAPI  H13Y20096   3.193   6.167   8.179 -0.8235 -0.0420 -1.3706
  176SAPI  C31420097   3.085   6.330   8.269  0.5135  0.0355 -0.3637
  176SAPI  H14X20098   2.979   6.311   8.240  0.2022  1.4196 -0.1900
  176SAPI  H14Y20099   3.093   6.440   8.262 -1.9089  0.4668  2.1236
  176SAPI  C31520100   3.126   6.287   8.412  0.0136  0.5648  0.7061
  176SAPI  H15X20101   3.220   6.337   8.443  0.3980  0.6126 -0.4787
  176SAPI  H15Y20102   3.151   6.180   8.393 -2.3628  0.2449 -1.1278
  176SAPI  C31620103   3.014   6.297   8.511  1.0787  0.1776  0.2023
  176SAPI  H16X20104   2.931   6.230   8.481  1.0411 -0.2605  1.2144
  176SAPI  H16Y20105   2.973   6.400   8.509 -0.6273 -0.4369 -3.2490
  176SAPI  C31720106   3.061   6.261   8.651 -0.0929 -0.3272 -0.5197
  176SAPI  H17X20107   3.159   6.304   8.682 -0.5748 -1.6605  3.5066
  176SAPI  H17Y20108   3.087   6.153   8.650  0.3654 -0.3336  2.5316
  176SAPI  C31820109   2.962   6.271   8.759  0.2803  0.5375 -0.7366
  176SAPI  H18X20110   2.863   6.231   8.727  0.7171 -2.7324  1.5130
  176SAPI  H18Y20111   2.946   6.378   8.783  0.2733 -0.0779  2.4164
  176SAPI  H18Z20112   2.997   6.219   8.850  0.7198  1.5395 -0.3173
  177SLPC     N20113   2.884   1.682  10.987  0.2149 -0.4412  0.1364
  177SLPC   C1320114   2.955   1.810  11.015 -0.5076  0.5408  0.2816
  177SLPC  H13A20115   2.898   1.899  10.993  0.5166  0.8559 -1.2616
  177SLPC  H13B20116   2.974   1.814  11.121 -2.4364 -0.8110  0.7382
  177SLPC  H13C20117   3.043   1.814  10.952 -0.2556  3.3110  0.7157
  177SLPC   C1420118   2.783   1.677  11.102 -0.0853  0.2712 -0.1940
  177SLPC  H14A20119   2.709   1.754  11.087  1.1644  1.0189 -3.4609
  177SLPC  H14B20120   2.727   1.585  11.104 -0.7725  0.6721 -0.7871
  177SLPC  H14C20121   2.834   1.691  11.196 -0.4353  0.8278 -0.0787
  177SLPC   C1520122   2.973   1.559  10.996 -0.1909  0.5229 -0.0865
  177SLPC  H15A20123   3.059   1.572  10.933 -0.9441 -0.3162 -1.3249
  177SLPC  H15B20124   3.010   1.547  11.097  1.7157  1.6007 -0.6250
  177SLPC  H15C20125   2.916   1.473  10.964 -0.7762  0.8153  0.1369
  177SLPC   C1220126   2.814   1.697  10.860 -0.4828 -0.0168 -0.2812
  177SLPC  H12A20127   2.883   1.723  10.781  0.1193 -0.6666  0.0201
  177SLPC  H12B20128   2.750   1.783  10.867 -0.1413  0.1512  0.9945
  177SLPC   C1120129   2.730   1.581  10.803  0.7796  0.0569 -0.0939
  177SLPC  H11A20130   2.797   1.493  10.804 -0.7884 -1.1969 -1.0532
  177SLPC  H11B20131   2.705   1.606  10.697 -0.3223  1.2747  0.4242
  177SLPC     P20132   2.485   1.641  10.890 -0.4785 -0.0085  0.3945
  177SLPC   O1320133   2.382   1.562  10.958  0.3237  0.4803  0.1448
  177SLPC   O1420134   2.518   1.771  10.951 -0.5827 -0.0212  0.4989
  177SLPC   O1220135   2.616   1.551  10.890  0.0947 -0.1584 -0.0984
  177SLPC   O1120136   2.458   1.661  10.740 -0.0498 -0.0764 -0.1630
  177SLPC    C120137   2.360   1.583  10.672 -0.1496 -0.4313  0.4435
  177SLPC    HA20138   2.281   1.554  10.743  0.6197 -1.4237  0.9207
  177SLPC    HB20139   2.323   1.626  10.576  4.3706 -1.1899 -1.9588
  177SLPC    C220140   2.426   1.454  10.615  0.5475  0.2001 -0.0741
  177SLPC    HS20141   2.470   1.407  10.705 -0.1063 -0.6827 -0.2101
  177SLPC   O2120142   2.537   1.488  10.525  0.1842  0.5115  0.0168
  177SLPC   C2120143   2.611   1.376  10.488  0.4632  0.2077  0.5249
  177SLPC   O2220144   2.606   1.267  10.545  0.6508  0.4596  0.0348
  177SLPC   C2220145   2.713   1.417  10.378  0.3078 -0.2010  0.2207
  177SLPC   H2R20146   2.710   1.525  10.355  0.0961 -0.8562 -3.4548
  177SLPC   H2S20147   2.808   1.393  10.429  0.0895  1.1187  1.3086
  177SLPC    C320148   2.320   1.364  10.545  0.1465 -0.4992 -0.5660
  177SLPC    HX20149   2.249   1.333  10.625 -1.9598  2.7827 -0.9696
  177SLPC    HY20150   2.374   1.279  10.500 -0.2494 -0.7537 -0.5655
  177SLPC   O3120151   2.248   1.441  10.446 -0.1126  0.0769 -0.1541
  177SLPC   C3120152   2.298   1.441  10.319 -0.6607 -0.2882 -0.1589
  177SLPC   O3220153   2.381   1.360  10.278  0.6972 -0.5274 -0.0857
  177SLPC   C3220154   2.252   1.560  10.238  0.3975  0.4595 -0.3765
  177SLPC   H2X20155   2.297   1.650  10.286  0.4567  1.3153 -1.9903
  177SLPC   H2Y20156   2.142   1.576  10.239  0.5995  2.1367 -1.1657
  177SLPC   C2320157   2.699   1.333  10.248 -0.6462  0.1994 -0.7435
  177SLPC   H3R20158   2.608   1.375  10.199 -0.9481  0.1123 -0.2620
  177SLPC   H3S20159   2.701   1.223  10.261  4.3846  0.0911 -0.4253
  177SLPC   C2420160   2.823   1.364  10.162 -0.3164  0.5075  0.3934
  177SLPC   H4R20161   2.904   1.334  10.231 -1.0803  0.2038  1.1768
  177SLPC   H4S20162   2.823   1.471  10.130 -1.1902  0.4527  0.1760
  177SLPC   C2520163   2.832   1.275  10.036 -0.2567  0.6921  0.6011
  177SLPC   H5R20164   2.779   1.182  10.068 -2.0374  1.9276  1.4262
  177SLPC   H5S20165   2.940   1.263  10.014 -0.3101  3.1082 -1.4196
  177SLPC   C2620166   2.773   1.323   9.901 -0.5084  0.2404  0.4210
  177SLPC   H6R20167   2.839   1.395   9.848  1.0233 -0.9192  0.6914
  177SLPC   H6S20168   2.676   1.375   9.918 -0.5264  0.4673 -0.3212
  177SLPC   C2720169   2.737   1.201   9.811  0.3422 -0.2829 -0.1765
  177SLPC   H7R20170   2.679   1.123   9.864  0.9603 -0.7587 -0.1798
  177SLPC   H7S20171   2.832   1.148   9.787  0.5688  0.9129 -2.1976
  177SLPC   C2820172   2.667   1.243   9.680  0.2673  0.2049 -0.7866
  177SLPC   H8R20173   2.743   1.286   9.611  1.0940 -1.4450 -0.9478
  177SLPC   H8S20174   2.588   1.315   9.710 -0.4791 -0.8320 -0.2050
  177SLPC   C2920175   2.605   1.128   9.611  0.8030 -0.0715  1.0600
  177SLPC   H9R20176   2.558   1.057   9.680  1.0068  0.1578  1.4376
  177SLPC  C21020177   2.620   1.092   9.480  0.1170 -0.3200 -0.4517
  177SLPC  H10R20178   2.568   1.004   9.439 -2.1941  1.4463 -1.5269
  177SLPC  C21120179   2.700   1.162   9.373  0.2713  0.0727  0.6214
  177SLPC  H11R20180   2.728   1.263   9.410  0.8116  0.3354 -0.4627
  177SLPC  H11S20181   2.791   1.105   9.345  1.4086  1.9552  0.3515
  177SLPC  C21220182   2.615   1.184   9.246  0.1599  0.1042 -0.5143
  177SLPC  H12R20183   2.522   1.239   9.270 -0.1041 -1.3555  2.1044
  177SLPC  C21320184   2.644   1.153   9.123 -0.6022 -0.1014  0.1619
  177SLPC  H13R20185   2.573   1.188   9.046 -0.1621 -0.9072 -0.6354
  177SLPC  C21420186   2.759   1.080   9.067  0.4133  0.0133 -0.4859
  177SLPC  H14R20187   2.779   0.991   9.130  1.8324  0.2098 -0.6299
  177SLPC  H14S20188   2.854   1.139   9.066 -0.4511  1.4644 -1.0410
  177SLPC  C21520189   2.722   1.021   8.930  0.4826  0.1130 -0.5774
  177SLPC  H15R20190   2.654   0.933   8.934 -0.4343  0.8441  1.3807
  177SLPC  H15S20191   2.822   0.994   8.891 -0.4328 -2.1722 -1.4726
  177SLPC  C21620192   2.689   1.132   8.827  1.2137  0.4852  0.5367
  177SLPC  H16R20193   2.752   1.222   8.845 -2.4958  3.4012 -0.0006
  177SLPC  H16S20194   2.583   1.163   8.839  0.5447 -1.7386  0.8109
  177SLPC  C21720195   2.714   1.096   8.680 -0.3400 -0.6509  0.4240
  177SLPC  H17R20196   2.657   1.004   8.653 -1.7955 -0.3391  2.2817
  177SLPC  H17S20197   2.823   1.075   8.680 -0.3400 -0.6674 -0.0231
  177SLPC  C21820198   2.683   1.207   8.584  0.1519  0.8480 -0.1432
  177SLPC  H18R20199   2.716   1.188   8.480  0.2031 -1.6480  0.2535
  177SLPC  H18S20200   2.728   1.301   8.621  3.1676 -1.1243  1.6579
  177SLPC  H18T20201   2.574   1.229   8.589  0.3266  1.5973  0.6839
  177SLPC   C3320202   2.290   1.540  10.090  0.6695  0.5467 -0.0895
  177SLPC   H3X20203   2.398   1.515  10.085  0.6181  0.4224 -0.5548
  177SLPC   H3Y20204   2.289   1.628  10.023  1.3871  0.1052 -0.6897
  177SLPC   C3420205   2.204   1.436  10.020  0.6755 -0.3698 -0.1366
  177SLPC   H4X20206   2.098   1.461  10.040  1.3059  0.7251  2.1815
  177SLPC   H4Y20207   2.232   1.331  10.044  0.6069 -0.4206 -0.2798
  177SLPC   C3520208   2.192   1.437   9.868  0.3828 -0.1336 -0.2535
  177SLPC   H5X20209   2.127   1.515   9.822 -1.1761 -2.3772 -2.0872
  177SLPC   H5Y20210   2.143   1.343   9.837  0.3780 -0.1790 -0.1078
  177SLPC   C3620211   2.330   1.458   9.805 -0.1745  0.4106  0.0284
  177SLPC   H6X20212   2.404   1.385   9.843 -0.7113  0.3546  1.0007
  177SLPC   H6Y20213   2.379   1.554   9.830  0.9277 -0.3992  1.1135
  177SLPC   C3720214   2.313   1.443   9.649 -0.2730 -0.1283  0.6261
  177SLPC   H7X20215   2.245   1.362   9.615  0.5059 -0.2439 -0.7252
  177SLPC   H7Y20216   2.419   1.429   9.618 -0.9853 -1.6831 -1.2932
  177SLPC   C3820217   2.251   1.570   9.585 -0.0019 -0.1970 -0.1557
  177SLPC   H8X20218   2.293   1.661   9.634 -0.7563  1.0910 -1.7865
  177SLPC   H8Y20219   2.140   1.571   9.589 -0.4852  3.4352 -4.7359
  177SLPC   C3920220   2.287   1.574   9.434 -0.1660 -0.5422  0.5128
  177SLPC   H9X20221   2.383   1.519   9.426  0.1329  0.2024 -1.7720
  177SLPC   H9Y20222   2.302   1.679   9.401  1.6490 -0.1056  2.4916
  177SLPC  C31020223   2.176   1.526   9.339 -0.8684 -0.1774 -0.3698
  177SLPC  H10X20224   2.086   1.587   9.362 -0.0222  0.3351  1.8099
  177SLPC  H10Y20225   2.152   1.425   9.378 -0.8164 -0.4552 -1.0405
  177SLPC  C31120226   2.216   1.533   9.188  1.2033 -1.0352 -0.1409
  177SLPC  H11X20227   2.254   1.632   9.158  0.3944 -0.7854 -0.3740
  177SLPC  H11Y20228   2.127   1.505   9.128  1.6754 -2.1157 -0.3727
  177SLPC  C31220229   2.330   1.445   9.146 -0.0527 -0.0660  0.4708
  177SLPC  H12X20230   2.325   1.342   9.188  0.9488 -0.8847 -1.3409
  177SLPC  H12Y20231   2.420   1.499   9.183  0.1313  0.6501 -0.9532
  177SLPC  C31320232   2.345   1.433   8.993 -0.3847 -0.1438 -0.8555
  177SLPC  H13X20233   2.449   1.397   8.976 -0.2018 -0.6920  1.1616
  177SLPC  H13Y20234   2.335   1.537   8.954 -1.0366 -0.5156 -1.7213
  177SLPC  C31420235   2.256   1.343   8.913 -0.2825  0.3514 -0.0674
  177SLPC  H14X20236   2.297   1.340   8.809 -1.5762  1.4206 -0.6423
  177SLPC  H14Y20237   2.152   1.384   8.909  0.3747  2.1946  0.8338
  177SLPC  C31520238   2.261   1.193   8.957 -0.0046  0.5425  0.2320
  177SLPC  H15X20239   2.206   1.181   9.053 -0.0459 -2.2209 -0.0538
  177SLPC  H15Y20240   2.365   1.157   8.971 -0.5347 -2.1392 -1.9061
  177SLPC  C31620241   2.198   1.089   8.859  0.1024  0.3362 -0.0432
  177SLPC  H16X20242   2.261   0.997   8.866 -0.5779 -0.0225  1.8175
  177SLPC  H16Y20243   2.227   1.121   8.757 -0.3631 -0.4513 -0.4388
  177SLPC  C31720244   2.049   1.060   8.860  0.2425  0.5102 -0.5833
  177SLPC  H17X20245   1.981   1.148   8.872 -1.5369 -1.1490  2.9434
  177SLPC  H17Y20246   2.024   0.997   8.948 -2.3684  2.2512  0.0575
  177SLPC  C31820247   1.988   0.988   8.736 -0.1962  0.5947 -0.4786
  177SLPC  H18X20248   2.055   0.905   8.706 -0.8020  0.4522 -1.5002
  177SLPC  H18Y20249   1.985   1.064   8.655  0.2157  0.9201 -0.1962
  177SLPC  H18Z20250   1.885   0.959   8.766  1.1711 -1.4039  2.9006
  178SLPC     N20251   4.365   4.907  11.436  0.5075  0.3289  0.4708
  178SLPC   C1320252   4.237   4.836  11.480  0.7829  0.1166  0.0019
  178SLPC  H13A20253   4.161   4.910  11.499 -0.8772 -1.6971  0.7180
  178SLPC  H13B20254   4.204   4.758  11.414 -0.2688 -1.5058  2.3387
  178SLPC  H13C20255   4.255   4.789  11.575 -3.2552  2.1807  2.0593
  178SLPC   C1420256   4.479   4.820  11.497 -0.3816 -0.3085 -0.3687
  178SLPC  H14A20257   4.572   4.872  11.484  0.0296 -1.2315 -1.2505
  178SLPC  H14B20258   4.462   4.802  11.603 -2.7853  1.0412 -0.4691
  178SLPC  H14C20259   4.484   4.726  11.444 -0.1211 -1.7234  1.9897
  178SLPC   C1520260   4.356   5.032  11.510  0.2698 -0.8599 -0.0919
  178SLPC  H15A20261   4.318   5.013  11.609 -0.3814 -0.9421 -0.3528
  178SLPC  H15B20262   4.447   5.091  11.521  0.4780 -0.8791 -1.4977
  178SLPC  H15C20263   4.289   5.100  11.459 -1.5717 -2.3762  0.2157
  178SLPC   C1220264   4.375   4.926  11.292  0.0501 -0.1869  0.7352
  178SLPC  H12A20265   4.459   4.988  11.264 -1.1149  1.0678 -0.1272
  178SLPC  H12B20266   4.296   4.988  11.253  1.1533  0.8055 -0.0088
  178SLPC   C1120267   4.379   4.803  11.196  0.0424 -0.2827  0.0748
  178SLPC  H11A20268   4.448   4.723  11.230  1.2959  0.6778 -0.1382
  178SLPC  H11B20269   4.427   4.843  11.104  3.3001 -0.4115  1.5921
  178SLPC     P20270   4.137   4.814  11.081 -0.2037  0.2072 -0.1890
  178SLPC   O1320271   4.046   4.710  11.018 -0.3170 -0.0559  0.3115
  178SLPC   O1420272   4.074   4.925  11.158  0.4018  0.3874  0.2174
  178SLPC   O1220273   4.248   4.750  11.174  0.3342 -0.3579 -0.6320
  178SLPC   O1120274   4.223   4.867  10.962  0.2071  0.2096  0.7070
  178SLPC    C120275   4.158   4.928  10.849 -0.4627  0.1302 -0.2861
  178SLPC    HA20276   4.186   4.875  10.756  3.1587 -0.1954  0.8549
  178SLPC    HB20277   4.047   4.927  10.860 -0.3955 -0.3827  0.3680
  178SLPC    C220278   4.212   5.068  10.837 -0.0305  0.5371 -0.2963
  178SLPC    HS20279   4.168   5.131  10.918 -1.4940  0.9432 -1.3519
  178SLPC   O2120280   4.173   5.124  10.709 -0.5356 -0.2502  0.1812
  178SLPC   C2120281   4.044   5.153  10.694 -0.0508 -0.7402 -0.2632
  178SLPC   O2220282   3.969   5.162  10.786  0.4276 -0.3704  0.0305
  178SLPC   C2220283   4.020   5.180  10.547  0.2928 -0.3157  0.1303
  178SLPC   H2R20284   4.105   5.168  10.477 -2.1598 -1.0236 -2.9082
  178SLPC   H2S20285   3.930   5.119  10.526  0.3859 -0.7208  0.8564
  178SLPC    C320286   4.364   5.054  10.841  0.0545 -0.8160  0.7789
  178SLPC    HX20287   4.392   4.961  10.788  2.1817  0.4160 -0.4201
  178SLPC    HY20288   4.389   5.030  10.947  1.3410 -1.5455  0.3198
  178SLPC   O3120289   4.432   5.173  10.796  0.4825 -0.4435  0.0570
  178SLPC   C3120290   4.477   5.172  10.668 -0.0913  0.0086 -0.0864
  178SLPC   O3220291   4.487   5.069  10.602  1.1372  0.0618  0.1137
  178SLPC   C3220292   4.520   5.313  10.629  0.0591  0.4005 -0.2440
  178SLPC   H2X20293   4.607   5.343  10.692  0.3239 -0.3438 -0.2447
  178SLPC   H2Y20294   4.431   5.372  10.659  0.2269  0.7639 -0.4502
  178SLPC   C2320295   3.971   5.326  10.531  0.5842  0.0771 -0.1524
  178SLPC   H3R20296   4.044   5.393  10.581 -0.4085  0.9195  0.2078
  178SLPC   H3S20297   3.877   5.349  10.585  0.0550  0.7682 -1.3056
  178SLPC   C2420298   3.962   5.374  10.383 -0.4531 -0.8610  0.6165
  178SLPC   H4R20299   4.062   5.366  10.336 -0.4480 -0.1200  0.4871
  178SLPC   H4S20300   3.940   5.483  10.390  0.3303 -0.2156 -3.9110
  178SLPC   C2520301   3.853   5.306  10.305 -0.1053 -0.4508  0.6596
  178SLPC   H5R20302   3.752   5.336  10.342 -1.4177 -2.5094 -1.0562
  178SLPC   H5S20303   3.861   5.195  10.306 -2.9771 -0.7805 -0.9977
  178SLPC   C2620304   3.853   5.329  10.149  0.0835 -0.0982  0.4038
  178SLPC   H6R20305   3.961   5.319  10.127  0.4883  2.5881  0.8425
  178SLPC   H6S20306   3.823   5.434  10.133  3.1550  1.2288  2.4771
  178SLPC   C2720307   3.789   5.216  10.076  0.2595 -0.8193 -0.0612
  178SLPC   H7R20308   3.689   5.183  10.110 -0.3441 -0.0395 -1.0287
  178SLPC   H7S20309   3.861   5.132  10.087  1.3403 -0.0769 -1.1537
  178SLPC   C2820310   3.790   5.258   9.931 -0.3134  0.2220  0.4790
  178SLPC   H8R20311   3.880   5.315   9.900 -1.1629  0.0907 -2.5930
  178SLPC   H8S20312   3.705   5.325   9.909 -1.3244 -1.1201  0.1852
  178SLPC   C2920313   3.772   5.135   9.845 -0.2710  0.0731  0.0666
  178SLPC   H9R20314   3.708   5.061   9.896 -1.8380  0.3115 -1.4676
  178SLPC  C21020315   3.820   5.123   9.719  0.7305  0.3246  0.0064
  178SLPC  H10R20316   3.801   5.026   9.670 -0.5632  0.8361 -0.5401
  178SLPC  C21120317   3.901   5.219   9.634  0.2902 -0.2532  0.7561
  178SLPC  H11R20318   3.998   5.175   9.601  0.4893 -0.1540  1.1975
  178SLPC  H11S20319   3.936   5.298   9.705  1.0856  0.7722 -0.7185
  178SLPC  C21220320   3.826   5.292   9.518  0.0198  0.0066 -0.7566
  178SLPC  H12R20321   3.718   5.311   9.532  0.6216  2.7360  0.7231
  178SLPC  C21320322   3.882   5.329   9.395 -0.0617 -0.3691  0.1336
  178SLPC  H13R20323   3.823   5.384   9.320  0.3802 -1.3154 -0.9315
  178SLPC  C21420324   4.020   5.297   9.349  0.7057  0.3672 -0.1283
  178SLPC  H14R20325   4.103   5.293   9.423  1.9741 -0.6715 -1.5308
  178SLPC  H14S20326   4.050   5.370   9.271 -0.4309  0.6906 -0.2718
  178SLPC  C21520327   4.025   5.154   9.292 -0.0490  0.2272  0.3630
  178SLPC  H15R20328   4.003   5.089   9.379  0.2224 -1.1832 -0.5850
  178SLPC  H15S20329   4.133   5.144   9.268  0.0320  0.5416  0.5910
  178SLPC  C21620330   3.933   5.125   9.177 -0.0079 -0.0799 -0.1990
  178SLPC  H16R20331   3.826   5.127   9.206 -0.1743  1.5307 -0.8528
  178SLPC  H16S20332   3.959   5.022   9.143 -0.2691 -0.6009  1.1159
  178SLPC  C21720333   3.941   5.224   9.058 -0.6108  0.1353  0.6728
  178SLPC  H17R20334   4.047   5.228   9.026 -0.3596  0.2227  1.5002
  178SLPC  H17S20335   3.920   5.328   9.091 -0.0762 -0.0600  1.6735
  178SLPC  C21820336   3.862   5.179   8.939 -0.4786  0.3485 -0.5381
  178SLPC  H18R20337   3.863   5.261   8.864 -0.3560  0.2044 -0.6931
  178SLPC  H18S20338   3.758   5.157   8.970 -0.3268 -0.6426 -0.6826
  178SLPC  H18T20339   3.909   5.091   8.891  1.0337 -0.2060  1.7502
  178SLPC   C3320340   4.545   5.340  10.482  1.0373  0.5922  0.2189
  178SLPC   H3X20341   4.608   5.257  10.445  0.1872  0.5611 -1.2687
  178SLPC   H3Y20342   4.593   5.437  10.456 -0.3334  0.5040 -3.2438
  178SLPC   C3420343   4.418   5.335  10.392  0.3247  0.4217 -0.6807
  178SLPC   H4X20344   4.334   5.400  10.425 -0.7023 -0.3579 -1.6533
  178SLPC   H4Y20345   4.379   5.231  10.393 -0.1537  0.5817  1.6716
  178SLPC   C3520346   4.447   5.378  10.252  0.0608 -0.7516 -0.8277
  178SLPC   H5X20347   4.525   5.312  10.208 -0.5066 -1.4212 -0.8394
  178SLPC   H5Y20348   4.495   5.479  10.255  1.0074 -1.1325 -2.0798
  178SLPC   C3620349   4.317   5.402  10.165 -0.2427  0.5746 -0.2649
  178SLPC   H6X20350   4.253   5.482  10.209 -0.0278  0.5825  0.0306
  178SLPC   H6Y20351   4.255   5.310  10.172  1.6215 -0.8770 -1.7304
  178SLPC   C3720352   4.344   5.434  10.018 -0.1885  0.3354  0.5601
  178SLPC   H7X20353   4.394   5.351   9.962  1.3217  0.2788  1.9029
  178SLPC   H7Y20354   4.407   5.524  10.031  0.0821  0.1953  0.2437
  178SLPC   C3820355   4.220   5.471   9.934  0.2229  0.0293  0.3678
  178SLPC   H8X20356   4.155   5.546   9.984 -0.4915  0.2302 -0.8240
  178SLPC   H8Y20357   4.157   5.380   9.925  1.7089 -1.0860  0.8399
  178SLPC   C3920358   4.259   5.526   9.792  0.1739  0.1059  0.4835
  178SLPC   H9X20359   4.325   5.614   9.809 -0.4237  0.7529 -0.4183
  178SLPC   H9Y20360   4.169   5.556   9.734  0.2919  1.6558  1.0466
  178SLPC  C31020361   4.315   5.432   9.684 -0.4159 -0.2884  0.1913
  178SLPC  H10X20362   4.232   5.380   9.630  1.0121 -0.7631 -1.6486
  178SLPC  H10Y20363   4.384   5.356   9.728  2.0742  1.9598  0.3924
  178SLPC  C31120364   4.384   5.517   9.567 -0.4677  0.8783 -0.0604
  178SLPC  H11X20365   4.493   5.532   9.585 -0.1768 -0.7981 -0.2721
  178SLPC  H11Y20366   4.333   5.615   9.557 -1.2989  0.2276 -3.0965
  178SLPC  C31220367   4.389   5.429   9.437  0.3552 -0.6576  0.5985
  178SLPC  H12X20368   4.285   5.419   9.401  0.4379  0.2178  0.1059
  178SLPC  H12Y20369   4.437   5.333   9.468  1.0361 -0.5765 -0.1763
  178SLPC  C31320370   4.454   5.503   9.320 -0.3399 -0.1139 -0.1272
  178SLPC  H13X20371   4.564   5.502   9.335 -0.3726 -0.8308  0.1477
  178SLPC  H13Y20372   4.424   5.610   9.317  0.7297  0.1765 -0.9347
  178SLPC  C31420373   4.423   5.442   9.186 -0.4780 -0.2596 -0.1062
  178SLPC  H14X20374   4.317   5.459   9.156 -0.9327 -2.3063  0.1453
  178SLPC  H14Y20375   4.431   5.332   9.201  0.3690 -0.2817 -0.6849
  178SLPC  C31520376   4.519   5.495   9.078  0.2958  0.1645 -0.1196
  178SLPC  H15X20377   4.498   5.604   9.071  0.1547  0.0969 -0.7901
  178SLPC  H15Y20378   4.624   5.502   9.114 -0.3178 -0.4329  1.9037
  178SLPC  C31620379   4.500   5.431   8.938 -1.3814 -0.3044  0.3601
  178SLPC  H16X20380   4.397   5.410   8.904 -0.8298 -1.5766 -0.6012
  178SLPC  H16Y20381   4.542   5.329   8.951 -2.8730 -0.6431  3.6719
  178SLPC  C31720382   4.572   5.515   8.827 -0.2097  0.5943 -0.0625
  178SLPC  H17X20383   4.664   5.553   8.877 -0.5213 -1.2374  2.0801
  178SLPC  H17Y20384   4.510   5.601   8.795 -1.7705 -0.0342  1.1267
  178SLPC  C31820385   4.604   5.430   8.700  0.0422 -0.1700  0.6018
  178SLPC  H18X20386   4.694   5.366   8.715 -0.0721 -0.4013  0.3056
  178SLPC  H18Y20387   4.645   5.497   8.621  0.7976  0.4370  1.4851
  178SLPC  H18Z20388   4.523   5.366   8.660 -0.8891 -0.1005  2.2802
  179SLPC     N20389   4.481   1.385  10.291 -0.4729 -0.2785  0.1576
  179SLPC   C1320390   4.627   1.424  10.279  0.0835 -0.0292 -0.5975
  179SLPC  H13A20391   4.636   1.530  10.293 -0.3682  0.4174 -3.1686
  179SLPC  H13B20392   4.680   1.362  10.351 -2.6551  2.6210  4.2463
  179SLPC  H13C20393   4.669   1.393  10.185  0.4363 -0.0760 -0.4252
  179SLPC   C1420394   4.469   1.237  10.268  0.6471 -0.1303  0.1299
  179SLPC  H14A20395   4.531   1.178  10.334  1.9641  1.2517  0.1797
  179SLPC  H14B20396   4.370   1.206  10.296  0.8900  0.8241  2.2369
  179SLPC  H14C20397   4.500   1.215  10.166 -1.1902  0.3127 -0.5542
  179SLPC   C1520398   4.411   1.464  10.184  0.3262  0.0002  0.6681
  179SLPC  H15A20399   4.471   1.471  10.094  0.8769  0.3553  1.0602
  179SLPC  H15B20400   4.308   1.436  10.169  0.2251  0.3488  0.7007
  179SLPC  H15C20401   4.409   1.567  10.216  0.2679 -0.4127  2.0454
  179SLPC   C1220402   4.422   1.412  10.424 -0.3212  0.1438  0.4620
  179SLPC  H12A20403   4.488   1.359  10.492  1.5375 -2.0737 -2.7985
  179SLPC  H12B20404   4.322   1.375  10.443 -0.7489  0.3794 -1.2428
  179SLPC   C1120405   4.420   1.554  10.478  0.0420  0.4621  0.0327
  179SLPC  H11A20406   4.369   1.568  10.575 -0.4808  1.2978 -0.3508
  179SLPC  H11B20407   4.366   1.621  10.407  3.5331  1.6467 -1.7407
  179SLPC     P20408   4.563   1.764  10.505 -0.2373 -0.3666  0.8679
  179SLPC   O1320409   4.448   1.814  10.587  0.3812 -0.4077  0.2693
  179SLPC   O1420410   4.692   1.803  10.556  0.3740  0.1253 -0.0311
  179SLPC   O1220411   4.555   1.612  10.495 -0.2414 -0.1248 -0.3053
  179SLPC   O1120412   4.543   1.786  10.358 -0.0645  0.2727  0.2028
  179SLPC    C120413   4.535   1.914  10.285  0.1347 -0.8674 -0.2179
  179SLPC    HA20414   4.444   1.972  10.313  2.1400  1.6086  1.6764
  179SLPC    HB20415   4.611   1.989  10.316 -2.0392  1.2992  0.2340
  179SLPC    C220416   4.552   1.895  10.135 -0.0669  0.7385  0.6286
  179SLPC    HS20417   4.562   1.999  10.096 -0.0406 -0.2927 -2.3802
  179SLPC   O2120418   4.439   1.830  10.073  0.5377 -0.8509 -0.4518
  179SLPC   C2120419   4.317   1.889  10.098 -0.3619  0.4644  0.4673
  179SLPC   O2220420   4.304   2.000  10.142 -0.9859  0.3107  0.4474
  179SLPC   C2220421   4.213   1.791  10.043 -0.1702  0.2657 -0.8837
  179SLPC   H2R20422   4.219   1.708  10.117  2.1358  0.3797 -0.8737
  179SLPC   H2S20423   4.112   1.836  10.058 -0.2379  0.2059 -1.1569
  179SLPC    C320424   4.678   1.812  10.103  0.1637 -0.0527 -0.4988
  179SLPC    HX20425   4.665   1.713  10.151  0.1820  0.7147  1.1606
  179SLPC    HY20426   4.766   1.866  10.145  0.8855 -0.4811 -1.4256
  179SLPC   O3120427   4.713   1.806   9.964  0.9958  0.4535  0.2223
  179SLPC   C3120428   4.676   1.698   9.901  0.2503 -0.4315 -0.0306
  179SLPC   O3220429   4.621   1.601   9.950  0.0774 -0.1189 -0.4181
  179SLPC   C3220430   4.712   1.698   9.755 -0.8847 -0.8981 -0.3612
  179SLPC   H2X20431   4.734   1.591   9.731  1.0164 -1.4733  3.2071
  179SLPC   H2Y20432   4.801   1.763   9.740 -0.0437 -1.3681  2.1187
  179SLPC   C2320433   4.243   1.746   9.908 -0.7237 -0.4325  0.6115
  179SLPC   H3R20434   4.325   1.672   9.911 -1.5386 -1.3352  1.0415
  179SLPC   H3S20435   4.280   1.826   9.839 -0.6856 -0.1037  1.0044
  179SLPC   C2420436   4.129   1.671   9.837 -0.5651  0.6474  0.0495
  179SLPC   H4R20437   4.038   1.730   9.859 -1.6585 -0.7020 -0.6985
  179SLPC   H4S20438   4.125   1.570   9.883 -1.1664  0.5771 -0.1569
  179SLPC   C2520439   4.149   1.661   9.686 -0.0460  0.5135 -0.1552
  179SLPC   H5R20440   4.240   1.598   9.678 -1.7664 -2.3879  1.2880
  179SLPC   H5S20441   4.158   1.760   9.637 -1.2322 -0.0184 -1.5059
  179SLPC   C2620442   4.018   1.605   9.614  0.5162 -0.2284 -0.0422
  179SLPC   H6R20443   3.957   1.686   9.567  1.4774  0.5901  0.0978
  179SLPC   H6S20444   3.956   1.546   9.684  2.3672 -1.3217  0.7387
  179SLPC   C2720445   4.054   1.503   9.507 -0.0194 -0.1673 -0.3008
  179SLPC   H7R20446   3.958   1.469   9.463 -1.1947 -0.0121  1.9906
  179SLPC   H7S20447   4.108   1.418   9.555  0.9089  1.6549  2.0797
  179SLPC   C2820448   4.146   1.563   9.397  0.3630 -0.8733  0.1576
  179SLPC   H8R20449   4.199   1.478   9.349  0.7806  0.0173 -1.0081
  179SLPC   H8S20450   4.231   1.628   9.427  0.1172 -0.2932 -0.3862
  179SLPC   C2920451   4.074   1.639   9.288 -0.7944 -0.4440  0.9286
  179SLPC   H9R20452   4.013   1.723   9.323 -1.9482 -1.0653  0.4356
  179SLPC  C21020453   4.072   1.611   9.157  0.4041  0.1782  0.5335
  179SLPC  H10R20454   4.013   1.682   9.097  0.7304 -0.7842 -0.9708
  179SLPC  C21120455   4.138   1.494   9.083  0.2220 -0.9951 -0.0310
  179SLPC  H11R20456   4.161   1.415   9.157  1.8418 -1.2368 -0.7518
  179SLPC  H11S20457   4.234   1.535   9.044 -0.6169  2.0819  0.8754
  179SLPC  C21220458   4.064   1.422   8.974  0.3457 -0.2417 -0.1572
  179SLPC  H12R20459   4.090   1.443   8.869 -0.4556  2.0227  0.0430
  179SLPC  C21320460   3.957   1.340   9.000 -0.4979  0.6020  0.7258
  179SLPC  H13R20461   3.926   1.279   8.914  1.0603 -0.4319  0.8332
  179SLPC  C21420462   3.892   1.295   9.132 -0.4457 -0.1731  0.6850
  179SLPC  H14R20463   3.814   1.371   9.154  0.3114  1.3736 -1.6469
  179SLPC  H14S20464   3.959   1.296   9.220  0.4019  2.0441  0.0799
  179SLPC  C21520465   3.815   1.158   9.119 -0.5923 -0.2252  0.3304
  179SLPC  H15R20466   3.819   1.122   9.224  0.8387  0.4668  0.5444
  179SLPC  H15S20467   3.887   1.086   9.073 -1.0723  0.6989 -2.0262
  179SLPC  C21620468   3.678   1.170   9.053  0.8682  0.3972 -0.4654
  179SLPC  H16R20469   3.697   1.227   8.960 -1.5461  2.4612  0.1884
  179SLPC  H16S20470   3.613   1.238   9.111  0.6927 -1.2791  1.3911
  179SLPC  C21720471   3.604   1.036   9.022 -0.1605 -0.2131  0.2680
  179SLPC  H17R20472   3.507   1.038   9.075  0.0544 -2.2886  0.8191
  179SLPC  H17S20473   3.661   0.950   9.061 -1.1443 -0.4419  1.2400
  179SLPC  C21820474   3.587   1.011   8.872  0.8117 -0.3359 -0.0413
  179SLPC  H18R20475   3.681   1.036   8.819  1.1123  2.1203  1.5033
  179SLPC  H18S20476   3.502   1.071   8.831  1.7327 -0.4578 -2.2478
  179SLPC  H18T20477   3.565   0.904   8.856 -0.0341  0.0885 -1.9992
  179SLPC   C3320478   4.593   1.747   9.674 -0.2552 -0.7835 -0.0353
  179SLPC   H3X20479   4.557   1.845   9.711 -3.3969 -1.8336 -0.0371
  179SLPC   H3Y20480   4.504   1.680   9.673  0.9583 -2.4720 -0.0405
  179SLPC   C3420481   4.640   1.783   9.535 -0.3634  0.0065  0.4101
  179SLPC   H4X20482   4.697   1.699   9.491 -0.1585  1.3047 -1.9794
  179SLPC   H4Y20483   4.717   1.863   9.535  1.6083 -1.7919 -0.8764
  179SLPC   C3520484   4.519   1.817   9.441 -0.9203 -0.2385 -0.7174
  179SLPC   H5X20485   4.476   1.913   9.477 -0.0140 -0.8082  2.1900
  179SLPC   H5Y20486   4.440   1.741   9.452  0.2392 -1.2051  1.8163
  179SLPC   C3620487   4.570   1.821   9.298  0.6829 -0.7832 -0.0382
  179SLPC   H6X20488   4.483   1.788   9.237 -0.9631  2.1667  0.5633
  179SLPC   H6Y20489   4.651   1.746   9.281 -1.7756 -3.6686  0.1190
  179SLPC   C3720490   4.613   1.957   9.247  0.1471 -0.2550 -0.5897
  179SLPC   H7X20491   4.680   2.002   9.323 -2.3276  0.1824  1.4691
  179SLPC   H7Y20492   4.527   2.027   9.242  0.2175 -0.1853 -0.8450
  179SLPC   C3820493   4.686   1.939   9.108 -0.8243 -1.2618 -0.4925
  179SLPC   H8X20494   4.779   1.879   9.120  0.2698  0.1432 -1.6090
  179SLPC   H8Y20495   4.716   2.044   9.088 -1.6962  0.0627  3.9772
  179SLPC   C3920496   4.589   1.904   9.002  0.7443  0.1152 -0.0490
  179SLPC   H9X20497   4.509   1.980   9.011  2.3600  1.7254  1.2139
  179SLPC   H9Y20498   4.550   1.800   9.013 -0.4235  0.7345  2.2213
  179SLPC  C31020499   4.647   1.910   8.859 -0.7448  0.6418  0.3738
  179SLPC  H10X20500   4.734   1.841   8.856  0.2038  1.8034  0.1142
  179SLPC  H10Y20501   4.694   2.007   8.832  2.0615 -0.2779  1.5645
  179SLPC  C31120502   4.554   1.875   8.733 -0.1913 -0.6983  0.4678
  179SLPC  H11X20503   4.495   1.969   8.724 -1.0073 -1.2680 -0.1854
  179SLPC  H11Y20504   4.490   1.792   8.767 -1.0117 -0.6079 -0.8059
  179SLPC  C31220505   4.614   1.836   8.599  0.3696  0.1066  0.1167
  179SLPC  H12X20506   4.673   1.742   8.604  1.3723  0.7157  0.0068
  179SLPC  H12Y20507   4.691   1.908   8.563  0.3294 -0.5533 -1.3550
  179SLPC  C31320508   4.508   1.800   8.492  0.2369  0.2392 -0.8101
  179SLPC  H13X20509   4.438   1.886   8.490  1.2201  1.2171  2.1560
  179SLPC  H13Y20510   4.451   1.713   8.530  0.6686  0.4947  0.4634
  179SLPC  C31420511   4.542   1.767   8.345 -0.2204  0.3844  0.1486
  179SLPC  H14X20512   4.456   1.737   8.282 -0.5169  1.8374 -0.1538
  179SLPC  H14Y20513   4.614   1.682   8.342  0.8212  1.2804 -1.9275
  179SLPC  C31520514   4.617   1.886   8.279 -0.1373  0.0694 -0.4617
  179SLPC  H15X20515   4.648   1.864   8.175 -0.1446  1.5692 -0.8109
  179SLPC  H15Y20516   4.717   1.896   8.326  0.2814 -0.3524 -1.2387
  179SLPC  C31620517   4.548   2.022   8.286  0.5965 -0.1823 -0.4546
  179SLPC  H16X20518   4.554   2.069   8.387 -2.5290  2.9181 -1.5261
  179SLPC  H16Y20519   4.442   1.992   8.274  0.3761 -0.0631  0.9758
  179SLPC  C31720520   4.601   2.120   8.186  0.1679 -0.6429 -0.7634
  179SLPC  H17X20521   4.573   2.088   8.083 -1.2885 -1.9389 -0.0042
  179SLPC  H17Y20522   4.711   2.135   8.193  0.1041 -0.9084  1.0972
  179SLPC  C31820523   4.544   2.258   8.200 -0.4268  0.5723 -0.4987
  179SLPC  H18X20524   4.433   2.246   8.196 -0.4292 -0.0387  0.8250
  179SLPC  H18Y20525   4.583   2.313   8.112  2.0504 -0.8958 -0.4017
  179SLPC  H18Z20526   4.560   2.314   8.294 -0.3238 -1.7587  0.9687
  180SLPC     N20527   5.930   5.855  11.278  1.0566 -0.2467  0.7029
  180SLPC   C1320528   6.061   5.875  11.204 -0.6431  0.0334 -0.0459
  180SLPC  H13A20529   6.119   5.941  11.266 -0.9466 -0.8938  1.2803
  180SLPC  H13B20530   6.097   5.774  11.190 -1.4494 -0.2553 -0.0706
  180SLPC  H13C20531   6.049   5.929  11.111  1.6609  1.3925  0.3521
  180SLPC   C1420532   5.885   5.991  11.320  0.5754 -0.2704 -0.6201
  180SLPC  H14A20533   5.796   5.986  11.380  0.4880  3.6252 -0.1759
  180SLPC  H14B20534   5.959   6.049  11.373 -1.4943  1.4442  0.5441
  180SLPC  H14C20535   5.867   6.048  11.230  1.0259 -0.8920 -1.1117
  180SLPC   C1520536   5.944   5.768  11.399 -0.3612  0.4195 -0.5793
  180SLPC  H15A20537   5.958   5.666  11.367  0.1277  0.5795 -0.8973
  180SLPC  H15B20538   6.030   5.799  11.457 -1.2206  1.1673  0.3382
  180SLPC  H15C20539   5.857   5.766  11.462 -0.3896 -2.0650 -0.6063
  180SLPC   C1220540   5.827   5.793  11.182 -0.8809  0.4377  0.3779
  180SLPC  H12A20541   5.744   5.747  11.235  0.2545  0.0387  1.8755
  180SLPC  H12B20542   5.874   5.716  11.123 -0.1170  1.4124 -0.3144
  180SLPC   C1120543   5.759   5.891  11.086 -0.5136 -0.0412  0.2413
  180SLPC  H11A20544   5.699   5.961  11.148 -0.5982  1.7182 -1.7107
  180SLPC  H11B20545   5.689   5.835  11.021  1.9359 -1.9070 -0.9338
  180SLPC     P20546   5.911   5.888  10.872  0.5188 -0.4723 -0.1966
  180SLPC   O1320547   6.004   5.975  10.802  0.2605  0.6101  0.1434
  180SLPC   O1420548   5.953   5.750  10.910 -0.3136 -0.4408  0.2922
  180SLPC   O1220549   5.858   5.965  11.005  0.8729  0.7609 -0.2636
  180SLPC   O1120550   5.771   5.879  10.792 -0.0235  0.2625 -0.6847
  180SLPC    C120551   5.682   5.994  10.789 -0.8949  0.1364 -0.4576
  180SLPC    HA20552   5.576   5.967  10.770 -1.0807  1.5269 -1.5421
  180SLPC    HB20553   5.678   6.049  10.885 -0.1334 -1.8131  0.7415
  180SLPC    C220554   5.707   6.085  10.659 -0.0670  0.7320 -0.6106
  180SLPC    HS20555   5.616   6.148  10.650 -0.6126  0.0118 -0.2683
  180SLPC   O2120556   5.734   6.015  10.538  0.1707  0.3066  0.2472
  180SLPC   C2120557   5.626   5.977  10.472 -0.3079 -0.3575  0.0018
  180SLPC   O2220558   5.515   5.981  10.522  0.1887 -0.7891  0.7070
  180SLPC   C2220559   5.658   5.925  10.332  0.6639 -0.0324 -0.2632
  180SLPC   H2R20560   5.719   6.002  10.281 -0.7578  0.2027 -1.7023
  180SLPC   H2S20561   5.711   5.828  10.344 -0.7541 -0.6652  1.4091
  180SLPC    C320562   5.829   6.183  10.680 -0.5353  0.5045  0.2266
  180SLPC    HX20563   5.930   6.137  10.668 -0.0693  1.7147 -0.7812
  180SLPC    HY20564   5.810   6.209  10.786 -0.6231  0.6026  0.1861
  180SLPC   O3120565   5.816   6.295  10.586 -0.1680  0.6380  0.0882
  180SLPC   C3120566   5.903   6.393  10.612 -0.0996 -0.4909  0.6516
  180SLPC   O3220567   5.977   6.393  10.705 -0.0578 -0.6389  0.1221
  180SLPC   C3220568   5.894   6.501  10.496 -0.4799  0.4310  0.3845
  180SLPC   H2X20569   5.963   6.584  10.522  1.9806 -1.6753  1.1424
  180SLPC   H2Y20570   5.787   6.531  10.495 -0.4449  0.5927 -1.1366
  180SLPC   C2320571   5.525   5.900  10.260 -0.1853 -0.0557 -0.3190
  180SLPC   H3R20572   5.477   6.000  10.256  0.7613  0.4283  0.1506
  180SLPC   H3S20573   5.471   5.827  10.324  0.6198  0.5487  1.0983
  180SLPC   C2420574   5.545   5.843  10.125  0.3706  0.9617  0.7433
  180SLPC   H4R20575   5.579   5.737  10.129 -0.9206  0.4364 -1.1191
  180SLPC   H4S20576   5.620   5.906  10.073  0.6643 -0.8655 -1.1994
  180SLPC   C2520577   5.413   5.836  10.046 -0.5107 -0.2132  0.9016
  180SLPC   H5R20578   5.353   5.930  10.046 -2.2882 -1.2987  0.8176
  180SLPC   H5S20579   5.354   5.756  10.097  0.0753 -1.4568 -0.3036
  180SLPC   C2620580   5.417   5.812   9.891 -0.5938  0.3231 -0.4487
  180SLPC   H6R20581   5.313   5.824   9.855 -0.3890  1.2136 -0.7583
  180SLPC   H6S20582   5.443   5.706   9.869  1.3145  0.5968  0.3026
  180SLPC   C2720583   5.502   5.903   9.810 -0.5531  0.1802  0.1140
  180SLPC   H7R20584   5.609   5.894   9.835 -0.2190 -0.4270 -1.4058
  180SLPC   H7S20585   5.480   6.010   9.830  1.1680  0.7176 -0.6591
  180SLPC   C2820586   5.501   5.872   9.657 -0.0382  0.4597  0.2647
  180SLPC   H8R20587   5.538   5.768   9.646 -1.4381 -0.1687  1.2605
  180SLPC   H8S20588   5.573   5.942   9.608 -1.8900  1.7452 -0.7204
  180SLPC   C2920589   5.369   5.907   9.595 -0.5824  0.1765  0.2829
  180SLPC   H9R20590   5.317   5.981   9.657 -0.1181  0.3054  0.5178
  180SLPC  C21020591   5.315   5.850   9.492 -0.2888  0.3603  0.8274
  180SLPC  H10R20592   5.219   5.889   9.456  0.2710  0.4976 -0.5518
  180SLPC  C21120593   5.374   5.743   9.400 -0.0188 -0.5707 -0.0507
  180SLPC  H11R20594   5.306   5.655   9.406  1.4562 -1.6563  3.2907
  180SLPC  H11S20595   5.468   5.704   9.444  0.2456  0.2566  0.1347
  180SLPC  C21220596   5.395   5.777   9.256 -0.3743 -0.5498 -0.0185
  180SLPC  H12R20597   5.471   5.856   9.246  0.2952 -1.3203 -1.2088
  180SLPC  C21320598   5.331   5.731   9.138 -0.0905 -0.7330  0.1150
  180SLPC  H13R20599   5.360   5.761   9.036 -2.4085  0.1057 -0.3516
  180SLPC  C21420600   5.217   5.631   9.131 -0.2216  0.2602 -1.0227
  180SLPC  H14R20601   5.124   5.686   9.105 -0.6818 -0.0949 -0.1491
  180SLPC  H14S20602   5.193   5.598   9.234  1.6977 -1.0479 -0.9312
  180SLPC  C21520603   5.243   5.512   9.037 -0.1877  0.1922 -0.1547
  180SLPC  H15R20604   5.158   5.446   9.065  0.3444 -0.6932 -0.5670
  180SLPC  H15S20605   5.336   5.457   9.061  1.6007  3.3925  0.8637
  180SLPC  C21620606   5.229   5.538   8.890 -0.0811  0.1113  0.7925
  180SLPC  H16R20607   5.295   5.626   8.869 -1.4002  0.7079 -1.1388
  180SLPC  H16S20608   5.125   5.568   8.866 -0.9337 -2.6203  0.7405
  180SLPC  C21720609   5.248   5.415   8.796 -0.1678  0.6486  0.0591
  180SLPC  H17R20610   5.221   5.323   8.852 -0.0040  1.2608  1.1673
  180SLPC  H17S20611   5.358   5.400   8.783 -0.0229  0.5555  1.2716
  180SLPC  C21820612   5.166   5.421   8.672 -0.6108  0.3459  0.0096
  180SLPC  H18R20613   5.058   5.443   8.687 -0.3572  1.4247  0.3521
  180SLPC  H18S20614   5.172   5.328   8.612 -3.1246 -0.3771  0.7421
  180SLPC  H18T20615   5.207   5.504   8.610 -0.8809  1.0970  0.8117
  180SLPC   C3320616   5.942   6.445  10.359  0.1121 -1.1319  0.7685
  180SLPC   H3X20617   5.875   6.359  10.338 -0.1914 -1.0106  1.2241
  180SLPC   H3Y20618   6.044   6.400  10.359 -0.1673 -1.9358 -1.8217
  180SLPC   C3420619   5.927   6.550  10.244 -0.0919  0.0276 -0.6606
  180SLPC   H4X20620   5.985   6.642  10.267 -0.5321  0.5138 -1.4403
  180SLPC   H4Y20621   5.821   6.583  10.243  0.1675  0.9920  0.8363
  180SLPC   C3520622   5.973   6.496  10.109 -0.1482 -0.0948 -0.0710
  180SLPC   H5X20623   5.937   6.393  10.089  0.0168  0.0739 -1.3556
  180SLPC   H5Y20624   6.084   6.498  10.104 -0.1530  0.8609  0.1066
  180SLPC   C3620625   5.931   6.596   9.994 -0.0695  0.5334 -0.8224
  180SLPC   H6X20626   5.970   6.695  10.027  2.4162 -0.1918 -1.3452
  180SLPC   H6Y20627   5.820   6.600   9.989 -0.0852  0.0604 -0.8863
  180SLPC   C3720628   5.975   6.567   9.854 -0.4951  0.4333 -0.1984
  180SLPC   H7X20629   5.943   6.462   9.833 -0.5769  0.5007 -0.4148
  180SLPC   H7Y20630   6.085   6.563   9.866 -0.6845 -0.6427  1.5334
  180SLPC   C3820631   5.922   6.663   9.746 -0.1764  0.4420 -0.3322
  180SLPC   H8X20632   5.828   6.706   9.785 -0.2136  1.9616 -1.9985
  180SLPC   H8Y20633   5.903   6.599   9.657  0.5575 -0.2427 -0.0161
  180SLPC   C3920634   6.024   6.773   9.718 -1.0419 -0.2446  0.2757
  180SLPC   H9X20635   6.124   6.727   9.702 -0.1678  1.7357 -0.2769
  180SLPC   H9Y20636   6.033   6.826   9.815  0.7677 -2.2818  1.3182
  180SLPC  C31020637   5.983   6.864   9.605  0.0499 -0.0372  0.9320
  180SLPC  H10X20638   6.046   6.955   9.596  0.2919 -0.3736 -1.1092
  180SLPC  H10Y20639   5.877   6.896   9.604 -0.1026 -0.4815  1.6151
  180SLPC  C31120640   6.015   6.796   9.467  0.1221  0.3193  0.0127
  180SLPC  H11X20641   5.981   6.691   9.481 -1.8630  0.9674  0.4194
  180SLPC  H11Y20642   6.126   6.788   9.463  0.3751  2.3538  1.3103
  180SLPC  C31220643   5.957   6.866   9.344  0.3148 -0.5722  0.1360
  180SLPC  H12X20644   5.982   6.974   9.340 -0.8672 -0.2760  0.3128
  180SLPC  H12Y20645   5.846   6.859   9.342  0.3646 -2.3911 -2.8564
  180SLPC  C31320646   5.987   6.792   9.212 -0.1358 -0.2976  0.4828
  180SLPC  H13X20647   5.910   6.815   9.135  0.4347 -0.3179 -0.1093
  180SLPC  H13Y20648   5.961   6.686   9.229 -0.0395 -0.8125 -2.0836
  180SLPC  C31420649   6.125   6.814   9.164 -0.1717 -0.1061 -0.1282
  180SLPC  H14X20650   6.206   6.805   9.239  0.2588  1.0381 -0.4295
  180SLPC  H14Y20651   6.139   6.919   9.130  0.5488  0.7234  2.5033
  180SLPC  C31520652   6.154   6.711   9.052  0.9704  0.2495 -0.1965
  180SLPC  H15X20653   6.087   6.719   8.963  3.0881  0.3185 -1.8678
  180SLPC  H15Y20654   6.131   6.614   9.100 -0.4469  0.4049 -0.5061
  180SLPC  C31620655   6.293   6.707   9.001 -0.4181 -0.1616 -0.3245
  180SLPC  H16X20656   6.320   6.610   8.954  1.5465 -0.2030  0.7951
  180SLPC  H16Y20657   6.370   6.706   9.081 -1.4209 -1.3006  0.6619
  180SLPC  C31720658   6.323   6.823   8.912  0.1414  0.2797  0.4301
  180SLPC  H17X20659   6.433   6.842   8.908 -0.3229  3.3392 -1.0578
  180SLPC  H17Y20660   6.281   6.913   8.962  1.9049  1.3677  0.0648
  180SLPC  C31820661   6.294   6.805   8.764 -0.2730  0.1812  0.5922
  180SLPC  H18X20662   6.308   6.899   8.707  4.3035 -0.0930  0.8411
  180SLPC  H18Y20663   6.193   6.763   8.747  0.0477  0.7253 -3.6307
  180SLPC  H18Z20664   6.351   6.720   8.720  0.8450  2.2877 -2.3124
  181SLPC     N20665   4.004   2.569  10.984  0.0406  0.2300 -0.4621
  181SLPC   C1320666   3.934   2.621  11.103  0.0154  0.1314  0.2001
  181SLPC  H13A20667   3.980   2.715  11.130  1.7352 -0.7406  0.4700
  181SLPC  H13B20668   3.830   2.630  11.075  0.2820 -1.8620 -1.7063
  181SLPC  H13C20669   3.931   2.556  11.190 -0.8930 -0.1185 -0.0037
  181SLPC   C1420670   4.143   2.532  11.008  0.2096 -1.0687 -0.3509
  181SLPC  H14A20671   4.205   2.608  11.052 -0.7183 -0.5341  0.0506
  181SLPC  H14B20672   4.149   2.446  11.073 -2.7908  0.4219  2.1002
  181SLPC  H14C20673   4.196   2.513  10.915 -0.7805  2.9175 -1.9270
  181SLPC   C1520674   4.013   2.681  10.890 -0.2154  0.4330  0.1602
  181SLPC  H15A20675   4.057   2.771  10.931  1.9095 -0.1398 -0.7188
  181SLPC  H15B20676   4.053   2.647  10.795  0.2025 -0.8259  0.7692
  181SLPC  H15C20677   3.908   2.696  10.867 -1.1672 -1.8827  2.4935
  181SLPC   C1220678   3.924   2.455  10.921  0.0835 -0.7694 -0.0116
  181SLPC  H12A20679   3.960   2.434  10.821 -0.3432 -1.7484  0.0245
  181SLPC  H12B20680   3.827   2.494  10.895  0.2378  1.4144  2.3347
  181SLPC   C1120681   3.907   2.322  10.989 -0.2133 -0.0608  0.0906
  181SLPC  H11A20682   4.009   2.289  11.017 -0.2328  0.3462  0.6618
  181SLPC  H11B20683   3.875   2.236  10.925  3.1964 -1.3963 -0.0320
  181SLPC     P20684   3.673   2.349  11.104  0.0922 -0.1348 -0.1460
  181SLPC   O1320685   3.608   2.220  11.059  0.4576  0.0334 -0.4159
  181SLPC   O1420686   3.630   2.406  11.233  0.1198 -0.2530 -0.5616
  181SLPC   O1220687   3.831   2.340  11.102  0.1050 -0.1146 -0.2133
  181SLPC   O1120688   3.646   2.451  10.989 -0.3178 -0.3050  0.2456
  181SLPC    C120689   3.518   2.511  10.964  0.0482  0.4656  0.0194
  181SLPC    HA20690   3.457   2.522  11.055  0.8669 -1.0511  0.8018
  181SLPC    HB20691   3.527   2.614  10.924  0.1217 -0.0100 -1.2603
  181SLPC    C220692   3.428   2.426  10.866 -0.1031  0.0852  0.4233
  181SLPC    HS20693   3.421   2.324  10.910 -0.6466 -0.0555  0.0206
  181SLPC   O2120694   3.502   2.421  10.738  0.1928 -0.2688 -0.3399
  181SLPC   C2120695   3.473   2.321  10.658 -0.5021 -0.4726  0.7168
  181SLPC   O2220696   3.384   2.239  10.680 -0.0287 -0.2347  0.1463
  181SLPC   C2220697   3.572   2.321  10.542  0.0415  0.7827 -0.6923
  181SLPC   H2R20698   3.665   2.297  10.598 -0.8454 -0.0180  0.4916
  181SLPC   H2S20699   3.537   2.254  10.461 -0.0927  0.5288 -0.4259
  181SLPC    C320700   3.293   2.504  10.857 -0.0314  0.2610 -0.4518
  181SLPC    HX20701   3.259   2.497  10.963  1.3574  0.4078  0.0292
  181SLPC    HY20702   3.223   2.436  10.804 -1.0486  1.6200 -0.9065
  181SLPC   O3120703   3.291   2.629  10.791  0.0707 -0.1857  0.4791
  181SLPC   C3120704   3.205   2.725  10.828  0.3500  0.2785  0.4780
  181SLPC   O3220705   3.154   2.735  10.936  0.6027  0.0179  0.1904
  181SLPC   C3220706   3.175   2.822  10.708  0.0268  0.4558  0.4688
  181SLPC   H2X20707   3.272   2.858  10.668  0.3060 -1.7190 -1.0416
  181SLPC   H2Y20708   3.103   2.898  10.745 -1.9188 -1.9247  1.8815
  181SLPC   C2320709   3.592   2.458  10.484 -0.2945 -0.8137 -0.9183
  181SLPC   H3R20710   3.684   2.461  10.422  1.2154  3.2108  1.0961
  181SLPC   H3S20711   3.605   2.536  10.562 -0.0186 -1.6826 -0.0856
  181SLPC   C2420712   3.470   2.503  10.403 -0.5495  0.2922 -0.1571
  181SLPC   H4R20713   3.386   2.499  10.477  1.0320 -0.6233  1.6903
  181SLPC   H4S20714   3.453   2.424  10.328  0.2503 -0.8291  0.8015
  181SLPC   C2520715   3.490   2.644  10.346  0.9068 -0.5275  0.5361
  181SLPC   H5R20716   3.595   2.660  10.312  2.2793 -1.4582  3.8551
  181SLPC   H5S20717   3.463   2.707  10.433 -0.1226  0.4607 -0.4690
  181SLPC   C2620718   3.381   2.678  10.234 -0.0913  0.3253 -0.0755
  181SLPC   H6R20719   3.278   2.640  10.253 -0.0228 -0.4368 -1.0976
  181SLPC   H6S20720   3.412   2.627  10.140 -0.1130  1.4686 -0.7145
  181SLPC   C2720721   3.380   2.822  10.208  0.3117  0.4829  0.1495
  181SLPC   H7R20722   3.481   2.865  10.227  0.4437 -0.7556  2.4890
  181SLPC   H7S20723   3.309   2.875  10.275 -1.1577 -0.0739 -0.9190
  181SLPC   C2820724   3.320   2.855  10.072 -0.1212  0.3274  0.3135
  181SLPC   H8R20725   3.214   2.819  10.067  0.1814 -0.5507 -0.0653
  181SLPC   H8S20726   3.367   2.798   9.990 -0.5889  1.7931 -1.0213
  181SLPC   C2920727   3.331   3.001  10.042  0.0295  0.3480 -0.4626
  181SLPC   H9R20728   3.283   3.064  10.119  1.1623 -0.8031  1.2453
  181SLPC  C21020729   3.381   3.053   9.926  0.0892 -0.5571 -0.0693
  181SLPC  H10R20730   3.390   3.162   9.912  2.0057 -0.5456  0.9309
  181SLPC  C21120731   3.424   2.976   9.805  0.2323 -0.1275  0.3582
  181SLPC  H11R20732   3.400   3.048   9.723  1.7212  1.3729  1.1935
  181SLPC  H11S20733   3.367   2.882   9.789  1.8706 -0.8787 -1.5067
  181SLPC  C21220734   3.565   2.948   9.806 -0.0636  0.3982  0.1004
  181SLPC  H12R20735   3.615   2.949   9.904  0.4682  3.6706 -0.0947
  181SLPC  C21320736   3.644   2.920   9.700  1.0008 -0.2040 -0.6640
  181SLPC  H13R20737   3.745   2.889   9.729  0.4370 -0.6191  0.9420
  181SLPC  C21420738   3.603   2.917   9.555 -0.3142  0.5340 -0.5220
  181SLPC  H14R20739   3.509   2.975   9.546 -0.8499  0.7796  4.2232
  181SLPC  H14S20740   3.578   2.809   9.538  3.2928 -0.8983  2.0332
  181SLPC  C21520741   3.712   2.947   9.453  0.6018  0.2513  0.6378
  181SLPC  H15R20742   3.802   2.883   9.462  0.5916  0.2796  0.9573
  181SLPC  H15S20743   3.743   3.049   9.483 -0.7386  0.6131  0.8553
  181SLPC  C21620744   3.650   2.948   9.306 -0.3809  0.5991  0.2183
  181SLPC  H16R20745   3.559   3.011   9.309 -0.4046  0.7602 -1.9926
  181SLPC  H16S20746   3.605   2.849   9.283  0.6291  0.1786  0.0015
  181SLPC  C21720747   3.749   2.973   9.195 -0.0135  0.2496  0.1873
  181SLPC  H17R20748   3.846   2.927   9.222  0.6086  0.8762 -0.8871
  181SLPC  H17S20749   3.756   3.083   9.181 -1.3749  0.2735 -0.4836
  181SLPC  C21820750   3.698   2.922   9.066  0.6856  0.1302  0.3627
  181SLPC  H18R20751   3.618   2.991   9.031 -1.2519 -1.1165  2.1315
  181SLPC  H18S20752   3.655   2.819   9.070  0.0829  0.2272 -1.8428
  181SLPC  H18T20753   3.781   2.906   8.992  2.0885  0.8447  1.7284
  181SLPC   C3320754   3.101   2.762  10.592 -0.2743  0.9066  0.4965
  181SLPC   H3X20755   3.003   2.716  10.617  0.1050 -0.4207 -0.3044
  181SLPC   H3Y20756   3.162   2.678  10.552 -0.0320  1.2405  0.1665
  181SLPC   C3420757   3.064   2.863  10.481  0.8179 -0.1948 -0.1725
  181SLPC   H4X20758   3.158   2.905  10.438 -0.2645  1.0134 -1.4571
  181SLPC   H4Y20759   3.007   2.950  10.521 -0.8724 -1.1929 -0.3035
  181SLPC   C3520760   2.976   2.809  10.369  0.6116  0.1978  0.2866
  181SLPC   H5X20761   2.875   2.775  10.397  1.4368 -0.8663  2.1472
  181SLPC   H5Y20762   3.026   2.722  10.321  3.6538  2.7720 -1.6579
  181SLPC   C3620763   2.950   2.918  10.261  0.0620 -0.2291 -0.0918
  181SLPC   H6X20764   3.039   2.953  10.205 -0.5921  0.1572 -0.9031
  181SLPC   H6Y20765   2.910   3.009  10.311  0.1563 -0.9741  1.4026
  181SLPC   C3720766   2.847   2.870  10.156  0.3399  0.2511 -0.0950
  181SLPC   H7X20767   2.745   2.848  10.194  0.8616 -0.0228  1.2212
  181SLPC   H7Y20768   2.882   2.770  10.122  1.6578  0.4714  0.5265
  181SLPC   C3820769   2.801   2.965  10.041 -0.7760 -0.3434  0.3540
  181SLPC   H8X20770   2.892   3.004   9.991 -1.4771 -1.4011 -1.8886
  181SLPC   H8Y20771   2.747   3.052  10.084 -0.2130  0.9421 -1.4426
  181SLPC   C3920772   2.708   2.895   9.945 -0.0588 -0.0854 -0.2755
  181SLPC   H9X20773   2.613   2.859   9.990 -1.4197  0.7995 -2.3131
  181SLPC   H9Y20774   2.754   2.801   9.907  3.3006  1.3586 -0.1395
  181SLPC  C31020775   2.660   2.987   9.835 -0.5798  0.1883  0.1945
  181SLPC  H10X20776   2.654   3.093   9.868  4.1339  0.1804  1.7925
  181SLPC  H10Y20777   2.558   2.956   9.804 -1.4044  2.2603  0.6716
  181SLPC  C31120778   2.761   2.995   9.717 -0.0381  0.0136  0.6813
  181SLPC  H11X20779   2.809   2.896   9.732  0.4561 -0.0585 -1.0750
  181SLPC  H11Y20780   2.831   3.074   9.749 -0.6644  1.3532 -1.0655
  181SLPC  C31220781   2.706   3.015   9.575 -0.1643 -0.3950  0.4248
  181SLPC  H12X20782   2.682   3.122   9.556 -0.8512 -0.7357 -0.6934
  181SLPC  H12Y20783   2.620   2.948   9.555 -1.8116  2.2525 -2.1863
  181SLPC  C31320784   2.806   2.972   9.471  0.0672 -0.3097 -1.0434
  181SLPC  H13X20785   2.804   2.862   9.456  0.1245 -0.5478  0.5907
  181SLPC  H13Y20786   2.905   2.989   9.519 -0.1107  1.2381 -1.1589
  181SLPC  C31420787   2.791   3.059   9.341 -1.0999  0.5285 -0.3873
  181SLPC  H14X20788   2.815   3.162   9.374  0.0905  0.7468 -1.8361
  181SLPC  H14Y20789   2.691   3.045   9.296 -0.4956  1.1692 -2.0101
  181SLPC  C31520790   2.894   3.008   9.234  0.1628 -0.1866 -0.1172
  181SLPC  H15X20791   2.874   2.905   9.198  0.6538  0.0955 -1.2550
  181SLPC  H15Y20792   3.002   3.016   9.257  0.6387 -0.2611 -2.1319
  181SLPC  C31620793   2.886   3.103   9.112 -0.5513  0.2051  0.0961
  181SLPC  H16X20794   2.892   3.209   9.146  0.1699  0.6065 -1.2218
  181SLPC  H16Y20795   2.791   3.085   9.057 -0.1216 -0.7777 -0.3385
  181SLPC  C31720796   3.005   3.081   9.018 -0.0895 -0.0620  0.1943
  181SLPC  H17X20797   3.013   2.971   9.002 -1.0590 -0.3563  1.5089
  181SLPC  H17Y20798   3.098   3.123   9.061 -0.0888 -0.6606  0.7967
  181SLPC  C31820799   2.983   3.150   8.887  0.1715  0.1848  0.6660
  181SLPC  H18X20800   3.024   3.251   8.867  0.7577 -0.1125  0.3605
  181SLPC  H18Y20801   2.872   3.159   8.878  0.2932 -0.4151 -2.1047
  181SLPC  H18Z20802   3.002   3.087   8.797 -2.2280  2.1266 -1.3559
  182SLPC     N20803   2.268   4.299  11.178  0.7265 -0.1561  0.0041
  182SLPC   C1320804   2.253   4.413  11.095 -0.5313  0.0685  0.5620
  182SLPC  H13A20805   2.152   4.449  11.085 -0.7017 -0.6290 -0.2780
  182SLPC  H13B20806   2.312   4.498  11.129 -0.8390 -0.1053  1.5759
  182SLPC  H13C20807   2.276   4.394  10.992 -0.2769  1.8014  0.2681
  182SLPC   C1420808   2.239   4.336  11.319 -0.0599  0.2723 -0.9958
  182SLPC  H14A20809   2.141   4.377  11.339  0.9086  1.1029  2.6512
  182SLPC  H14B20810   2.244   4.249  11.382  2.3671 -0.7139 -2.3695
  182SLPC  H14C20811   2.306   4.402  11.373 -1.7258  1.0252  0.2068
  182SLPC   C1520812   2.418   4.268  11.177 -0.8191 -0.0274  0.1665
  182SLPC  H15A20813   2.460   4.255  11.078  0.7904  1.5954  0.5759
  182SLPC  H15B20814   2.472   4.350  11.221  1.4263 -0.7833 -0.9943
  182SLPC  H15C20815   2.439   4.177  11.232 -0.8899  0.6310  1.2982
  182SLPC   C1220816   2.196   4.174  11.123  0.3561 -0.6229 -0.6614
  182SLPC  H12A20817   2.091   4.191  11.143  0.4879  0.6869 -0.9995
  182SLPC  H12B20818   2.228   4.099  11.194 -1.7306  0.2207  1.3117
  182SLPC   C1120819   2.225   4.114  10.980 -0.4160 -0.7175  0.3324
  182SLPC  H11A20820   2.194   4.009  10.962  0.7929 -1.3290  1.5919
  182SLPC  H11B20821   2.335   4.108  10.966 -0.3563 -1.1638  0.9530
  182SLPC     P20822   2.032   4.226  10.840 -0.0665  0.2365 -0.0021
  182SLPC   O1320823   1.946   4.147  10.926 -0.6308  0.4133  0.0637
  182SLPC   O1420824   1.995   4.368  10.842 -0.1560 -0.2021  0.3910
  182SLPC   O1220825   2.183   4.209  10.881 -0.2760 -0.4329  0.1867
  182SLPC   O1120826   2.018   4.167  10.693  0.4639  0.3653 -0.3738
  182SLPC    C120827   2.109   4.079  10.631 -0.7405 -0.0918 -0.6295
  182SLPC    HA20828   2.210   4.123  10.618 -1.4438  1.3057 -1.7549
  182SLPC    HB20829   2.119   3.991  10.698 -2.4323  0.8431  0.9848
  182SLPC    C220830   2.065   4.057  10.486  0.1279 -0.0333  0.1049
  182SLPC    HS20831   2.163   4.036  10.437  0.4813 -2.0201  1.5179
  182SLPC   O2120832   1.999   4.169  10.429  0.2435 -0.7299 -0.5405
  182SLPC   C2120833   2.070   4.286  10.422 -0.0863 -0.4610 -0.4519
  182SLPC   O2220834   2.183   4.299  10.455 -0.1899 -0.3440 -0.1350
  182SLPC   C2220835   1.979   4.405  10.376  0.1496  0.1884  0.2464
  182SLPC   H2R20836   1.934   4.449  10.468 -0.3982 -1.6227  0.8850
  182SLPC   H2S20837   2.037   4.482  10.320 -1.1015  0.4071 -0.7943
  182SLPC    C320838   1.984   3.922  10.474 -0.1313 -0.8880 -0.1056
  182SLPC    HX20839   1.888   3.929  10.530 -0.8693 -0.6619 -1.3830
  182SLPC    HY20840   2.044   3.838  10.514 -0.3628 -1.1940 -0.4088
  182SLPC   O3120841   1.941   3.895  10.342  0.0203  0.8779 -0.2353
  182SLPC   C3120842   2.030   3.839  10.263  0.3829  0.2361 -0.3626
  182SLPC   O3220843   2.141   3.803  10.292  0.3383  0.0389 -0.0340
  182SLPC   C3220844   1.974   3.827  10.120 -0.3264  0.6023  0.2681
  182SLPC   H2X20845   1.877   3.879  10.104 -0.4759  0.7877  1.6267
  182SLPC   H2Y20846   1.958   3.717  10.119  0.7128  0.4199  1.4051
  182SLPC   C2320847   1.865   4.354  10.279  0.7929  0.4592 -0.0681
  182SLPC   H3R20848   1.797   4.441  10.265 -1.1036 -1.2899 -2.9769
  182SLPC   H3S20849   1.807   4.270  10.324  0.4754 -1.8549 -4.2815
  182SLPC   C2420850   1.903   4.309  10.142 -0.5964  1.2233 -0.6842
  182SLPC   H4R20851   1.946   4.207  10.149 -2.5490  0.4062  0.1136
  182SLPC   H4S20852   1.968   4.384  10.093  0.8909  0.5425  0.1757
  182SLPC   C2520853   1.776   4.282  10.056 -0.3686  0.2614  0.2475
  182SLPC   H5R20854   1.716   4.376  10.045 -0.7416  0.0175  0.1795
  182SLPC   H5S20855   1.708   4.212  10.107  0.1819 -0.4683 -0.0091
  182SLPC   C2620856   1.801   4.209   9.918 -1.1443 -0.0082  0.7084
  182SLPC   H6R20857   1.711   4.162   9.874  0.6314 -1.6816 -1.2931
  182SLPC   H6S20858   1.867   4.122   9.939  1.7498  1.7129 -0.7086
  182SLPC   C2720859   1.864   4.297   9.806 -0.2487  0.1490 -0.0458
  182SLPC   H7R20860   1.975   4.295   9.798 -0.2912 -0.9441 -0.5357
  182SLPC   H7S20861   1.838   4.401   9.833  0.0306  0.6597 -1.6223
  182SLPC   C2820862   1.801   4.280   9.670  0.3451  0.3081  0.4957
  182SLPC   H8R20863   1.823   4.365   9.603 -0.4616 -1.7773 -2.6308
  182SLPC   H8S20864   1.691   4.262   9.674  0.4598 -0.1832  2.0923
  182SLPC   C2920865   1.861   4.155   9.614 -0.4956 -0.1678 -0.5788
  182SLPC   H9R20866   1.800   4.066   9.635  0.5015 -0.2859  2.2749
  182SLPC  C21020867   1.968   4.151   9.535  0.7061 -0.0445  0.2589
  182SLPC  H10R20868   2.010   4.055   9.504 -1.2248 -0.8406 -0.0328
  182SLPC  C21120869   2.051   4.268   9.485 -0.0384  0.2748 -0.1658
  182SLPC  H11R20870   2.148   4.253   9.538 -0.3885  0.0096  0.4048
  182SLPC  H11S20871   2.003   4.363   9.516  1.4924  0.9347  0.3116
  182SLPC  C21220872   2.068   4.258   9.334 -0.2333 -0.6776 -0.0015
  182SLPC  H12R20873   2.138   4.177   9.310 -0.4593 -1.3304  1.4181
  182SLPC  C21320874   2.012   4.338   9.236  0.2187 -0.0082 -0.4059
  182SLPC  H13R20875   2.043   4.315   9.133  1.0447 -0.3852 -0.0859
  182SLPC  C21420876   1.915   4.455   9.255 -0.2463 -0.0937  0.3210
  182SLPC  H14R20877   1.871   4.437   9.356 -0.2828 -0.9544  0.1636
  182SLPC  H14S20878   1.837   4.440   9.177 -0.8945 -1.8079  1.2217
  182SLPC  C21520879   1.952   4.602   9.236  0.3198 -0.3190  0.1545
  182SLPC  H15R20880   2.035   4.618   9.308 -0.4023 -1.1130  1.1987
  182SLPC  H15S20881   1.879   4.678   9.271  1.0783  3.1983 -4.8423
  182SLPC  C21620882   1.991   4.644   9.093  0.3440 -0.3321  0.2970
  182SLPC  H16R20883   1.900   4.625   9.032 -0.5838  1.1769  1.1407
  182SLPC  H16S20884   2.079   4.587   9.057  1.9462  1.8968  0.5007
  182SLPC  C21720885   2.011   4.794   9.074  0.1572 -0.6649  0.2188
  182SLPC  H17R20886   2.084   4.820   9.154  1.3539 -2.1444 -0.3330
  182SLPC  H17S20887   1.913   4.837   9.103  0.7453  0.3929  0.6854
  182SLPC  C21820888   2.067   4.849   8.938 -0.0378  0.1758 -0.2974
  182SLPC  H18R20889   2.071   4.960   8.931 -0.1496  0.0942 -4.5417
  182SLPC  H18S20890   2.005   4.812   8.853  3.1637 -0.7297 -2.4164
  182SLPC  H18T20891   2.168   4.809   8.916 -0.3253 -1.6830  1.4526
  182SLPC   C3320892   2.075   3.854  10.010 -0.0577  0.4002  0.5176
  182SLPC   H3X20893   2.168   3.798  10.033 -0.7612  0.0707  2.7983
  182SLPC   H3Y20894   2.105   3.961  10.008  3.7430 -0.5073  0.5452
  182SLPC   C3420895   2.032   3.802   9.871 -0.4643 -0.2573 -0.6467
  182SLPC   H4X20896   1.924   3.822   9.858 -0.8267 -1.8707 -0.4114
  182SLPC   H4Y20897   2.038   3.691   9.874 -0.0469 -0.2158  1.1680
  182SLPC   C3520898   2.114   3.868   9.758  0.0649 -0.3232 -0.4710
  182SLPC   H5X20899   2.223   3.861   9.780  0.2846  0.5682 -1.1825
  182SLPC   H5Y20900   2.095   3.977   9.747 -0.5352 -0.4309 -0.5107
  182SLPC   C3620901   2.095   3.809   9.620  0.2103 -0.7534 -0.1502
  182SLPC   H6X20902   2.003   3.860   9.586 -1.1212 -2.4931  0.6911
  182SLPC   H6Y20903   2.065   3.702   9.634 -1.7824 -0.0564  1.3191
  182SLPC   C3720904   2.206   3.836   9.523 -1.2716 -0.1369  0.2339
  182SLPC   H7X20905   2.306   3.815   9.567 -1.3605  2.1902  1.7548
  182SLPC   H7Y20906   2.224   3.944   9.504  2.9668 -0.8986 -1.2894
  182SLPC   C3820907   2.191   3.763   9.393  0.2203 -0.5358  0.6026
  182SLPC   H8X20908   2.098   3.793   9.340 -0.3357 -3.4334 -0.2250
  182SLPC   H8Y20909   2.171   3.658   9.423 -0.1848 -0.7020 -0.2184
  182SLPC   C3920910   2.315   3.778   9.304  0.0862  0.4150 -0.4502
  182SLPC   H9X20911   2.301   3.699   9.227 -0.5413 -0.2047  0.2727
  182SLPC   H9Y20912   2.402   3.752   9.369  1.2790 -2.0860 -2.8266
  182SLPC  C31020913   2.315   3.917   9.243  0.0838 -0.2729  0.3490
  182SLPC  H10X20914   2.330   3.992   9.323 -0.5661  0.9498 -0.6344
  182SLPC  H10Y20915   2.218   3.935   9.192  1.4791  0.7832 -2.1020
  182SLPC  C31120916   2.410   3.918   9.126 -0.5862  0.1950 -0.0814
  182SLPC  H11X20917   2.400   3.831   9.057 -1.2763  0.3803 -0.2290
  182SLPC  H11Y20918   2.513   3.914   9.167  0.0784  2.1879 -1.4357
  182SLPC  C31220919   2.383   4.038   9.041  0.3289  0.1163 -0.3872
  182SLPC  H12X20920   2.398   4.129   9.103 -2.7923 -0.5494  1.5571
  182SLPC  H12Y20921   2.280   4.047   9.000  0.1357  0.9222  0.2583
  182SLPC  C31320922   2.471   4.050   8.916 -0.2512 -0.6414  0.2765
  182SLPC  H13X20923   2.452   3.970   8.842  4.0037 -1.7265  0.1077
  182SLPC  H13Y20924   2.575   4.028   8.950 -0.4610  0.1104  1.4774
  182SLPC  C31420925   2.462   4.188   8.852  0.0809 -0.6558  0.2247
  182SLPC  H14X20926   2.504   4.266   8.919  0.7093 -0.2257 -0.6523
  182SLPC  H14Y20927   2.358   4.206   8.817 -0.0508  1.3079  1.4858
  182SLPC  C31520928   2.551   4.193   8.725 -0.1554  0.3378 -0.3095
  182SLPC  H15X20929   2.525   4.286   8.671 -1.6806  0.7252  1.0115
  182SLPC  H15Y20930   2.509   4.109   8.665  0.9081 -2.0950  2.1393
  182SLPC  C31620931   2.705   4.178   8.748 -0.1228 -1.0084  0.3846
  182SLPC  H16X20932   2.727   4.128   8.845  1.5953  0.6284  0.9101
  182SLPC  H16Y20933   2.738   4.284   8.750 -1.5040 -0.5565 -0.0132
  182SLPC  C31720934   2.781   4.094   8.647  0.3733 -0.5321 -0.6791
  182SLPC  H17X20935   2.805   4.151   8.555  0.6359  1.3960  0.5432
  182SLPC  H17Y20936   2.718   4.010   8.609 -0.5337 -1.0795  1.8370
  182SLPC  C31820937   2.911   4.041   8.700 -0.3480 -0.1767  0.0496
  182SLPC  H18X20938   2.968   3.972   8.634  0.1707 -0.1321  0.4424
  182SLPC  H18Y20939   2.891   3.996   8.800  2.7052 -0.1080  0.7779
  182SLPC  H18Z20940   2.986   4.115   8.733  0.1443 -1.5366  2.1758
  183SLPC     N20941   2.553   5.195  10.965  0.1805 -0.4473 -0.2110
  183SLPC   C1320942   2.421   5.226  11.024 -0.2894  0.3010 -0.2421
  183SLPC  H13A20943   2.362   5.141  10.994 -2.8748  1.4495  1.2236
  183SLPC  H13B20944   2.411   5.229  11.132 -0.6280 -1.9028 -0.1760
  183SLPC  H13C20945   2.381   5.317  10.982 -0.9274 -0.1837 -0.6948
  183SLPC   C1420946   2.577   5.051  10.964 -0.2420 -0.1414 -0.6309
  183SLPC  H14A20947   2.527   5.011  10.877  0.4686 -0.2597 -0.9973
  183SLPC  H14B20948   2.681   5.021  10.961  0.7278  2.7773  0.7856
  183SLPC  H14C20949   2.533   4.988  11.040  0.0304 -1.8702 -1.8380
  183SLPC   C1520950   2.655   5.258  11.050 -0.6078  0.0969 -0.2474
  183SLPC  H15A20951   2.659   5.227  11.153 -3.0599  2.3482  0.6388
  183SLPC  H15B20952   2.749   5.263  10.997 -0.8493 -1.5151 -0.8814
  183SLPC  H15C20953   2.632   5.363  11.064  0.8580  0.3674  0.2706
  183SLPC   C1220954   2.557   5.235  10.818  0.2243  0.6415  0.2894
  183SLPC  H12A20955   2.487   5.176  10.761  1.1205 -0.6378  0.4641
  183SLPC  H12B20956   2.646   5.188  10.777 -1.7839 -1.2307 -2.2761
  183SLPC   C1120957   2.555   5.380  10.769 -0.3021  0.1804 -0.6091
  183SLPC  H11A20958   2.464   5.422  10.817 -0.2744 -0.7906  0.3299
  183SLPC  H11B20959   2.543   5.398  10.660  0.8383 -1.6059 -1.0912
  183SLPC     P20960   2.806   5.439  10.744  0.1396  0.2590 -0.2605
  183SLPC   O1320961   2.862   5.574  10.734 -0.1673  0.2466  0.0050
  183SLPC   O1420962   2.885   5.333  10.813 -0.3048 -0.0018 -0.0152
  183SLPC   O1220963   2.670   5.451  10.819  0.1718 -0.0890  0.6832
  183SLPC   O1120964   2.770   5.386  10.596 -0.1014 -0.3487  0.0796
  183SLPC    C120965   2.737   5.493  10.497 -0.2388  0.6927 -0.7074
  183SLPC    HA20966   2.645   5.545  10.531  1.5640  1.6102  3.4408
  183SLPC    HB20967   2.810   5.576  10.487  0.2030  0.6572  1.6588
  183SLPC    C220968   2.738   5.425  10.351 -0.9710  0.0891  0.3611
  183SLPC    HS20969   2.700   5.490  10.270 -0.3539 -0.8338 -0.6846
  183SLPC   O2120970   2.663   5.303  10.352  0.7294  0.4075  0.2223
  183SLPC   C2120971   2.533   5.328  10.355 -0.4651  0.1410  0.1241
  183SLPC   O2220972   2.478   5.434  10.335  0.1814  0.1142  0.0438
  183SLPC   C2220973   2.468   5.196  10.370 -0.1519  0.5495 -0.3075
  183SLPC   H2R20974   2.537   5.112  10.347 -0.4712  0.2909 -0.3260
  183SLPC   H2S20975   2.428   5.183  10.473 -2.4334  2.6349 -0.8167
  183SLPC    C320976   2.878   5.385  10.306  0.1860  0.4775  0.0203
  183SLPC    HX20977   2.930   5.319  10.379  1.2080  0.6857 -0.5032
  183SLPC    HY20978   2.937   5.479  10.300 -2.0902  1.9110 -1.3180
  183SLPC   O3120979   2.876   5.320  10.175  0.1418 -0.1278 -0.4702
  183SLPC   C3120980   2.861   5.185  10.171  0.1705  0.6393 -0.0532
  183SLPC   O3220981   2.868   5.110  10.270 -0.1870  0.6703 -0.5260
  183SLPC   C3220982   2.825   5.147  10.025  0.0873 -1.0556 -0.0998
  183SLPC   H2X20983   2.747   5.223  10.002  1.1196  0.8696  2.3600
  183SLPC   H2Y20984   2.782   5.045  10.027 -4.5553  0.5003 -3.4314
  183SLPC   C2320985   2.348   5.179  10.283 -0.6504 -0.2566 -0.4361
  183SLPC   H3R20986   2.270   5.254  10.306 -1.3433 -1.0568 -0.1136
  183SLPC   H3S20987   2.302   5.079  10.302 -2.5333  1.1216  3.4694
  183SLPC   C2420988   2.378   5.177  10.130 -0.6670 -0.8071  0.0524
  183SLPC   H4R20989   2.410   5.277  10.095 -1.3747 -0.3165  0.7601
  183SLPC   H4S20990   2.273   5.161  10.097 -0.4551 -0.1731 -0.9717
  183SLPC   C2520991   2.459   5.059  10.092 -0.1140 -0.0500 -0.3053
  183SLPC   H5R20992   2.394   4.972  10.116 -0.9888 -0.2768 -3.0834
  183SLPC   H5S20993   2.556   5.058  10.145 -0.4331  0.9996  0.3360
  183SLPC   C2620994   2.468   5.032   9.937 -0.3821  0.8323  0.4183
  183SLPC   H6R20995   2.542   5.103   9.895  1.0595 -0.7822  0.1077
  183SLPC   H6S20996   2.366   5.041   9.894  0.5643  1.0143 -1.9027
  183SLPC   C2720997   2.528   4.892   9.916 -0.6578  0.6109  0.3438
  183SLPC   H7R20998   2.468   4.810   9.960 -0.7246 -0.7767 -2.1439
  183SLPC   H7S20999   2.633   4.884   9.953  0.0633 -0.2407 -1.7148
  183SLPC   C2821000   2.547   4.851   9.763 -0.0837  0.4320 -0.1315
  183SLPC   H8R21001   2.617   4.924   9.715 -0.8748 -0.5185 -2.9136
  183SLPC   H8S21002   2.453   4.882   9.714  0.9104  1.3252 -1.5698
  183SLPC   C2921003   2.568   4.707   9.725  0.4708 -0.1927  0.1713
  183SLPC   H9R21004   2.520   4.636   9.794  1.7877 -0.4029  0.8854
  183SLPC  C21021005   2.646   4.661   9.618  0.4266 -0.5051  0.3617
  183SLPC  H10R21006   2.665   4.555   9.594  1.0522  0.3143 -3.3809
  183SLPC  C21121007   2.728   4.746   9.523  0.9869  0.4542  0.2509
  183SLPC  H11R21008   2.734   4.852   9.556  0.9317  0.4070  0.4184
  183SLPC  H11S21009   2.672   4.751   9.427  3.0598 -0.0940 -1.0449
  183SLPC  C21221010   2.856   4.677   9.492 -0.3789  0.7846 -0.0688
  183SLPC  H12R21011   2.861   4.618   9.399 -0.1877 -3.2509  2.2798
  183SLPC  C21321012   2.971   4.691   9.556  0.0292  0.1842 -0.8478
  183SLPC  H13R21013   3.059   4.628   9.535  0.8156  0.3508  1.6582
  183SLPC  C21421014   2.980   4.769   9.689 -0.0521  0.3099  0.3451
  183SLPC  H14R21015   2.903   4.848   9.693  1.2833  1.6298  0.9157
  183SLPC  H14S21016   3.079   4.817   9.702 -1.5376  3.3945  0.9983
  183SLPC  C21521017   2.972   4.665   9.805 -0.1946  0.0800  0.6093
  183SLPC  H15R21018   3.063   4.600   9.803 -0.2595 -0.0418  1.3238
  183SLPC  H15S21019   2.887   4.601   9.772  0.4512 -0.8324  0.6639
  183SLPC  C21621020   2.944   4.713   9.942  0.6083  0.7809 -0.4670
  183SLPC  H16R21021   2.927   4.624  10.007 -0.2558  0.6977 -0.8006
  183SLPC  H16S21022   2.850   4.770   9.927  0.6345  0.6860 -1.0157
  183SLPC  C21721023   3.054   4.795  10.008  0.4034  0.7339 -0.0458
  183SLPC  H17R21024   3.011   4.842  10.099 -0.4934 -0.8857  0.4128
  183SLPC  H17S21025   3.101   4.877   9.950 -0.3399  2.2300  1.3791
  183SLPC  C21821026   3.165   4.702  10.061 -0.1854 -0.0020 -0.4682
  183SLPC  H18R21027   3.121   4.611  10.106  0.4855  0.5002  1.2608
  183SLPC  H18S21028   3.223   4.755  10.140 -1.0517 -1.0534  0.9149
  183SLPC  H18T21029   3.235   4.668   9.982  1.4492 -0.7115  1.2090
  183SLPC   C3321030   2.946   5.172   9.924  0.3256  0.0444  0.2028
  183SLPC   H3X21031   3.013   5.083   9.927  1.0158  0.5927  1.6406
  183SLPC   H3Y21032   3.001   5.265   9.949 -1.1838  1.0670 -0.2035
  183SLPC   C3421033   2.889   5.184   9.782 -0.4171 -0.1941  0.1058
  183SLPC   H4X21034   2.819   5.271   9.780  0.6090  0.6374 -0.9231
  183SLPC   H4Y21035   2.844   5.087   9.754 -0.6186  0.4949 -2.1314
  183SLPC   C3521036   3.014   5.201   9.680  0.2827  0.2193  0.1093
  183SLPC   H5X21037   3.089   5.123   9.706  3.4558  2.2528 -2.2402
  183SLPC   H5Y21038   3.069   5.294   9.706 -0.7941  0.1789  3.0430
  183SLPC   C3621039   2.983   5.207   9.531  0.2379 -0.2574  0.6403
  183SLPC   H6X21040   3.076   5.230   9.476  0.8473  1.5157  2.2983
  183SLPC   H6Y21041   2.911   5.291   9.517 -0.7731 -0.7717  2.3401
  183SLPC   C3721042   2.930   5.076   9.467  0.5033 -0.0886 -0.4970
  183SLPC   H7X21043   2.842   5.044   9.526  0.5564 -0.2031 -0.4802
  183SLPC   H7Y21044   3.011   5.000   9.457  0.3140 -0.2936 -0.4667
  183SLPC   C3821045   2.895   5.085   9.314 -0.6769 -0.3281  0.4721
  183SLPC   H8X21046   2.867   4.984   9.276 -1.1715 -0.0245  0.0024
  183SLPC   H8Y21047   2.983   5.108   9.251 -1.6020 -1.3123 -1.2407
  183SLPC   C3921048   2.778   5.180   9.290 -0.4522  0.0237  0.1350
  183SLPC   H9X21049   2.806   5.283   9.323  0.7725  0.3434 -1.7412
  183SLPC   H9Y21050   2.693   5.156   9.357 -1.5425  2.1559 -0.3952
  183SLPC  C31021051   2.732   5.171   9.143  0.8230  0.2559 -0.5379
  183SLPC  H10X21052   2.644   5.236   9.125  0.1476 -0.7824 -1.0731
  183SLPC  H10Y21053   2.709   5.063   9.137  0.7779  0.2697 -0.6027
  183SLPC  C31121054   2.831   5.213   9.032  0.0638 -0.6425 -0.4701
  183SLPC  H11X21055   2.920   5.147   9.030  1.2963  0.9486 -2.4623
  183SLPC  H11Y21056   2.873   5.310   9.067 -0.5213 -0.0417 -1.3748
  183SLPC  C31221057   2.773   5.223   8.893  0.8957 -0.0648  0.1710
  183SLPC  H12X21058   2.687   5.293   8.901 -0.3737 -1.3215 -1.5792
  183SLPC  H12Y21059   2.736   5.125   8.856  1.8130 -0.0194 -0.9305
  183SLPC  C31321060   2.875   5.276   8.797  0.3360 -0.3816 -0.3108
  183SLPC  H13X21061   2.973   5.226   8.816  0.8656  1.2700  1.6669
  183SLPC  H13Y21062   2.895   5.382   8.820  2.7806 -0.8190 -0.0942
  183SLPC  C31421063   2.832   5.262   8.651  0.1463  0.0630  0.0197
  183SLPC  H14X21064   2.729   5.302   8.639 -0.3878 -1.7036 -2.1625
  183SLPC  H14Y21065   2.828   5.155   8.620 -0.1070  0.9524 -3.4816
  183SLPC  C31521066   2.935   5.319   8.551  0.0663  0.3786  0.3276
  183SLPC  H15X21067   3.028   5.259   8.540 -0.5532 -0.4438 -0.6403
  183SLPC  H15Y21068   2.967   5.412   8.602  0.9489  0.8856 -1.0833
  183SLPC  C31621069   2.877   5.361   8.410 -0.4798  0.8065 -0.5641
  183SLPC  H16X21070   2.782   5.415   8.433 -0.3202  1.0585 -0.4895
  183SLPC  H16Y21071   2.843   5.265   8.366 -2.2876 -0.8292  3.7682
  183SLPC  C31721072   2.961   5.448   8.312  0.8986 -0.2066 -0.6066
  183SLPC  H17X21073   3.063   5.404   8.301  1.2866 -0.5436  3.0934
  183SLPC  H17Y21074   2.988   5.544   8.362 -0.3044 -0.9548  1.6019
  183SLPC  C31821075   2.888   5.481   8.178  0.7803 -0.6002  0.5255
  183SLPC  H18X21076   2.784   5.510   8.201  1.3593  0.4527  1.9401
  183SLPC  H18Y21077   2.877   5.397   8.106 -0.3194  1.5131 -1.9346
  183SLPC  H18Z21078   2.926   5.566   8.117 -0.1268 -0.5256  0.0450
  184SLPC     N21079   5.166   4.105  11.083  0.0308  0.6717  0.2865
  184SLPC   C1321080   5.224   4.230  11.034  0.5503 -0.4231  0.3492
  184SLPC  H13A21081   5.330   4.225  11.055  0.6690 -0.3090 -0.2022
  184SLPC  H13B21082   5.221   4.240  10.926  0.1455  1.4601  0.4998
  184SLPC  H13C21083   5.178   4.321  11.070  0.8475  0.2841 -1.0069
  184SLPC   C1421084   5.020   4.114  11.060  1.0021 -0.5343 -0.2141
  184SLPC  H14A21085   4.962   4.022  11.062 -0.8172  0.5557 -0.5950
  184SLPC  H14B21086   4.973   4.176  11.135 -1.2474 -0.7052 -1.3915
  184SLPC  H14C21087   4.988   4.156  10.967 -0.4146  2.1201  1.3654
  184SLPC   C1521088   5.190   4.098  11.222  0.3269  1.0038 -0.7790
  184SLPC  H15A21089   5.295   4.100  11.246 -0.0439  0.5491  1.0673
  184SLPC  H15B21090   5.143   4.176  11.280  1.4765  0.7435  0.5847
  184SLPC  H15C21091   5.157   4.008  11.274  2.8270  0.5216  0.1094
  184SLPC   C1221092   5.228   3.986  10.993  0.2285  0.3253 -0.3595
  184SLPC  H12A21093   5.198   3.894  11.040 -0.1855  0.9579  0.6640
  184SLPC  H12B21094   5.336   3.986  10.999  0.1726 -0.8339  1.0687
  184SLPC   C1121095   5.167   3.977  10.850  0.2202  0.7796 -0.8023
  184SLPC  H11A21096   5.056   3.968  10.854  0.2935 -0.7660 -1.4847
  184SLPC  H11B21097   5.198   3.885  10.795  0.0588 -0.2096  0.6854
  184SLPC     P21098   5.335   4.090  10.693 -0.3393  0.0476  0.1749
  184SLPC   O1321099   5.350   4.225  10.626 -0.1550  0.3230  0.0748
  184SLPC   O1421100   5.445   4.043  10.774  0.2229 -0.4316  0.0062
  184SLPC   O1221101   5.211   4.095  10.784  0.0086  0.0335  0.2248
  184SLPC   O1121102   5.312   3.977  10.581  0.2256 -0.5127 -0.2008
  184SLPC    C121103   5.192   3.964  10.508  0.0990 -1.3951 -1.4450
  184SLPC    HA21104   5.112   3.930  10.577  0.7788 -0.0113  0.0801
  184SLPC    HB21105   5.169   4.060  10.455 -0.2042 -1.1259 -0.8336
  184SLPC    C221106   5.205   3.859  10.401  0.4862 -0.4584  0.0099
  184SLPC    HS21107   5.261   3.775  10.447  1.4319 -1.4885 -2.8439
  184SLPC   O2121108   5.281   3.907  10.294 -0.3371  0.3938 -0.2787
  184SLPC   C2121109   5.327   3.822  10.208 -0.0163  0.1399  0.5035
  184SLPC   O2221110   5.316   3.703  10.205 -0.1205 -0.4654 -0.0035
  184SLPC   C2221111   5.434   3.889  10.116  0.3649  0.2058  0.0116
  184SLPC   H2R21112   5.416   3.999  10.117  0.3450  0.2004  0.5090
  184SLPC   H2S21113   5.525   3.856  10.170 -0.0737  1.3068  1.4978
  184SLPC    C321114   5.065   3.815  10.345  0.3522  0.1415 -0.2601
  184SLPC    HX21115   5.017   3.764  10.431  2.3393 -0.4626  0.5606
  184SLPC    HY21116   5.068   3.729  10.275 -0.4100 -1.6591  1.7985
  184SLPC   O3121117   4.993   3.921  10.275 -0.0401  0.0208  0.2259
  184SLPC   C3121118   4.902   3.986  10.350  0.2039  0.0204 -0.2555
  184SLPC   O3221119   4.867   3.947  10.462 -0.3440  0.2197 -0.2694
  184SLPC   C3221120   4.821   4.097  10.269  0.1585  0.7812  0.1556
  184SLPC   H2X21121   4.853   4.194  10.311  0.2445  1.2712 -0.9931
  184SLPC   H2Y21122   4.714   4.081  10.293  0.1744 -1.3877 -0.9286
  184SLPC   C2321123   5.424   3.833   9.970  0.3218 -0.1170  0.3035
  184SLPC   H3R21124   5.432   3.725   9.992  1.4840 -0.3094 -0.9351
  184SLPC   H3S21125   5.518   3.866   9.920 -0.4498  1.8300  0.0288
  184SLPC   C2421126   5.307   3.878   9.885  0.1723  0.2180  0.8777
  184SLPC   H4R21127   5.309   3.987   9.863 -0.6373  0.5965  2.5470
  184SLPC   H4S21128   5.212   3.858   9.938 -0.9310  1.6215 -0.4628
  184SLPC   C2521129   5.308   3.811   9.748 -0.4420  0.6653 -0.1989
  184SLPC   H5R21130   5.295   3.703   9.768  1.0415  0.5527  0.2525
  184SLPC   H5S21131   5.409   3.827   9.705  0.3639  0.8830  1.7029
  184SLPC   C2621132   5.198   3.865   9.640 -0.5555 -0.3032 -0.2396
  184SLPC   H6R21133   5.246   3.960   9.606  0.4498  0.0208  1.8583
  184SLPC   H6S21134   5.105   3.882   9.698 -0.8456  0.8874 -1.0250
  184SLPC   C2721135   5.180   3.766   9.529  0.1438 -0.7612 -0.9100
  184SLPC   H7R21136   5.119   3.684   9.573  1.3320 -1.1233  0.1033
  184SLPC   H7S21137   5.279   3.726   9.501 -0.1252 -1.5097 -0.8102
  184SLPC   C2821138   5.101   3.837   9.414 -1.3593  0.2422  0.1048
  184SLPC   H8R21139   5.013   3.899   9.441 -0.8991  1.6089 -1.4014
  184SLPC   H8S21140   5.066   3.751   9.354 -0.6165 -0.0275  0.0434
  184SLPC   C2921141   5.199   3.914   9.324  0.2261 -0.6355 -1.1363
  184SLPC   H9R21142   5.243   4.002   9.373  1.2480 -1.2125 -0.9961
  184SLPC  C21021143   5.220   3.901   9.191 -0.6528 -0.0547 -0.1733
  184SLPC  H10R21144   5.294   3.968   9.144  0.2527  1.2835  2.8370
  184SLPC  C21121145   5.159   3.802   9.098 -0.3941 -0.0916  0.4852
  184SLPC  H11R21146   5.087   3.867   9.045  2.1570  1.1118 -1.7247
  184SLPC  H11S21147   5.113   3.713   9.147  0.3892 -1.3267 -0.9148
  184SLPC  C21221148   5.254   3.769   8.980  0.2917  0.2996  0.2678
  184SLPC  H12R21149   5.348   3.827   8.985 -0.5014  1.5236  1.9362
  184SLPC  C21321150   5.235   3.677   8.881 -0.1323 -0.3034 -0.4896
  184SLPC  H13R21151   5.314   3.654   8.808 -0.6390 -3.2798 -0.2149
  184SLPC  C21421152   5.113   3.586   8.866 -0.5032  0.4869 -0.4789
  184SLPC  H14R21153   5.026   3.653   8.884 -0.5134  0.7657 -1.5343
  184SLPC  H14S21154   5.121   3.494   8.929  0.8224 -0.4877 -1.9923
  184SLPC  C21521155   5.104   3.527   8.722 -0.1375 -0.7531 -0.0079
  184SLPC  H15R21156   5.201   3.476   8.705 -0.7607 -1.8149 -0.4509
  184SLPC  H15S21157   5.099   3.606   8.644  0.9299 -2.5440 -1.9976
  184SLPC  C21621158   4.990   3.429   8.696 -0.1610  0.4096  0.5086
  184SLPC  H16R21159   4.894   3.477   8.725 -0.4647 -1.7042  3.4044
  184SLPC  H16S21160   5.014   3.339   8.756 -2.4122 -2.1696 -2.1408
  184SLPC  C21721161   4.974   3.383   8.544 -0.6956 -0.3503 -0.2837
  184SLPC  H17R21162   4.968   3.475   8.483 -1.0132  0.4649  0.9416
  184SLPC  H17S21163   4.876   3.330   8.538  0.4153 -2.4094 -1.4527
  184SLPC  C21821164   5.094   3.297   8.498 -0.2135  0.4516  0.8657
  184SLPC  H18R21165   5.069   3.261   8.396 -0.2602  1.5158  0.4970
  184SLPC  H18S21166   5.112   3.213   8.569  1.0399 -0.2079 -0.1892
  184SLPC  H18T21167   5.187   3.357   8.494 -0.5122  0.8761 -1.7930
  184SLPC   C3321168   4.852   4.117  10.118  0.0494 -0.4470 -0.7291
  184SLPC   H3X21169   4.776   4.195  10.097  0.4226  0.1371  0.0115
  184SLPC   H3Y21170   4.817   4.036  10.051 -0.0187 -1.4430  0.4806
  184SLPC   C3421171   4.992   4.170  10.076  0.9624  0.0615 -0.2940
  184SLPC   H4X21172   5.080   4.102  10.073  1.1387  0.3065 -1.0991
  184SLPC   H4Y21173   5.025   4.254  10.140  1.6085  0.7549 -1.4948
  184SLPC   C3521174   4.989   4.236   9.936 -0.1062  1.0810 -0.0664
  184SLPC   H5X21175   5.076   4.302   9.916  0.1713  1.0284  0.9303
  184SLPC   H5Y21176   4.897   4.297   9.924  1.1682  2.9406 -0.9432
  184SLPC   C3621177   5.003   4.135   9.814  0.4235  0.3672 -0.0915
  184SLPC   H6X21178   4.910   4.075   9.817  1.5719 -1.5315 -0.1523
  184SLPC   H6Y21179   5.082   4.058   9.831 -1.9956 -2.0022  1.1855
  184SLPC   C3721180   4.999   4.197   9.679  0.0572  0.1133  0.7005
  184SLPC   H7X21181   5.091   4.169   9.622  0.3411  1.4375  0.4761
  184SLPC   H7Y21182   5.006   4.305   9.702  0.9996  0.2378 -0.1030
  184SLPC   C3821183   4.878   4.183   9.585 -0.2927 -0.1569  0.0628
  184SLPC   H8X21184   4.786   4.213   9.640 -0.1899 -1.5770  1.0641
  184SLPC   H8Y21185   4.864   4.075   9.561 -0.2939 -0.2114  0.3083
  184SLPC   C3921186   4.888   4.264   9.450  0.4182  0.3344 -0.1700
  184SLPC   H9X21187   4.876   4.372   9.472 -1.8285 -0.2068  1.7672
  184SLPC   H9Y21188   4.801   4.228   9.391  1.3329 -0.0092 -1.3265
  184SLPC  C31021189   5.005   4.229   9.358 -0.4552  0.9573 -0.6595
  184SLPC  H10X21190   5.024   4.120   9.367  1.7809  1.2329 -1.4487
  184SLPC  H10Y21191   5.096   4.272   9.405  0.1565 -2.7944  2.0667
  184SLPC  C31121192   4.984   4.278   9.209  0.1559 -0.0652 -0.8377
  184SLPC  H11X21193   4.924   4.370   9.221  0.5180  0.0318  0.3384
  184SLPC  H11Y21194   4.903   4.211   9.173 -0.4694 -2.2244  3.7720
  184SLPC  C31221195   5.103   4.313   9.117 -0.1597 -0.0618  0.0556
  184SLPC  H12X21196   5.140   4.218   9.073 -1.9942 -1.0895  0.6142
  184SLPC  H12Y21197   5.178   4.362   9.182 -2.2285  1.2515  1.5500
  184SLPC  C31321198   5.071   4.398   9.005  0.1220  0.1519  0.1974
  184SLPC  H13X21199   5.145   4.415   8.924 -1.3188 -0.9849 -1.4329
  184SLPC  H13Y21200   5.038   4.498   9.039  0.6717  0.4342 -0.0739
  184SLPC  C31421201   4.960   4.336   8.922 -0.3154 -0.1971  0.6645
  184SLPC  H14X21202   4.920   4.419   8.860 -0.5649 -0.4087  0.5391
  184SLPC  H14Y21203   4.878   4.301   8.989  0.0836  0.4331  1.5072
  184SLPC  C31521204   5.002   4.224   8.827  0.1160  0.7413  0.1481
  184SLPC  H15X21205   5.043   4.138   8.885  0.6181 -0.2808 -1.6319
  184SLPC  H15Y21206   5.084   4.245   8.754  1.0159 -1.8786  0.3013
  184SLPC  C31621207   4.889   4.174   8.739  0.3569 -0.2745  0.5045
  184SLPC  H16X21208   4.801   4.160   8.806 -0.2436  3.3655  0.6656
  184SLPC  H16Y21209   4.912   4.077   8.691 -2.2016 -0.1055 -1.2438
  184SLPC  C31721210   4.838   4.280   8.639 -0.0970  0.2330 -0.4130
  184SLPC  H17X21211   4.805   4.372   8.693 -1.8407 -0.3064 -0.4997
  184SLPC  H17Y21212   4.746   4.246   8.587 -0.2736  1.6812 -1.0875
  184SLPC  C31821213   4.942   4.320   8.537  0.2275  0.3178  0.5996
  184SLPC  H18X21214   4.903   4.403   8.474 -3.3341 -2.0061 -0.5499
  184SLPC  H18Y21215   4.964   4.232   8.472 -0.6352 -1.2477  2.3444
  184SLPC  H18Z21216   5.033   4.351   8.592  0.7670  1.2115 -0.7360
  185SLPC     N21217   3.120   5.203   6.521 -0.0962  0.1680  0.5731
  185SLPC   C1321218   3.044   5.203   6.656  0.3951 -0.2710  0.3610
  185SLPC  H13A21219   2.962   5.133   6.643  0.2425 -0.2380  1.0763
  185SLPC  H13B21220   3.102   5.174   6.743  0.2646  0.4689  0.6964
  185SLPC  H13C21221   2.992   5.294   6.679  0.5675 -0.5770  2.0764
  185SLPC   C1421222   3.032   5.274   6.429 -0.6154  0.5877  0.2192
  185SLPC  H14A21223   2.947   5.214   6.402 -0.7013  1.9130 -2.9718
  185SLPC  H14B21224   3.013   5.376   6.458  0.5913  1.1118 -0.6938
  185SLPC  H14C21225   3.078   5.279   6.331 -1.6492 -1.9505 -0.4664
  185SLPC   C1521226   3.135   5.066   6.461 -0.5393 -0.0574 -0.6195
  185SLPC  H15A21227   3.152   5.000   6.545  1.6480  0.9599 -0.2032
  185SLPC  H15B21228   3.055   5.031   6.397 -0.1512 -2.3535  0.0418
  185SLPC  H15C21229   3.222   5.058   6.398 -0.3359  1.4236 -0.5515
  185SLPC   C1221230   3.256   5.266   6.545  0.2812 -0.6998  0.2889
  185SLPC  H12A21231   3.235   5.366   6.579 -1.7517 -0.3758 -1.6334
  185SLPC  H12B21232   3.312   5.255   6.454 -1.2760  0.4747 -0.8799
  185SLPC   C1121233   3.347   5.200   6.648 -0.8861  0.0201  0.3688
  185SLPC  H11A21234   3.300   5.195   6.749 -1.6896 -0.5407 -0.0178
  185SLPC  H11B21235   3.442   5.255   6.659 -1.0732  0.1401  1.6315
  185SLPC     P21236   3.497   5.030   6.508 -0.2001 -0.4349  0.5901
  185SLPC   O1321237   3.506   4.881   6.499  0.4175  0.2989 -0.2034
  185SLPC   O1421238   3.466   5.100   6.380  0.1582 -0.7839 -0.6056
  185SLPC   O1221239   3.377   5.067   6.609  0.5596  0.4538  0.3750
  185SLPC   O1121240   3.620   5.097   6.571 -0.3076 -0.1365  0.2246
  185SLPC    C121241   3.685   5.023   6.675 -0.4826 -0.0207  0.0144
  185SLPC    HA21242   3.667   4.914   6.686  0.8651 -0.2103  0.4935
  185SLPC    HB21243   3.794   5.041   6.663 -0.6606 -0.7426 -4.6724
  185SLPC    C221244   3.638   5.070   6.822  0.1156  0.0584  0.2374
  185SLPC    HS21245   3.531   5.045   6.838  0.5051 -2.2506 -0.4789
  185SLPC   O2121246   3.657   5.209   6.839 -0.3564 -0.1403 -0.7269
  185SLPC   C2121247   3.580   5.263   6.930  0.6377 -0.4923 -0.1630
  185SLPC   O2221248   3.498   5.207   7.004 -0.8377  0.1980 -0.6039
  185SLPC   C2221249   3.611   5.414   6.932  0.3513 -0.1296 -0.1134
  185SLPC   H2R21250   3.714   5.429   6.892 -0.4140  0.1819 -2.0940
  185SLPC   H2S21251   3.544   5.472   6.865  1.5629  0.0707 -1.2041
  185SLPC    C321252   3.718   4.993   6.942 -0.4996 -0.3059 -0.2347
  185SLPC    HX21253   3.669   5.022   7.038 -0.1983  1.9732 -0.6940
  185SLPC    HY21254   3.808   5.058   6.937 -1.1052  0.4589 -2.8540
  185SLPC   O3121255   3.751   4.857   6.928  0.0002  0.1564  0.3107
  185SLPC   C3121256   3.805   4.791   7.024  0.1160  0.8111  0.1664
  185SLPC   O3221257   3.849   4.834   7.130  0.0926  0.0890  0.4545
  185SLPC   C3221258   3.801   4.642   6.995  0.0004  0.1013 -0.2895
  185SLPC   H2X21259   3.901   4.614   6.954  0.7867 -1.3326  2.3570
  185SLPC   H2Y21260   3.728   4.619   6.915  2.4428 -1.0064 -2.3476
  185SLPC   C2321261   3.601   5.461   7.085 -0.0534 -0.2842  0.1731
  185SLPC   H3R21262   3.677   5.403   7.142 -0.7329  0.8079  2.3060
  185SLPC   H3S21263   3.504   5.440   7.135 -1.5182  0.3190 -2.2465
  185SLPC   C2421264   3.655   5.608   7.108  0.7070  0.2494  0.3851
  185SLPC   H4R21265   3.595   5.665   7.034 -1.9047 -1.8509  0.7231
  185SLPC   H4S21266   3.762   5.604   7.079 -0.0559 -0.3173 -2.7247
  185SLPC   C2521267   3.641   5.659   7.254  0.1818  0.5758  0.2295
  185SLPC   H5R21268   3.537   5.640   7.290  0.5396 -2.0363  0.0321
  185SLPC   H5S21269   3.664   5.768   7.259  1.3147  0.3640 -0.1738
  185SLPC   C2621270   3.727   5.581   7.359 -0.8218 -0.1075 -0.1668
  185SLPC   H6R21271   3.833   5.599   7.330 -1.2296 -0.2043 -1.8751
  185SLPC   H6S21272   3.708   5.472   7.352 -1.9099 -0.0562  1.5885
  185SLPC   C2721273   3.700   5.620   7.505  0.5358  0.6407 -0.2464
  185SLPC   H7R21274   3.728   5.538   7.574  1.5917  2.0765  1.1200
  185SLPC   H7S21275   3.590   5.635   7.508  0.8213  3.3109  2.7361
  185SLPC   C2821276   3.747   5.762   7.558  0.5760  0.3533  0.7542
  185SLPC   H8R21277   3.708   5.774   7.661  1.4745 -3.5629  1.7238
  185SLPC   H8S21278   3.709   5.842   7.492  0.5220 -2.3224 -2.7155
  185SLPC   C2921279   3.895   5.779   7.567  0.6124 -0.5934 -0.4648
  185SLPC   H9R21280   3.950   5.804   7.475  0.6587 -0.6636 -0.4560
  185SLPC  C21021281   3.970   5.770   7.680  0.2237  0.1961  0.3397
  185SLPC  H10R21282   4.078   5.778   7.667  0.3523  0.3632  1.3911
  185SLPC  C21121283   3.926   5.732   7.816  0.2046 -1.0838 -0.0405
  185SLPC  H11R21284   4.009   5.686   7.874 -0.4817 -1.8239  0.3712
  185SLPC  H11S21285   3.858   5.646   7.807 -1.0512 -0.2159  0.8231
  185SLPC  C21221286   3.864   5.842   7.896 -0.4191  0.1500  0.2064
  185SLPC  H12R21287   3.800   5.918   7.847 -0.3945  0.7513  1.0848
  185SLPC  C21321288   3.874   5.860   8.030  0.5085 -0.4424 -0.3533
  185SLPC  H13R21289   3.808   5.930   8.082  1.9495 -0.0595  1.0380
  185SLPC  C21421290   3.959   5.778   8.117 -0.2423  0.9432  0.1958
  185SLPC  H14R21291   4.068   5.780   8.097 -0.5111 -0.1177 -1.6222
  185SLPC  H14S21292   3.930   5.677   8.080 -0.5325  1.7968 -2.0796
  185SLPC  C21521293   3.937   5.775   8.271 -0.7126 -0.6449 -0.0326
  185SLPC  H15R21294   3.990   5.687   8.313 -1.7080 -1.6259 -0.8148
  185SLPC  H15S21295   3.827   5.766   8.267 -0.7323  0.1388 -2.9529
  185SLPC  C21621296   3.987   5.903   8.343  0.5710  0.3948 -0.7281
  185SLPC  H16R21297   3.922   5.990   8.319 -0.9944 -0.9826 -1.7829
  185SLPC  H16S21298   4.091   5.924   8.311  1.3684 -1.5126  0.4232
  185SLPC  C21721299   4.003   5.880   8.490 -0.1196 -0.3694 -0.3125
  185SLPC  H17R21300   4.070   5.793   8.507 -0.6135 -0.9099 -1.0552
  185SLPC  H17S21301   3.906   5.850   8.535  0.8619  0.4648  2.5297
  185SLPC  C21821302   4.037   6.002   8.575  0.2378  0.1589  0.1541
  185SLPC  H18R21303   4.048   5.975   8.682 -0.5755  0.1852  0.2527
  185SLPC  H18S21304   3.951   6.072   8.573  0.9604  1.2146  2.4409
  185SLPC  H18T21305   4.128   6.056   8.541  0.4750 -0.9222 -0.9970
  185SLPC   C3321306   3.772   4.563   7.125 -0.9290 -0.4369  0.2551
  185SLPC   H3X21307   3.836   4.592   7.212 -0.4424 -0.8648  0.0405
  185SLPC   H3Y21308   3.786   4.456   7.098  0.1049 -0.2275 -0.0703
  185SLPC   C3421309   3.638   4.603   7.180  0.0532  0.9316  0.5032
  185SLPC   H4X21310   3.558   4.589   7.104 -0.9972  4.7378  0.6727
  185SLPC   H4Y21311   3.630   4.712   7.200  0.5325  1.2626 -0.9983
  185SLPC   C3521312   3.586   4.527   7.301  0.3653  0.6336 -0.0905
  185SLPC   H5X21313   3.671   4.507   7.369  0.6130  0.2979 -0.4929
  185SLPC   H5Y21314   3.542   4.432   7.263  0.5613  0.8986 -1.0043
  185SLPC   C3621315   3.466   4.599   7.358  0.9123 -0.2181 -0.3802
  185SLPC   H6X21316   3.381   4.609   7.287 -0.2314  1.3531  1.1344
  185SLPC   H6Y21317   3.499   4.700   7.390 -3.9343  2.0815 -1.6762
  185SLPC   C3721318   3.420   4.529   7.490  0.7611 -0.1051  0.3762
  185SLPC   H7X21319   3.479   4.567   7.576 -1.7086  0.7263  1.7933
  185SLPC   H7Y21320   3.446   4.422   7.470  0.4321 -0.1091 -0.0506
  185SLPC   C3821321   3.269   4.544   7.524  0.2548 -0.1203 -0.2321
  185SLPC   H8X21322   3.252   4.497   7.623  1.3600 -1.7826 -0.7818
  185SLPC   H8Y21323   3.205   4.491   7.450  0.4245 -0.2816 -0.2640
  185SLPC   C3921324   3.227   4.688   7.541 -0.6346  0.3396 -0.5818
  185SLPC   H9X21325   3.117   4.692   7.558 -0.0756  2.1750  3.7142
  185SLPC   H9Y21326   3.261   4.746   7.453  0.2883  1.5679  0.5647
  185SLPC  C31021327   3.295   4.753   7.660 -0.9121  0.3078 -0.3428
  185SLPC  H10X21328   3.320   4.859   7.638  0.9662  0.2340  1.2004
  185SLPC  H10Y21329   3.393   4.704   7.680  0.5244  2.1922 -2.3176
  185SLPC  C31121330   3.199   4.749   7.779 -0.8607 -0.0210  0.0128
  185SLPC  H11X21331   3.186   4.640   7.799  2.8146 -0.5792  0.0931
  185SLPC  H11Y21332   3.102   4.798   7.754 -0.3724  0.8344 -0.2238
  185SLPC  C31221333   3.264   4.811   7.903  0.8062 -0.0996  0.4557
  185SLPC  H12X21334   3.317   4.907   7.881  1.2740 -0.0161  1.8289
  185SLPC  H12Y21335   3.349   4.745   7.932  0.6592 -0.1243  0.8337
  185SLPC  C31321336   3.169   4.802   8.028 -0.2750 -0.5971 -0.8754
  185SLPC  H13X21337   3.163   4.693   8.047  1.0345 -0.5671 -0.2115
  185SLPC  H13Y21338   3.060   4.826   8.020 -0.7197 -0.5331  3.1714
  185SLPC  C31421339   3.216   4.877   8.155  0.6289  0.5483  0.0844
  185SLPC  H14X21340   3.267   4.969   8.117  1.5260 -0.7789 -2.1118
  185SLPC  H14Y21341   3.304   4.821   8.195  0.3919  0.9904  1.2568
  185SLPC  C31521342   3.120   4.895   8.276  0.4117 -0.3392  0.0468
  185SLPC  H15X21343   3.060   4.805   8.300 -1.2711 -0.1025 -2.9468
  185SLPC  H15Y21344   3.058   4.984   8.251 -0.8382 -1.3154 -0.3823
  185SLPC  C31621345   3.194   4.919   8.409  0.2308  0.1762  0.1972
  185SLPC  H16X21346   3.273   4.842   8.402  0.0584  0.1288 -2.4334
  185SLPC  H16Y21347   3.132   4.903   8.500  1.6470 -0.5911  1.0663
  185SLPC  C31721348   3.267   5.057   8.424 -0.2283 -0.0337  0.3982
  185SLPC  H17X21349   3.191   5.137   8.433 -1.7174 -1.2640 -0.6505
  185SLPC  H17Y21350   3.317   5.079   8.327  1.4246  0.7257  1.3762
  185SLPC  C31821351   3.354   5.063   8.549  0.0307  0.2986 -0.4102
  185SLPC  H18X21352   3.287   5.058   8.637 -1.1529 -0.5317 -1.3124
  185SLPC  H18Y21353   3.404   5.162   8.547  0.2699  0.1846 -2.4486
  185SLPC  H18Z21354   3.432   4.984   8.558 -0.6153 -0.1243  2.9739
  186SLPC     N21355   4.952   0.530   6.034  0.1041 -0.0994  0.0782
  186SLPC   C1321356   4.977   0.515   6.181  0.0789  0.0534 -0.0201
  186SLPC  H13A21357   5.076   0.555   6.197  0.1636  0.2889 -1.0309
  186SLPC  H13B21358   4.906   0.581   6.229 -0.1790  1.7243 -2.4610
  186SLPC  H13C21359   4.969   0.409   6.200 -2.8574  0.2403  0.3358
  186SLPC   C1421360   4.831   0.459   6.001  0.7940  0.0381 -0.2419
  186SLPC  H14A21361   4.835   0.357   6.036  1.1154  0.3880  0.7909
  186SLPC  H14B21362   4.751   0.517   6.045  1.0318 -1.0590  1.7582
  186SLPC  H14C21363   4.806   0.441   5.898  0.6558 -1.0471 -0.0289
  186SLPC   C1521364   5.071   0.479   5.969 -0.2814  0.3002 -0.3182
  186SLPC  H15A21365   5.082   0.372   5.971  0.7630  0.3751 -1.1110
  186SLPC  H15B21366   5.060   0.503   5.864 -0.2540  2.3543  0.1082
  186SLPC  H15C21367   5.160   0.536   5.994 -0.3690  0.9726 -1.5020
  186SLPC   C1221368   4.936   0.675   6.005  0.5753  0.7372 -0.4826
  186SLPC  H12A21369   4.849   0.709   6.059 -0.2552 -0.7787 -0.7925
  186SLPC  H12B21370   4.919   0.690   5.899 -2.8993  0.5882 -0.0624
  186SLPC   C1121371   5.054   0.775   6.035 -0.2146  0.2818 -0.4826
  186SLPC  H11A21372   5.014   0.877   6.018 -0.8162  0.2417  0.5722
  186SLPC  H11B21373   5.123   0.748   5.953 -1.4489 -0.8349 -1.2070
  186SLPC     P21374   5.095   0.847   6.287  0.2390 -0.1936  0.1606
  186SLPC   O1321375   5.110   0.988   6.249  0.2553  0.0123 -0.5004
  186SLPC   O1421376   4.972   0.794   6.350  0.2791  0.2017  0.0167
  186SLPC   O1221377   5.126   0.760   6.156  0.2253  0.0830 -0.2088
  186SLPC   O1121378   5.217   0.799   6.378 -0.6780 -0.2795  0.3630
  186SLPC    C121379   5.250   0.663   6.400 -0.0282  1.5231  0.3457
  186SLPC    HA21380   5.160   0.598   6.400  0.8601  0.2615  0.4564
  186SLPC    HB21381   5.322   0.624   6.325 -0.0750 -1.0601  1.5612
  186SLPC    C221382   5.331   0.647   6.532 -0.0540 -0.3613  0.2877
  186SLPC    HS21383   5.396   0.558   6.521 -1.9227 -1.8174  0.4934
  186SLPC   O2121384   5.250   0.625   6.650 -0.0545 -0.0512  0.5779
  186SLPC   C2121385   5.176   0.510   6.647 -0.0092 -0.0956  0.1615
  186SLPC   O2221386   5.176   0.431   6.555 -0.4495  0.2250  0.3471
  186SLPC   C2221387   5.089   0.493   6.765 -0.1045  0.1851 -0.2500
  186SLPC   H2R21388   4.985   0.468   6.735 -0.2563  0.5511 -0.0410
  186SLPC   H2S21389   5.124   0.398   6.811 -1.9300 -1.0279 -1.2373
  186SLPC    C321390   5.424   0.771   6.564  0.5442 -0.4312  0.8384
  186SLPC    HX21391   5.346   0.843   6.600  0.6667  0.0336  0.1901
  186SLPC    HY21392   5.461   0.808   6.466 -0.7945  0.3055  0.5892
  186SLPC   O3121393   5.525   0.754   6.667 -0.0342 -0.1731 -0.2854
  186SLPC   C3121394   5.634   0.700   6.634 -0.7192 -0.3333  0.0608
  186SLPC   O3221395   5.668   0.675   6.518 -0.1311  1.3474  0.2785
  186SLPC   C3221396   5.724   0.680   6.759 -0.2200 -0.1745 -0.4737
  186SLPC   H2X21397   5.755   0.780   6.797  0.5947 -0.0788 -1.3567
  186SLPC   H2Y21398   5.820   0.633   6.731 -0.1690 -0.5392  0.3100
  186SLPC   C2321399   5.118   0.602   6.877  0.7306 -0.2537 -0.5800
  186SLPC   H3R21400   5.071   0.697   6.845  0.2323  0.6287  2.4985
  186SLPC   H3S21401   5.228   0.600   6.889  0.5399 -1.7422  1.3729
  186SLPC   C2421402   5.066   0.548   7.013  0.4681  0.8921  0.1284
  186SLPC   H4R21403   5.122   0.461   7.052  1.1272  1.5133  0.5955
  186SLPC   H4S21404   4.958   0.526   6.999  0.6012  0.7447 -0.7192
  186SLPC   C2521405   5.051   0.653   7.125 -0.3975  0.0421  0.4565
  186SLPC   H5R21406   4.986   0.620   7.208  0.2062  0.2380  1.0172
  186SLPC   H5S21407   4.989   0.732   7.077  0.4394  1.4041  1.5379
  186SLPC   C2621408   5.196   0.705   7.173 -0.5369 -0.1189 -0.3188
  186SLPC   H6R21409   5.179   0.792   7.240  1.1863  0.2782 -0.3554
  186SLPC   H6S21410   5.238   0.731   7.073 -0.2890  0.1152 -0.1532
  186SLPC   C2721411   5.284   0.604   7.247  0.4211 -0.1888  0.5325
  186SLPC   H7R21412   5.381   0.651   7.272  0.6388 -0.8956  1.0662
  186SLPC   H7S21413   5.298   0.523   7.172 -2.4275 -0.2634 -0.0553
  186SLPC   C2821414   5.227   0.549   7.376  0.1180 -0.2583  0.8504
  186SLPC   H8R21415   5.289   0.460   7.398  1.5591 -0.0953 -2.1327
  186SLPC   H8S21416   5.120   0.519   7.366 -0.3380  1.3467  0.6687
  186SLPC   C2921417   5.243   0.649   7.485 -0.5264 -0.1229  0.1524
  186SLPC   H9R21418   5.241   0.756   7.456  0.0055 -0.0660  0.3194
  186SLPC  C21021419   5.273   0.623   7.617  0.8518  0.1216 -0.0373
  186SLPC  H10R21420   5.288   0.718   7.670  0.1288  0.0263  0.3411
  186SLPC  C21121421   5.273   0.497   7.692 -0.5803 -0.2167  0.1242
  186SLPC  H11R21422   5.355   0.502   7.766 -2.4565 -2.3566  2.5330
  186SLPC  H11S21423   5.309   0.409   7.635  1.4195 -0.9960  2.4208
  186SLPC  C21221424   5.142   0.454   7.757  0.1178  0.2373 -0.4916
  186SLPC  H12R21425   5.079   0.392   7.692 -1.2664 -0.2934  1.2618
  186SLPC  C21321426   5.100   0.492   7.880 -0.3702  0.2241 -0.2488
  186SLPC  H13R21427   5.004   0.453   7.916 -1.5325  0.7973 -2.5912
  186SLPC  C21421428   5.178   0.587   7.965  0.2120  0.1570  0.2403
  186SLPC  H14R21429   5.098   0.645   8.017 -0.0792 -0.9377  1.0451
  186SLPC  H14S21430   5.233   0.663   7.905 -0.4915  0.4744 -0.0195
  186SLPC  C21521431   5.278   0.517   8.065  0.2066 -0.0047  0.1006
  186SLPC  H15R21432   5.351   0.454   8.009 -0.7725 -0.4213 -0.7360
  186SLPC  H15S21433   5.217   0.458   8.137 -2.1028  0.7460 -1.1606
  186SLPC  C21621434   5.351   0.626   8.147  0.3519  0.6903  0.0846
  186SLPC  H16R21435   5.275   0.666   8.218 -1.4383  0.6069 -1.6798
  186SLPC  H16S21436   5.389   0.703   8.077 -0.6372 -0.6955 -2.1124
  186SLPC  C21721437   5.463   0.565   8.235 -0.5383  0.1974  0.7639
  186SLPC  H17R21438   5.494   0.646   8.305  1.1024  2.0603 -1.9332
  186SLPC  H17S21439   5.554   0.536   8.178 -1.4643  0.9757 -1.2040
  186SLPC  C21821440   5.423   0.441   8.310  0.1631 -0.6795  0.6062
  186SLPC  H18R21441   5.381   0.362   8.243 -3.7211  1.4789  0.2195
  186SLPC  H18S21442   5.347   0.487   8.376 -0.1989 -1.8398  1.0267
  186SLPC  H18T21443   5.512   0.402   8.364  1.0287 -0.3919 -0.5580
  186SLPC   C3321444   5.659   0.598   6.873  0.1220  0.5032 -0.3508
  186SLPC   H3X21445   5.653   0.488   6.859 -0.9795  0.4624  0.2881
  186SLPC   H3Y21446   5.560   0.637   6.903  0.5866  1.3946  0.0643
  186SLPC   C3421447   5.750   0.615   6.998 -0.0071  0.5541  0.4657
  186SLPC   H4X21448   5.748   0.724   7.021  1.0176  0.9325 -1.0886
  186SLPC   H4Y21449   5.855   0.596   6.969 -0.2672 -1.3167  0.6795
  186SLPC   C3521450   5.701   0.526   7.115 -0.0194 -0.6128  0.9725
  186SLPC   H5X21451   5.708   0.420   7.081 -0.1660 -0.2093 -0.3831
  186SLPC   H5Y21452   5.600   0.558   7.149  0.7674  0.4159  2.4390
  186SLPC   C3621453   5.796   0.536   7.234 -1.0724 -0.7606  0.2023
  186SLPC   H6X21454   5.809   0.641   7.268 -0.3821 -1.5471  2.5464
  186SLPC   H6Y21455   5.902   0.514   7.207 -0.3230  1.1373  1.3554
  186SLPC   C3721456   5.763   0.442   7.353 -0.4014  0.2761 -0.0899
  186SLPC   H7X21457   5.857   0.420   7.408  0.3290  1.9694 -0.5836
  186SLPC   H7Y21458   5.727   0.348   7.305 -0.4681  0.3447 -0.1745
  186SLPC   C3821459   5.656   0.509   7.441 -0.1168  0.3064 -0.0085
  186SLPC   H8X21460   5.577   0.433   7.457 -0.3597 -0.2994 -3.4268
  186SLPC   H8Y21461   5.611   0.594   7.387  0.0474  0.3851 -0.0210
  186SLPC   C3921462   5.713   0.562   7.575  0.1766 -0.6574  0.1091
  186SLPC   H9X21463   5.674   0.665   7.590  1.8667 -0.0849  0.7087
  186SLPC   H9Y21464   5.820   0.580   7.552 -0.4778  1.1788 -1.8284
  186SLPC  C31021465   5.690   0.475   7.698 -0.0276  0.0376  0.2350
  186SLPC  H10X21466   5.722   0.373   7.671  1.2557  0.1002  1.3897
  186SLPC  H10Y21467   5.583   0.471   7.728 -0.2092 -2.2110 -0.5611
  186SLPC  C31121468   5.758   0.518   7.831 -0.3671 -0.0397  0.1888
  186SLPC  H11X21469   5.698   0.607   7.864 -0.0854 -0.2403  1.2907
  186SLPC  H11Y21470   5.863   0.552   7.815  0.9238 -3.1691  1.3499
  186SLPC  C31221471   5.750   0.406   7.946  0.4985 -0.1020  0.0909
  186SLPC  H12X21472   5.806   0.313   7.923  1.0569  0.8666 -3.0124
  186SLPC  H12Y21473   5.644   0.376   7.953  0.5300 -0.3342 -0.3606
  186SLPC  C31321474   5.798   0.445   8.082  0.0586 -0.4529 -0.0961
  186SLPC  H13X21475   5.745   0.538   8.111 -0.7040 -1.0676  0.5205
  186SLPC  H13Y21476   5.907   0.463   8.074 -0.0117 -0.1159 -0.3581
  186SLPC  C31421477   5.778   0.337   8.185 -0.4284  0.7031  0.2307
  186SLPC  H14X21478   5.831   0.246   8.152 -3.0347 -1.1850  0.9607
  186SLPC  H14Y21479   5.673   0.301   8.185 -0.2628  0.2129  0.2766
  186SLPC  C31521480   5.824   0.374   8.321  0.0979 -0.7579 -0.4484
  186SLPC  H15X21481   5.755   0.452   8.359 -1.0191 -3.1669  2.9878
  186SLPC  H15Y21482   5.930   0.402   8.338 -0.9540  4.2192 -0.4503
  186SLPC  C31621483   5.816   0.245   8.412  0.3529 -0.7059  0.2782
  186SLPC  H16X21484   5.888   0.173   8.369  0.4667  0.3933 -1.4713
  186SLPC  H16Y21485   5.714   0.204   8.397 -0.0603  1.0200 -2.3355
  186SLPC  C31721486   5.837   0.262   8.563  0.2819  0.1059 -0.2034
  186SLPC  H17X21487   5.787   0.358   8.589 -0.3913  0.4702 -2.6157
  186SLPC  H17Y21488   5.936   0.285   8.607 -0.6357  2.7646  0.6888
  186SLPC  C31821489   5.745   0.157   8.637 -0.1254 -0.1229  0.5124
  186SLPC  H18X21490   5.686   0.206   8.718 -1.1408  1.5396 -1.1410
  186SLPC  H18Y21491   5.812   0.073   8.665 -0.4135 -0.5014  0.0823
  186SLPC  H18Z21492   5.666   0.107   8.577  0.5174  0.2517 -0.6739
  187SLPC     N21493   5.550   3.634   6.107  0.2534 -0.4708 -0.1436
  187SLPC   C1321494   5.564   3.790   6.107  0.0942 -0.1875 -1.0814
  187SLPC  H13A21495   5.517   3.829   6.196 -1.3164 -1.3688 -1.2690
  187SLPC  H13B21496   5.668   3.821   6.103  0.4355 -1.3593 -1.6863
  187SLPC  H13C21497   5.509   3.834   6.025 -1.8238 -3.1399 -1.5367
  187SLPC   C1421498   5.627   3.588   5.984 -0.2674  0.2962 -0.4504
  187SLPC  H14A21499   5.578   3.644   5.905  0.2308  2.7094  0.8378
  187SLPC  H14B21500   5.730   3.620   5.986 -0.0683 -0.3130 -0.9095
  187SLPC  H14C21501   5.617   3.483   5.960 -1.0162  0.0765  0.7695
  187SLPC   C1521502   5.410   3.587   6.095  0.6842 -0.1100 -0.7061
  187SLPC  H15A21503   5.358   3.611   6.003 -3.4273 -0.0665  1.3792
  187SLPC  H15B21504   5.397   3.480   6.100 -0.9493  0.0269 -1.1764
  187SLPC  H15C21505   5.337   3.626   6.165 -0.7577 -1.9338 -1.1188
  187SLPC   C1221506   5.628   3.578   6.220  0.6679 -0.4314  0.2166
  187SLPC  H12A21507   5.600   3.623   6.314 -1.0867 -0.3580 -0.3144
  187SLPC  H12B21508   5.730   3.610   6.207  0.6027 -0.7438 -1.1729
  187SLPC   C1121509   5.632   3.422   6.240  0.0182 -0.1673 -0.5930
  187SLPC  H11A21510   5.719   3.409   6.307 -0.8218  0.1303  0.5730
  187SLPC  H11B21511   5.651   3.383   6.137 -0.4715  0.0781 -0.7814
  187SLPC     P21512   5.475   3.383   6.441 -0.2664  0.5103  0.2298
  187SLPC   O1321513   5.430   3.524   6.466 -0.0737 -0.2600  0.3904
  187SLPC   O1421514   5.371   3.281   6.457  0.7528 -0.5010 -0.0011
  187SLPC   O1221515   5.517   3.362   6.294 -0.5035  0.0546  0.3679
  187SLPC   O1121516   5.600   3.339   6.533  0.2524  0.3453  0.2720
  187SLPC    C121517   5.651   3.203   6.531 -0.3196 -0.0306  0.9901
  187SLPC    HA21518   5.612   3.154   6.439  0.5032  0.6837  0.2484
  187SLPC    HB21519   5.760   3.204   6.510 -0.5970  0.3070 -0.5346
  187SLPC    C221520   5.610   3.123   6.650 -0.1583 -0.4054  0.5845
  187SLPC    HS21521   5.505   3.089   6.633 -1.1894  2.2619  1.1316
  187SLPC   O2121522   5.637   3.206   6.768 -0.5828  0.3394  0.0738
  187SLPC   C2121523   5.555   3.189   6.868  0.2334  0.3478 -0.6608
  187SLPC   O2221524   5.444   3.132   6.864 -0.1611 -0.1089 -0.1330
  187SLPC   C2221525   5.614   3.249   6.995  0.4721  0.2366 -0.2969
  187SLPC   H2R21526   5.703   3.185   7.011 -0.5505 -0.8988  1.0601
  187SLPC   H2S21527   5.632   3.358   6.981 -1.6370  0.7424  0.6314
  187SLPC    C321528   5.688   2.992   6.649  0.0346  0.0778 -0.1305
  187SLPC    HX21529   5.795   3.019   6.658 -0.1948  0.1999  3.1060
  187SLPC    HY21530   5.685   2.938   6.552  1.2910 -1.3323  0.5685
  187SLPC   O3121531   5.656   2.904   6.763 -0.0581 -0.1374  0.2129
  187SLPC   C3121532   5.542   2.834   6.761 -0.4541 -0.3749  0.1123
  187SLPC   O3221533   5.459   2.840   6.674 -0.0322  0.6516  0.4677
  187SLPC   C3221534   5.528   2.759   6.888 -0.3490  0.0399  1.4937
  187SLPC   H2X21535   5.588   2.669   6.865  2.6517  2.3902 -0.5260
  187SLPC   H2Y21536   5.418   2.744   6.899 -0.8161  2.5644  0.7970
  187SLPC   C2321537   5.516   3.228   7.114 -0.4421  0.2071 -0.3506
  187SLPC   H3R21538   5.520   3.117   7.125  1.2038  0.3643  1.0621
  187SLPC   H3S21539   5.414   3.268   7.097  0.6113  2.4677 -1.7068
  187SLPC   C2421540   5.578   3.308   7.235 -0.5089  0.3370  0.0137
  187SLPC   H4R21541   5.584   3.418   7.221 -0.5498  0.2155 -0.9736
  187SLPC   H4S21542   5.682   3.273   7.254 -0.9454 -1.0854 -0.1075
  187SLPC   C2521543   5.499   3.264   7.357 -0.5475 -0.6268 -0.0121
  187SLPC   H5R21544   5.542   3.166   7.388  3.2314  0.8735  0.0101
  187SLPC   H5S21545   5.392   3.252   7.331 -0.9658  1.9397  0.2644
  187SLPC   C2621546   5.531   3.352   7.484 -0.1340  0.2894  0.9399
  187SLPC   H6R21547   5.510   3.452   7.440  1.0342  0.1233 -0.0470
  187SLPC   H6S21548   5.636   3.342   7.518  0.7390  0.4555 -1.5242
  187SLPC   C2721549   5.444   3.316   7.601  0.3405 -0.2134 -0.2838
  187SLPC   H7R21550   5.467   3.214   7.639 -0.1703 -1.3357 -2.7656
  187SLPC   H7S21551   5.339   3.311   7.566  0.4904 -0.9903 -0.6408
  187SLPC   C2821552   5.454   3.414   7.727  0.7123 -0.1733  0.1983
  187SLPC   H8R21553   5.359   3.391   7.780  0.8841 -0.9294  0.1986
  187SLPC   H8S21554   5.436   3.519   7.695  1.5919  0.5548  1.9574
  187SLPC   C2921555   5.575   3.413   7.816 -0.3300  0.0764 -0.1393
  187SLPC   H9R21556   5.670   3.377   7.773  0.4831  0.5966  1.1468
  187SLPC  C21021557   5.583   3.464   7.940  0.1683  0.0375  0.4522
  187SLPC  H10R21558   5.681   3.443   7.985 -0.0565  1.8564  1.9119
  187SLPC  C21121559   5.477   3.521   8.023  0.2362  0.1306  0.2478
  187SLPC  H11R21560   5.378   3.492   7.983 -0.2237  0.8212  0.8557
  187SLPC  H11S21561   5.485   3.632   8.015 -0.2877  0.1545 -0.0203
  187SLPC  C21221562   5.495   3.476   8.166 -0.1921  0.1840 -1.0481
  187SLPC  H12R21563   5.527   3.371   8.176 -0.2221  0.3889  2.2473
  187SLPC  C21321564   5.476   3.543   8.281  0.7199  0.0077 -0.0777
  187SLPC  H13R21565   5.497   3.488   8.374  0.7555  0.6438  0.2931
  187SLPC  C21421566   5.418   3.684   8.297 -0.0513  0.0180 -0.4779
  187SLPC  H14R21567   5.401   3.732   8.198  2.3245  1.5699 -0.2074
  187SLPC  H14S21568   5.490   3.746   8.353 -0.0041  0.1163 -0.6464
  187SLPC  C21521569   5.286   3.683   8.377 -0.5474  0.1708 -0.4105
  187SLPC  H15R21570   5.298   3.631   8.475 -1.0862 -0.1426 -0.5060
  187SLPC  H15S21571   5.207   3.622   8.328  1.3343 -1.0462 -2.0937
  187SLPC  C21621572   5.234   3.819   8.432  0.1491  0.1114 -0.5182
  187SLPC  H16R21573   5.138   3.789   8.479 -1.5776  2.1324 -2.5207
  187SLPC  H16S21574   5.213   3.887   8.347 -1.7767 -1.3704 -1.2994
  187SLPC  C21721575   5.327   3.869   8.549 -0.3326 -0.5115  0.1683
  187SLPC  H17R21576   5.426   3.892   8.504 -0.4656 -0.3000 -0.0169
  187SLPC  H17S21577   5.347   3.780   8.611  1.7911 -0.2629 -0.0731
  187SLPC  C21821578   5.252   3.978   8.625 -0.5292  0.3024  0.2220
  187SLPC  H18R21579   5.149   3.955   8.661  0.0420 -1.3808  0.8748
  187SLPC  H18S21580   5.241   4.069   8.563  1.2551  0.9729  0.8135
  187SLPC  H18T21581   5.313   4.017   8.709  0.8959  0.2882 -0.7837
  187SLPC   C3321582   5.564   2.830   7.020 -0.0546  0.0369 -0.3326
  187SLPC   H3X21583   5.482   2.902   7.042 -1.3093 -0.6376 -2.4671
  187SLPC   H3Y21584   5.648   2.901   7.005  2.2877 -1.9399  2.3980
  187SLPC   C3421585   5.587   2.731   7.134  0.1084  0.6061  0.0471
  187SLPC   H4X21586   5.670   2.660   7.115  0.4935  1.6222 -2.4407
  187SLPC   H4Y21587   5.502   2.661   7.134  0.3657  0.2448 -2.0187
  187SLPC   C3521588   5.613   2.802   7.273  0.3781 -0.3513  0.6629
  187SLPC   H5X21589   5.528   2.870   7.296  1.1569  1.0804 -0.5714
  187SLPC   H5Y21590   5.706   2.862   7.274  0.8037 -0.9890  1.8978
  187SLPC   C3621591   5.613   2.706   7.399 -0.0753  0.2242  0.1150
  187SLPC   H6X21592   5.695   2.637   7.372 -1.0469 -0.2917 -1.6778
  187SLPC   H6Y21593   5.516   2.653   7.408 -0.1284  0.6592  3.4575
  187SLPC   C3721594   5.637   2.773   7.532  0.4328  0.6769  0.4284
  187SLPC   H7X21595   5.708   2.856   7.511  2.0469 -0.7325  0.0528
  187SLPC   H7Y21596   5.547   2.829   7.564  1.5265  1.3267  2.5213
  187SLPC   C3821597   5.688   2.673   7.634 -0.4775 -0.1671 -0.5665
  187SLPC   H8X21598   5.774   2.620   7.589  0.2151  0.6382 -0.2105
  187SLPC   H8Y21599   5.605   2.602   7.657 -1.3013 -0.1031 -3.0044
  187SLPC   C3921600   5.729   2.749   7.765  0.1576  0.3967  0.1253
  187SLPC   H9X21601   5.797   2.834   7.741  0.9665  0.1385  1.4335
  187SLPC   H9Y21602   5.787   2.669   7.816 -1.9151 -1.1208  0.2246
  187SLPC  C31021603   5.603   2.785   7.852  0.3808 -0.4980  0.5652
  187SLPC  H10X21604   5.563   2.686   7.884  2.2825 -1.0662  1.3632
  187SLPC  H10Y21605   5.518   2.828   7.795  1.0251 -1.7662 -1.4809
  187SLPC  C31121606   5.646   2.858   7.985 -0.3942  0.0962 -0.1564
  187SLPC  H11X21607   5.699   2.955   7.970  0.3019 -0.5958 -2.8187
  187SLPC  H11Y21608   5.729   2.801   8.032 -1.9988 -2.1589  0.1008
  187SLPC  C31221609   5.536   2.879   8.091 -0.4869 -1.1895  0.6872
  187SLPC  H12X21610   5.572   2.910   8.191  0.2695  2.1187 -0.4833
  187SLPC  H12Y21611   5.482   2.783   8.098 -1.6313 -0.6529 -0.3598
  187SLPC  C31321612   5.438   2.992   8.055  0.7772  0.6152 -0.7105
  187SLPC  H13X21613   5.389   2.950   7.964 -0.2673 -1.6472  0.8152
  187SLPC  H13Y21614   5.493   3.085   8.028  0.4727  0.6948 -1.0705
  187SLPC  C31421615   5.334   3.010   8.158  1.0226 -0.1277 -0.6400
  187SLPC  H14X21616   5.246   3.065   8.117  2.1825  3.8239  1.5728
  187SLPC  H14Y21617   5.365   3.077   8.241  0.8934 -2.6196  1.5587
  187SLPC  C31521618   5.270   2.882   8.220 -0.1520 -0.4758 -0.2584
  187SLPC  H15X21619   5.352   2.848   8.288  0.4765  3.6995  1.3462
  187SLPC  H15Y21620   5.237   2.816   8.138 -0.7656 -0.4242 -0.0589
  187SLPC  C31621621   5.143   2.919   8.302 -0.0892 -0.3915  0.3047
  187SLPC  H16X21622   5.061   2.954   8.236 -1.1502 -2.0471  0.6996
  187SLPC  H16Y21623   5.168   3.000   8.374 -2.2004  0.1159  0.5232
  187SLPC  C31721624   5.094   2.798   8.379  0.0764  0.3434 -0.5775
  187SLPC  H17X21625   5.180   2.732   8.402  0.5903  1.4356  0.7511
  187SLPC  H17Y21626   5.029   2.751   8.302 -0.2101 -0.8796  0.3671
  187SLPC  C31821627   5.014   2.835   8.504  0.1530 -0.1657 -0.0374
  187SLPC  H18X21628   5.017   2.944   8.526 -0.5606 -0.4000  1.3698
  187SLPC  H18Y21629   5.044   2.765   8.586  3.1016  0.1704 -0.7373
  187SLPC  H18Z21630   4.905   2.834   8.481 -0.1200  2.7881  0.7454
  188SLPC     N21631   5.949   6.050   6.201  0.2450  0.3378  0.0241
  188SLPC   C1321632   5.921   6.158   6.104  0.0530  0.4707  0.5206
  188SLPC  H13A21633   5.900   6.119   6.005 -1.9282 -1.2403  1.5172
  188SLPC  H13B21634   5.835   6.215   6.137  0.5973  0.9653  1.0888
  188SLPC  H13C21635   6.000   6.231   6.099 -1.2108  1.8068 -2.1669
  188SLPC   C1421636   6.081   5.984   6.173 -0.1289 -0.0019 -0.6571
  188SLPC  H14A21637   6.093   5.969   6.066  2.0404  1.0076 -0.6057
  188SLPC  H14B21638   6.159   6.057   6.187 -0.8420  0.7491 -0.5422
  188SLPC  H14C21639   6.105   5.892   6.224 -2.2458 -1.2157 -1.6601
  188SLPC   C1521640   5.846   5.942   6.175 -0.3186 -0.3966 -0.9210
  188SLPC  H15A21641   5.830   5.923   6.070  0.2561 -1.8492 -0.7677
  188SLPC  H15B21642   5.879   5.850   6.223  2.3428  0.0007 -1.8025
  188SLPC  H15C21643   5.754   5.973   6.223 -0.2432 -1.5992  0.0610
  188SLPC   C1221644   5.937   6.099   6.344 -0.2035 -0.0199 -0.2004
  188SLPC  H12A21645   5.835   6.129   6.356  0.3047  1.6821  0.0621
  188SLPC  H12B21646   5.998   6.185   6.365 -0.7208  0.1572  0.5844
  188SLPC   C1121647   5.959   6.005   6.460 -0.2325 -0.5184  0.8552
  188SLPC  H11A21648   5.953   6.061   6.555  1.6848  0.7107  0.2922
  188SLPC  H11B21649   6.060   5.959   6.455  0.0042  0.1293 -1.1343
  188SLPC     P21650   5.726   5.913   6.507 -0.0845  0.1621  0.0076
  188SLPC   O1321651   5.678   6.031   6.436  0.3588 -0.5271 -0.2506
  188SLPC   O1421652   5.652   5.787   6.487  0.0582 -0.7443  0.3667
  188SLPC   O1221653   5.873   5.892   6.458 -0.3584 -0.2476 -0.0163
  188SLPC   O1121654   5.762   5.935   6.660  0.2453 -0.4348  0.8365
  188SLPC    C121655   5.825   5.840   6.743  0.2507 -0.2554 -0.2790
  188SLPC    HA21656   5.742   5.786   6.793 -0.1854 -0.3304 -1.0717
  188SLPC    HB21657   5.879   5.767   6.680  0.5227  0.0193 -0.3677
  188SLPC    C221658   5.929   5.901   6.838 -0.4040  0.4006 -0.2283
  188SLPC    HS21659   6.016   5.930   6.775 -1.6281  1.9240 -1.2764
  188SLPC   O2121660   5.966   5.802   6.935 -0.5878  0.4537  0.1642
  188SLPC   C2121661   6.098   5.765   6.947  0.0085  0.6964  0.4614
  188SLPC   O2221662   6.186   5.800   6.871 -0.2712  0.2952 -0.1591
  188SLPC   C2221663   6.110   5.666   7.057 -0.6058  0.0261  0.3968
  188SLPC   H2R21664   6.011   5.651   7.106 -1.2872  1.0181 -0.6399
  188SLPC   H2S21665   6.148   5.570   7.015  2.1953  1.6174 -0.9718
  188SLPC    C321666   5.865   6.016   6.909 -0.1352 -0.3551 -0.3265
  188SLPC    HX21667   5.776   5.982   6.966 -0.9143 -1.4483 -2.0942
  188SLPC    HY21668   5.820   6.084   6.833  0.0827 -0.9614 -1.0038
  188SLPC   O3121669   5.947   6.079   7.003 -0.5129 -0.0965 -0.0550
  188SLPC   C3121670   5.998   6.197   6.964 -0.6016  0.2796  0.2486
  188SLPC   O3221671   5.975   6.261   6.867  0.2626 -0.3283  0.2676
  188SLPC   C3221672   6.094   6.231   7.077 -0.0834 -0.0318  0.1856
  188SLPC   H2X21673   6.185   6.285   7.041 -0.7688  1.1278  0.1360
  188SLPC   H2Y21674   6.121   6.134   7.124  0.4519  0.5723  1.1560
  188SLPC   C2321675   6.210   5.710   7.168 -0.3905 -0.7229  0.1764
  188SLPC   H3R21676   6.206   5.818   7.192  1.3308 -0.7708  0.8939
  188SLPC   H3S21677   6.313   5.714   7.127 -1.7049 -0.3530 -3.3822
  188SLPC   C2421678   6.212   5.623   7.292 -0.5858  0.0838  0.4505
  188SLPC   H4R21679   6.211   5.515   7.263 -0.2826  0.5250 -1.3766
  188SLPC   H4S21680   6.109   5.631   7.333 -0.2719 -0.5755  1.3985
  188SLPC   C2521681   6.319   5.642   7.392  0.5037  0.3860  0.8299
  188SLPC   H5R21682   6.321   5.747   7.428 -1.6862  0.0098  2.2086
  188SLPC   H5S21683   6.420   5.626   7.347 -0.6295  1.3788 -2.2836
  188SLPC   C2621684   6.328   5.545   7.506  0.4366  0.4797  0.2509
  188SLPC   H6R21685   6.424   5.552   7.562  1.7404 -0.3771 -1.7716
  188SLPC   H6S21686   6.312   5.445   7.462 -1.0066  1.1440 -0.8361
  188SLPC   C2721687   6.213   5.573   7.600 -0.6847  1.0788  0.0013
  188SLPC   H7R21688   6.114   5.552   7.554  0.7863 -2.3589 -2.0186
  188SLPC   H7S21689   6.216   5.677   7.637  1.5969  1.3830 -0.9192
  188SLPC   C2821690   6.220   5.492   7.737  0.2929 -0.2292 -0.3996
  188SLPC   H8R21691   6.226   5.386   7.707  1.7019  0.2707 -2.0442
  188SLPC   H8S21692   6.121   5.520   7.779  0.1976  0.0429 -0.7976
  188SLPC   C2921693   6.336   5.545   7.819 -0.3482  1.1503 -0.1702
  188SLPC   H9R21694   6.425   5.573   7.761  1.0433  0.4334  1.5001
  188SLPC  C21021695   6.340   5.568   7.952 -0.2210 -0.4410 -0.2031
  188SLPC  H10R21696   6.429   5.607   8.002 -1.0040 -0.7978  1.5387
  188SLPC  C21121697   6.232   5.538   8.054  0.0928  0.6121  0.5599
  188SLPC  H11R21698   6.133   5.536   8.002  0.2472 -0.6504  0.3045
  188SLPC  H11S21699   6.235   5.617   8.132 -0.5009 -0.3645  1.5826
  188SLPC  C21221700   6.247   5.405   8.115  0.3240  0.0635 -0.1840
  188SLPC  H12R21701   6.275   5.316   8.057 -2.1098 -1.2070  0.4286
  188SLPC  C21321702   6.237   5.385   8.249 -0.0007 -0.2977 -0.0001
  188SLPC  H13R21703   6.277   5.288   8.283  1.5736 -0.0446 -0.9939
  188SLPC  C21421704   6.205   5.487   8.360 -0.0420 -0.8945  0.3651
  188SLPC  H14R21705   6.181   5.433   8.454  0.9282  1.7450  2.2437
  188SLPC  H14S21706   6.120   5.554   8.335  1.9216  1.5904 -0.0576
  188SLPC  C21521707   6.334   5.572   8.397  0.6337 -0.0501  0.8231
  188SLPC  H15R21708   6.305   5.660   8.459  0.8461  1.1751 -0.7376
  188SLPC  H15S21709   6.382   5.596   8.300 -3.3878  2.9197 -0.7105
  188SLPC  C21621710   6.418   5.505   8.500 -0.2992 -0.2064  0.5417
  188SLPC  H16R21711   6.428   5.396   8.480 -0.8628 -0.0009 -0.9743
  188SLPC  H16S21712   6.359   5.502   8.595 -0.8405  1.7774  0.3245
  188SLPC  C21721713   6.547   5.580   8.516 -0.5349 -0.5010 -0.1603
  188SLPC  H17R21714   6.586   5.636   8.428 -2.2151 -1.3374 -1.4784
  188SLPC  H17S21715   6.627   5.503   8.526  1.0205  0.9692 -0.7387
  188SLPC  C21821716   6.542   5.674   8.645 -0.8737  0.6830  0.4810
  188SLPC  H18R21717   6.644   5.705   8.675  0.1320 -0.2894 -1.6693
  188SLPC  H18S21718   6.505   5.605   8.723  1.0904 -1.8221 -0.6431
  188SLPC  H18T21719   6.478   5.762   8.622 -1.0908  0.5801  0.6969
  188SLPC   C3321720   6.038   6.320   7.191  0.4284  0.7746 -0.4636
  188SLPC   H3X21721   5.986   6.413   7.159 -1.2775  0.6547  1.7492
  188SLPC   H3Y21722   6.124   6.338   7.259  1.4853 -0.1474 -1.4994
  188SLPC   C3421723   5.923   6.231   7.262 -0.8755  0.0122  0.2177
  188SLPC   H4X21724   5.962   6.129   7.282  0.3361  0.4263  0.0709
  188SLPC   H4Y21725   5.846   6.231   7.182 -0.8543  0.4806  0.1948
  188SLPC   C3521726   5.852   6.304   7.387 -0.1335  0.6105  0.1545
  188SLPC   H5X21727   5.814   6.401   7.348  1.5265  0.5964 -1.6957
  188SLPC   H5Y21728   5.938   6.311   7.457  1.1234 -1.7465 -1.0067
  188SLPC   C3621729   5.753   6.229   7.473 -0.5835  0.2371  0.4586
  188SLPC   H6X21730   5.792   6.126   7.489 -0.5897 -0.1620 -1.8592
  188SLPC   H6Y21731   5.660   6.216   7.414 -0.1568 -0.6389 -0.0474
  188SLPC   C3721732   5.726   6.301   7.608 -0.0992 -0.0595 -0.2298
  188SLPC   H7X21733   5.631   6.254   7.641  0.2792 -0.5246  0.2144
  188SLPC   H7Y21734   5.716   6.409   7.585  1.0263  0.8454  3.0570
  188SLPC   C3821735   5.837   6.284   7.716 -0.2682  0.3092  0.3511
  188SLPC   H8X21736   5.924   6.347   7.687 -0.7849  0.5108 -0.8345
  188SLPC   H8Y21737   5.881   6.183   7.701  2.0735  1.0883  1.5518
  188SLPC   C3921738   5.799   6.305   7.863  0.3064 -0.5310 -0.5247
  188SLPC   H9X21739   5.865   6.243   7.927  0.0494  0.0978  0.3742
  188SLPC   H9Y21740   5.701   6.265   7.897  0.0237 -0.0561 -0.7728
  188SLPC  C31021741   5.809   6.443   7.925 -0.6703  0.3331  0.0586
  188SLPC  H10X21742   5.775   6.515   7.847 -0.6446 -1.0444 -1.2822
  188SLPC  H10Y21743   5.915   6.460   7.955 -0.6434  0.7136 -0.2471
  188SLPC  C31121744   5.716   6.445   8.049 -0.4111  0.0608 -0.4382
  188SLPC  H11X21745   5.752   6.534   8.106  2.2365  0.2893 -2.2749
  188SLPC  H11Y21746   5.718   6.351   8.108 -1.1895 -0.9191 -1.8959
  188SLPC  C31221747   5.573   6.467   8.021  0.4999  0.8041 -0.1615
  188SLPC  H12X21748   5.523   6.384   7.966 -0.6758  0.6952  1.0207
  188SLPC  H12Y21749   5.561   6.552   7.951  0.1071 -1.0286 -2.4638
  188SLPC  C31321750   5.492   6.497   8.146 -0.3712  0.3032  0.6077
  188SLPC  H13X21751   5.538   6.461   8.240  0.7235  1.8008  0.6716
  188SLPC  H13Y21752   5.389   6.454   8.147 -0.5187  0.6376 -0.0634
  188SLPC  C31421753   5.465   6.647   8.169  0.1894 -0.0864  0.2230
  188SLPC  H14X21754   5.358   6.660   8.142  0.2282  0.7201  0.4236
  188SLPC  H14Y21755   5.521   6.716   8.103  3.8060 -0.7014  2.4065
  188SLPC  C31521756   5.474   6.677   8.314 -0.2702 -0.1308 -0.6022
  188SLPC  H15X21757   5.580   6.680   8.349 -0.4946  0.8826  0.0242
  188SLPC  H15Y21758   5.418   6.600   8.372  0.2633  0.0091  0.1096
  188SLPC  C31621759   5.417   6.821   8.345  0.3363  0.3520  0.9373
  188SLPC  H16X21760   5.318   6.833   8.297  2.0146  1.1068 -2.6536
  188SLPC  H16Y21761   5.479   6.898   8.294  0.4596  0.3841  1.1334
  188SLPC  C31721762   5.413   6.863   8.497  0.2886  0.2425  0.8552
  188SLPC  H17X21763   5.407   6.974   8.509 -0.6132  0.4028 -0.7817
  188SLPC  H17Y21764   5.489   6.818   8.565  1.4397  1.5948  0.4982
  188SLPC  C31821765   5.272   6.839   8.550 -0.8797 -0.0647 -0.4300
  188SLPC  H18X21766   5.199   6.888   8.483 -0.0494  1.0138 -0.5880
  188SLPC  H18Y21767   5.263   6.877   8.654  1.4885  0.7111 -0.4423
  188SLPC  H18Z21768   5.251   6.730   8.558  0.9182 -0.3526  1.1908
  189SLPC     N21769   1.191   2.291   6.274  0.3695 -0.2419 -0.1710
  189SLPC   C1321770   1.062   2.316   6.205 -0.4267  0.2063  0.6127
  189SLPC  H13A21771   1.034   2.420   6.211 -1.7203 -0.1633  1.2965
  189SLPC  H13B21772   1.065   2.290   6.100 -0.4113 -0.0456  0.6750
  189SLPC  H13C21773   0.984   2.263   6.256  0.3878 -2.9453 -1.1418
  189SLPC   C1421774   1.313   2.317   6.182 -0.4101 -0.0783 -0.0802
  189SLPC  H14A21775   1.307   2.245   6.102  0.3853 -1.1818  0.8282
  189SLPC  H14B21776   1.298   2.408   6.125 -1.3786 -0.0163  0.2550
  189SLPC  H14C21777   1.410   2.314   6.229 -0.5599  1.8365  0.4306
  189SLPC   C1521778   1.196   2.146   6.306 -0.1716  0.1501  0.0105
  189SLPC  H15A21779   1.292   2.110   6.340  1.5645  1.4189 -3.1016
  189SLPC  H15B21780   1.125   2.139   6.387  0.6718  0.8283  0.8358
  189SLPC  H15C21781   1.157   2.085   6.226 -2.8423 -0.9204  1.9584
  189SLPC   C1221782   1.202   2.372   6.398 -0.3414  0.4866 -0.3300
  189SLPC  H12A21783   1.297   2.358   6.446 -0.9557  0.0680  0.8102
  189SLPC  H12B21784   1.117   2.348   6.461  0.3979 -2.7680 -0.3835
  189SLPC   C1121785   1.186   2.529   6.375 -0.1180  0.5172 -0.5488
  189SLPC  H11A21786   1.272   2.555   6.310  2.1132 -0.4362  1.8480
  189SLPC  H11B21787   1.202   2.576   6.474 -0.7895 -1.3544  0.4926
  189SLPC     P21788   0.935   2.564   6.419 -0.3371  0.0795  0.1925
  189SLPC   O1321789   0.824   2.636   6.350  0.2085  0.5438 -0.1733
  189SLPC   O1421790   0.915   2.426   6.454  0.4847  0.4786 -0.1503
  189SLPC   O1221791   1.059   2.574   6.320 -0.4894  0.2484  0.3265
  189SLPC   O1121792   0.974   2.637   6.551  0.2029  0.3412 -0.2184
  189SLPC    C121793   1.006   2.777   6.550  0.2680  0.6114  0.0329
  189SLPC    HA21794   1.101   2.791   6.495 -0.1290  0.6938 -0.6429
  189SLPC    HB21795   0.927   2.841   6.505  0.9601  0.8972 -0.8115
  189SLPC    C221796   1.022   2.820   6.704  0.5789  0.0775  0.4989
  189SLPC    HS21797   1.046   2.929   6.699  2.2916 -0.2579  0.8015
  189SLPC   O2121798   1.127   2.743   6.767  0.2053  0.1978 -0.3928
  189SLPC   C2121799   1.248   2.781   6.733  0.3122 -0.3797  0.6868
  189SLPC   O2221800   1.272   2.874   6.657 -0.4064 -0.0455  0.3207
  189SLPC   C2221801   1.360   2.687   6.783 -0.1046  0.2605  0.9785
  189SLPC   H2R21802   1.312   2.594   6.820  1.3060 -0.7233  0.4204
  189SLPC   H2S21803   1.415   2.653   6.693 -0.9165 -0.3477  0.7014
  189SLPC    C321804   0.888   2.803   6.778  0.0363 -0.6169  0.2942
  189SLPC    HX21805   0.858   2.696   6.776 -1.5128 -0.2095  0.2303
  189SLPC    HY21806   0.810   2.861   6.724  1.1189  0.7752  0.1984
  189SLPC   O3121807   0.895   2.865   6.912  0.2247  0.4909  0.2024
  189SLPC   C3121808   0.900   2.785   7.022 -0.7942  0.6752  0.4672
  189SLPC   O3221809   0.930   2.667   7.020  0.5422  0.1505  0.5048
  189SLPC   C3221810   0.888   2.865   7.145  0.0533 -0.4062  0.6053
  189SLPC   H2X21811   0.820   2.951   7.127 -0.5153 -0.5579  1.9512
  189SLPC   H2Y21812   0.986   2.914   7.165 -0.6765  0.3029  2.6942
  189SLPC   C2321813   1.456   2.747   6.882 -0.8407 -0.2962 -0.1816
  189SLPC   H3R21814   1.509   2.834   6.839 -3.0505  2.0745  1.6060
  189SLPC   H3S21815   1.536   2.674   6.905 -0.0387  0.3866 -0.7465
  189SLPC   C2421816   1.394   2.792   7.018 -0.2237  0.0994 -1.0083
  189SLPC   H4R21817   1.322   2.874   6.996  0.6815  1.3714  0.5174
  189SLPC   H4S21818   1.474   2.838   7.079 -2.1550  1.8214  0.3487
  189SLPC   C2521819   1.320   2.677   7.085  0.6716  0.1695  0.3349
  189SLPC   H5R21820   1.394   2.594   7.092  0.1700 -0.3867 -0.7137
  189SLPC   H5S21821   1.245   2.628   7.019 -0.6140  0.4654  1.5120
  189SLPC   C2621822   1.272   2.726   7.221 -0.0484 -0.5999  0.5753
  189SLPC   H6R21823   1.190   2.799   7.204 -0.3741 -1.1243 -0.1733
  189SLPC   H6S21824   1.356   2.769   7.279  0.4882  0.1948 -0.7422
  189SLPC   C2721825   1.199   2.620   7.303 -0.4933 -0.1363 -0.3325
  189SLPC   H7R21826   1.264   2.533   7.325 -1.6169 -0.7800  0.5653
  189SLPC   H7S21827   1.109   2.585   7.247 -0.8211 -1.5774  1.0156
  189SLPC   C2821828   1.161   2.684   7.438 -0.5290  1.2028  0.9696
  189SLPC   H8R21829   1.085   2.761   7.413  0.2980  1.7354 -0.0079
  189SLPC   H8S21830   1.256   2.729   7.474 -1.5532  2.5169  2.1294
  189SLPC   C2921831   1.095   2.593   7.535  0.5987 -0.6472  0.6665
  189SLPC   H9R21832   1.036   2.511   7.494 -0.0818 -0.0720  0.4820
  189SLPC  C21021833   1.097   2.606   7.666  0.1906 -0.4726 -0.2075
  189SLPC  H10R21834   1.045   2.532   7.727 -0.9638  2.2864  2.4063
  189SLPC  C21121835   1.181   2.697   7.747 -0.1960 -0.6646 -0.1581
  189SLPC  H11R21836   1.107   2.753   7.808  1.3143  1.8105 -0.4848
  189SLPC  H11S21837   1.234   2.776   7.690  2.0636  1.9057  4.8094
  189SLPC  C21221838   1.293   2.627   7.825 -0.8788  0.4619  0.8410
  189SLPC  H12R21839   1.360   2.559   7.770 -1.6399  1.1702 -1.0312
  189SLPC  C21321840   1.305   2.633   7.958  0.1874  0.2351 -1.1160
  189SLPC  H13R21841   1.381   2.575   8.011  0.2595 -0.6005 -2.1175
  189SLPC  C21421842   1.195   2.688   8.051 -0.4142  0.1189  0.6550
  189SLPC  H14R21843   1.094   2.662   8.012  0.0920 -1.6642  0.4459
  189SLPC  H14S21844   1.219   2.796   8.063 -0.1322  0.4207 -2.0607
  189SLPC  C21521845   1.209   2.635   8.197  0.1910  0.6794  0.0043
  189SLPC  H15R21846   1.153   2.716   8.249 -1.1412 -0.4478  0.3965
  189SLPC  H15S21847   1.314   2.631   8.233 -0.0113 -0.4636  0.5245
  189SLPC  C21621848   1.134   2.506   8.226 -0.8760  0.4966 -0.5523
  189SLPC  H16R21849   1.182   2.430   8.159  0.9115  0.4810  0.6633
  189SLPC  H16S21850   1.031   2.519   8.188 -1.4222 -1.8874 -0.0382
  189SLPC  C21721851   1.139   2.457   8.369 -0.4144  0.2023  0.2221
  189SLPC  H17R21852   1.109   2.351   8.353  1.1928 -0.0617 -1.3988
  189SLPC  H17S21853   1.055   2.507   8.421 -3.1522 -0.2082 -3.3510
  189SLPC  C21821854   1.265   2.449   8.458 -0.9091 -0.0700  0.7374
  189SLPC  H18R21855   1.301   2.551   8.486  1.9220 -0.1381 -2.0419
  189SLPC  H18S21856   1.343   2.399   8.397  1.1886  2.4357  1.1654
  189SLPC  H18T21857   1.253   2.396   8.554  0.4654  0.6012  1.3159
  189SLPC   C3321858   0.856   2.799   7.278 -0.3165  0.2011  0.4210
  189SLPC   H3X21859   0.884   2.877   7.352 -0.3506 -0.1544  0.8111
  189SLPC   H3Y21860   0.925   2.712   7.285  1.2703  1.2354 -1.2897
  189SLPC   C3421861   0.711   2.771   7.301  0.8309 -0.0536  0.5112
  189SLPC   H4X21862   0.656   2.705   7.230 -1.8602 -0.9589  3.1791
  189SLPC   H4Y21863   0.653   2.866   7.304  1.0797  0.0874  1.1198
  189SLPC   C3521864   0.684   2.703   7.436  0.0339  0.3982 -0.2789
  189SLPC   H5X21865   0.683   2.592   7.430  1.8198  0.4463 -2.4528
  189SLPC   H5Y21866   0.577   2.729   7.455 -0.6179 -2.7565  0.9787
  189SLPC   C3621867   0.759   2.751   7.567 -0.4995  0.3404  0.0318
  189SLPC   H6X21868   0.739   2.859   7.584 -0.9179  0.1111  1.0192
  189SLPC   H6Y21869   0.869   2.734   7.556 -0.2974  0.9311  1.0609
  189SLPC   C3721870   0.706   2.680   7.695  0.0535  0.2742  0.7204
  189SLPC   H7X21871   0.734   2.572   7.690  1.2214  0.6236 -0.7678
  189SLPC   H7Y21872   0.595   2.673   7.687  0.2112 -3.8382 -0.6937
  189SLPC   C3821873   0.763   2.742   7.822  0.1616 -0.0274 -0.6450
  189SLPC   H8X21874   0.798   2.847   7.810  0.9456  0.1855  2.6233
  189SLPC   H8Y21875   0.845   2.680   7.864 -0.6150 -1.0463 -0.5916
  189SLPC   C3921876   0.650   2.752   7.925  0.2436 -0.3857 -0.0986
  189SLPC   H9X21877   0.689   2.787   8.022 -1.3215 -0.7188  0.6813
  189SLPC   H9Y21878   0.596   2.658   7.948 -1.2796 -0.0161 -1.8174
  189SLPC  C31021879   0.551   2.859   7.880  0.7673  0.1556  0.0955
  189SLPC  H10X21880   0.524   2.835   7.775  2.5595 -0.9209 -0.1622
  189SLPC  H10Y21881   0.587   2.963   7.863  1.2626 -0.4108 -3.1546
  189SLPC  C31121882   0.416   2.850   7.960  0.6689  0.5442  0.2166
  189SLPC  H11X21883   0.396   2.743   7.982 -1.2749  0.6625 -0.7615
  189SLPC  H11Y21884   0.336   2.881   7.890 -0.1141 -0.5207  0.6134
  189SLPC  C31221885   0.417   2.917   8.099  0.2189 -0.2521  0.5890
  189SLPC  H12X21886   0.411   3.028   8.090  1.4846 -0.2629 -0.5606
  189SLPC  H12Y21887   0.517   2.898   8.142  0.5408 -2.2415 -0.9112
  189SLPC  C31321888   0.307   2.857   8.187 -0.3904 -0.1837 -1.0776
  189SLPC  H13X21889   0.338   2.752   8.203 -0.3952 -0.4940 -2.9019
  189SLPC  H13Y21890   0.213   2.837   8.131 -0.6398 -1.3138 -0.2973
  189SLPC  C31421891   0.268   2.938   8.311 -0.2640  0.0091 -0.0682
  189SLPC  H14X21892   0.212   3.022   8.265  1.7887  0.2632 -2.3067
  189SLPC  H14Y21893   0.369   2.970   8.342  0.2873 -0.7328 -1.0515
  189SLPC  C31521894   0.191   2.867   8.423  0.4303  0.6836  0.6990
  189SLPC  H15X21895   0.184   2.939   8.508 -0.9617 -0.8214  1.9289
  189SLPC  H15Y21896   0.254   2.783   8.459  1.4565  1.9845  2.0742
  189SLPC  C31621897   0.055   2.804   8.394  0.4305 -0.4131 -0.6504
  189SLPC  H16X21898   0.017   2.771   8.493  0.1980  2.2689  0.2340
  189SLPC  H16Y21899   0.070   2.713   8.331 -0.4772 -1.0369  0.0010
  189SLPC  C31721900  -0.042   2.905   8.327  0.4797  0.2811  0.5665
  189SLPC  H17X21901  -0.011   2.926   8.222  0.5751  2.2057  0.9469
  189SLPC  H17Y21902  -0.025   3.008   8.365  1.5248  1.0519 -1.7661
  189SLPC  C31821903  -0.187   2.867   8.347  0.0070  0.1516  0.4072
  189SLPC  H18X21904  -0.218   2.871   8.454  0.1270  2.2803  0.4031
  189SLPC  H18Y21905  -0.213   2.769   8.301 -2.4134  1.3910 -1.0116
  189SLPC  H18Z21906  -0.249   2.937   8.288  1.3490  2.1908  1.2825
  190SLPC     N21907   2.188   2.709   6.077 -0.5779 -0.5596  0.1731
  190SLPC   C1321908   2.037   2.691   6.087  0.0880 -0.4387 -0.8313
  190SLPC  H13A21909   1.989   2.785   6.113 -0.9700 -1.0616 -0.4644
  190SLPC  H13B21910   1.990   2.638   6.005  0.4590 -1.2859 -0.5071
  190SLPC  H13C21911   2.012   2.631   6.173  0.1591  1.4922  0.6019
  190SLPC   C1421912   2.237   2.811   5.979  1.1803 -0.0681  0.3060
  190SLPC  H14A21913   2.189   2.786   5.885 -1.4907 -0.5652  1.6922
  190SLPC  H14B21914   2.183   2.902   6.002  0.5184 -0.0211 -1.2736
  190SLPC  H14C21915   2.345   2.818   5.978  1.3846 -2.1143  1.6819
  190SLPC   C1521916   2.237   2.574   6.033 -0.1743  0.5729  0.0827
  190SLPC  H15A21917   2.184   2.497   6.087  0.8613  0.3233  0.7730
  190SLPC  H15B21918   2.218   2.553   5.929 -2.6644  0.0438  0.5650
  190SLPC  H15C21919   2.342   2.560   6.055  0.1775 -0.2957 -1.9045
  190SLPC   C1221920   2.242   2.738   6.223  0.2454  0.1426 -0.4866
  190SLPC  H12A21921   2.178   2.681   6.288 -1.6586  1.7664 -0.8239
  190SLPC  H12B21922   2.228   2.842   6.248 -0.4592 -0.4749  1.9754
  190SLPC   C1121923   2.398   2.713   6.251  0.6012  0.1084  0.8896
  190SLPC  H11A21924   2.430   2.754   6.349  0.4212  0.8090  0.6626
  190SLPC  H11B21925   2.438   2.777   6.169 -0.7169  0.2314  0.3147
  190SLPC     P21926   2.410   2.455   6.305  0.1951  0.1047  0.2768
  190SLPC   O1321927   2.264   2.461   6.319 -0.3430  0.0892  0.2689
  190SLPC   O1421928   2.464   2.338   6.231 -0.2205  0.5745 -0.3700
  190SLPC   O1221929   2.456   2.579   6.224 -0.4831 -0.3645  0.1565
  190SLPC   O1121930   2.479   2.460   6.448  1.3997 -0.5102  0.1502
  190SLPC    C121931   2.605   2.522   6.461 -0.5551 -0.3974 -0.1015
  190SLPC    HA21932   2.690   2.475   6.407  0.0287  1.8463 -1.2861
  190SLPC    HB21933   2.602   2.629   6.431 -3.5409 -0.5151 -0.5123
  190SLPC    C221934   2.645   2.540   6.609  0.1519 -0.6022  0.2866
  190SLPC    HS21935   2.742   2.595   6.617 -0.4624  0.4188  0.8911
  190SLPC   O2121936   2.654   2.410   6.658 -0.3279 -0.2044 -0.1709
  190SLPC   C2121937   2.743   2.390   6.760 -0.1265  0.1777 -0.2818
  190SLPC   O2221938   2.820   2.473   6.796  0.3192  0.2639  0.3185
  190SLPC   C2221939   2.718   2.260   6.830 -0.0953 -0.6875 -0.1038
  190SLPC   H2R21940   2.660   2.197   6.759  1.6760  0.2470 -2.5035
  190SLPC   H2S21941   2.806   2.209   6.876 -2.0398 -1.3779  3.1824
  190SLPC    C321942   2.537   2.620   6.692  0.4070 -0.6811  0.1815
  190SLPC    HX21943   2.444   2.560   6.689 -0.9509  1.1989  1.6856
  190SLPC    HY21944   2.520   2.718   6.642 -2.9373 -1.1104  0.2832
  190SLPC   O3121945   2.577   2.638   6.834 -0.3988 -0.2442  0.4930
  190SLPC   C3121946   2.665   2.735   6.854 -0.1222  0.0830  0.1268
  190SLPC   O3221947   2.714   2.812   6.777  0.4846  0.2602  0.3027
  190SLPC   C3221948   2.700   2.726   6.999 -0.8965 -0.1011 -0.1002
  190SLPC   H2X21949   2.721   2.620   7.023  1.7635  0.5657  0.9232
  190SLPC   H2Y21950   2.610   2.764   7.051 -0.3789 -0.2351  0.9278
  190SLPC   C2321951   2.632   2.281   6.954  1.2146 -0.4132 -0.7856
  190SLPC   H3R21952   2.564   2.196   6.978 -2.3421  2.3585 -0.2554
  190SLPC   H3S21953   2.568   2.371   6.951 -0.1594 -1.1461  2.3842
  190SLPC   C2421954   2.715   2.287   7.084  0.2991  0.0916  0.4837
  190SLPC   H4R21955   2.804   2.353   7.083  0.3403  0.0850 -1.7196
  190SLPC   H4S21956   2.765   2.189   7.101 -1.9327 -1.2029 -0.0284
  190SLPC   C2521957   2.635   2.325   7.213  0.1720 -0.4786  0.3760
  190SLPC   H5R21958   2.551   2.253   7.230 -0.0111 -0.0331  1.3915
  190SLPC   H5S21959   2.591   2.426   7.199  3.0961  0.7115 -1.1260
  190SLPC   C2621960   2.711   2.322   7.339 -0.2566 -0.4582  0.3010
  190SLPC   H6R21961   2.797   2.393   7.334 -0.3552 -0.0974  2.4691
  190SLPC   H6S21962   2.759   2.222   7.347  2.9830  0.9403  0.1190
  190SLPC   C2721963   2.634   2.338   7.468  0.3855 -0.3145 -0.1776
  190SLPC   H7R21964   2.545   2.273   7.473  0.7810 -0.9661 -1.2643
  190SLPC   H7S21965   2.592   2.441   7.475 -3.1358 -1.7465  2.5225
  190SLPC   C2821966   2.717   2.321   7.594 -0.2513  0.0352  0.0636
  190SLPC   H8R21967   2.799   2.396   7.599 -0.5739  0.3887  0.1163
  190SLPC   H8S21968   2.784   2.232   7.590 -1.0630 -0.5426 -1.3503
  190SLPC   C2921969   2.632   2.329   7.719 -0.0921 -0.3183 -0.2268
  190SLPC   H9R21970   2.529   2.367   7.715 -0.3586 -0.3920  3.1550
  190SLPC  C21021971   2.675   2.298   7.847  0.6337 -0.0756 -0.2663
  190SLPC  H10R21972   2.590   2.297   7.916  0.8624  1.8526  0.0869
  190SLPC  C21121973   2.813   2.231   7.875 -0.0513  0.2704 -0.0556
  190SLPC  H11R21974   2.883   2.306   7.919 -0.8316  1.4850 -0.8344
  190SLPC  H11S21975   2.867   2.209   7.781  2.7401  0.5450  1.3650
  190SLPC  C21221976   2.802   2.099   7.951  0.2829 -0.1386 -0.1567
  190SLPC  H12R21977   2.730   2.029   7.906 -1.4589  1.4923 -0.0323
  190SLPC  C21321978   2.861   2.069   8.070 -0.3605 -0.2358 -0.5403
  190SLPC  H13R21979   2.858   1.964   8.103 -0.0790  0.5691  2.3382
  190SLPC  C21421980   2.961   2.148   8.153  0.0884 -0.2540  0.4410
  190SLPC  H14R21981   2.978   2.249   8.109  1.9137 -0.4577  0.6241
  190SLPC  H14S21982   3.058   2.098   8.132 -1.6112 -2.1670 -4.4582
  190SLPC  C21521983   2.921   2.175   8.292 -0.2406  0.3130 -0.3539
  190SLPC  H15R21984   2.823   2.228   8.283  0.1178  0.8555 -1.1892
  190SLPC  H15S21985   3.001   2.221   8.353 -0.6371 -0.0200  0.4335
  190SLPC  C21621986   2.893   2.042   8.379 -0.1982  0.4886  0.5885
  190SLPC  H16R21987   2.987   1.987   8.398 -0.4484 -0.6590 -1.2576
  190SLPC  H16S21988   2.819   1.983   8.320  1.7213  0.0819 -1.5666
  190SLPC  C21721989   2.833   2.093   8.506  0.1667 -0.3909 -0.0803
  190SLPC  H17R21990   2.744   2.153   8.478 -0.5538 -2.3878 -2.4710
  190SLPC  H17S21991   2.908   2.150   8.566  0.1507 -2.4630  2.1088
  190SLPC  C21821992   2.774   1.989   8.600 -0.2207  0.1394  0.2209
  190SLPC  H18R21993   2.770   2.037   8.700 -0.6402 -2.4920  1.5595
  190SLPC  H18S21994   2.847   1.905   8.597 -1.7678 -1.2883  0.8907
  190SLPC  H18T21995   2.673   1.958   8.564 -0.3516 -0.3194  0.9518
  190SLPC   C3321996   2.814   2.814   7.057 -0.2661  0.6255 -0.2790
  190SLPC   H3X21997   2.801   2.918   7.018  0.2953  0.3113 -1.3438
  190SLPC   H3Y21998   2.913   2.779   7.021 -0.4606  0.4506 -0.6381
  190SLPC   C3421999   2.828   2.816   7.210 -0.2979 -0.0979  0.0536
  190SLPC   H4X22000   2.730   2.852   7.249  0.5091  0.3229  1.7745
  190SLPC   H4Y22001   2.916   2.879   7.232  0.4287 -1.7509  2.2251
  190SLPC   C3522002   2.871   2.691   7.277 -0.6449  0.6138  0.4138
  190SLPC   H5X22003   2.966   2.657   7.229 -1.8122 -1.1350 -0.7666
  190SLPC   H5Y22004   2.798   2.608   7.269 -0.9390  0.8538  0.5658
  190SLPC   C3622005   2.930   2.703   7.429  0.7645  0.6741  0.3576
  190SLPC   H6X22006   2.846   2.713   7.502  1.6873 -0.0540  1.5566
  190SLPC   H6Y22007   2.990   2.796   7.429  1.5560  0.1718  0.7546
  190SLPC   C3722008   3.012   2.576   7.468  0.3806 -0.4519 -0.1105
  190SLPC   H7X22009   3.099   2.584   7.399 -0.7501 -0.0607 -1.5582
  190SLPC   H7Y22010   2.953   2.487   7.435 -0.0283 -0.0128 -0.5952
  190SLPC   C3822011   3.071   2.570   7.605 -0.4178  0.1893 -0.6813
  190SLPC   H8X22012   3.153   2.644   7.616 -0.4743  0.3337 -1.2323
  190SLPC   H8Y22013   3.131   2.476   7.603  0.7979  0.9555 -2.1525
  190SLPC   C3922014   2.980   2.589   7.726  0.4264 -1.0674  0.2899
  190SLPC   H9X22015   2.886   2.530   7.735 -0.3655  0.2975  1.5268
  190SLPC   H9Y22016   2.943   2.693   7.718  0.1659 -0.9200  2.6495
  190SLPC  C31022017   3.042   2.585   7.860  0.1989  0.3558  0.8064
  190SLPC  H10X22018   3.126   2.657   7.851 -0.5423  1.4730  2.3330
  190SLPC  H10Y22019   3.089   2.487   7.882 -0.1038  0.4196  1.7886
  190SLPC  C31122020   2.935   2.639   7.966  0.1371 -0.6778 -0.7154
  190SLPC  H11X22021   2.850   2.569   7.978 -0.0308 -0.3907 -0.1702
  190SLPC  H11Y22022   2.897   2.735   7.925  2.0569  1.0895  1.3347
  190SLPC  C31222023   2.988   2.673   8.103 -0.4526 -0.0949 -0.7598
  190SLPC  H12X22024   2.922   2.717   8.180  0.9661 -0.4859  0.7217
  190SLPC  H12Y22025   3.065   2.753   8.096 -2.7110  2.2681 -0.0523
  190SLPC  C31322026   3.043   2.552   8.172 -0.9131  0.6171  0.9423
  190SLPC  H13X22027   3.130   2.513   8.115 -1.7385 -0.3546  0.2901
  190SLPC  H13Y22028   2.969   2.470   8.183  0.8563 -1.0313  0.9679
  190SLPC  C31422029   3.096   2.588   8.313  0.0779  0.6531  1.0898
  190SLPC  H14X22030   3.012   2.633   8.369 -0.5969  0.5679  0.1771
  190SLPC  H14Y22031   3.172   2.666   8.293  0.6358 -0.4165 -1.4406
  190SLPC  C31522032   3.159   2.461   8.389  0.7382  0.1160  0.3389
  190SLPC  H15X22033   3.209   2.400   8.311  0.4977 -1.5322  1.4154
  190SLPC  H15Y22034   3.075   2.402   8.433  0.5118  0.9096  1.0065
  190SLPC  C31622035   3.265   2.502   8.492 -0.7163 -0.5588  0.0822
  190SLPC  H16X22036   3.211   2.563   8.568  0.4756  0.6478 -0.0078
  190SLPC  H16Y22037   3.332   2.576   8.443 -0.9343 -0.1120  0.4471
  190SLPC  C31722038   3.333   2.381   8.556 -0.5493 -0.3138 -0.5071
  190SLPC  H17X22039   3.417   2.422   8.616 -0.3226 -2.0789  0.4207
  190SLPC  H17Y22040   3.383   2.319   8.479  0.5317 -4.1063  2.9183
  190SLPC  C31822041   3.253   2.304   8.658 -0.0994  0.3875  0.4514
  190SLPC  H18X22042   3.162   2.273   8.602 -0.5047  1.9662  0.1806
  190SLPC  H18Y22043   3.219   2.367   8.743  1.4850  2.1643 -0.1819
  190SLPC  H18Z22044   3.314   2.220   8.699  1.1992  0.5428 -1.0755
  191SLPC     N22045   1.670   3.573   5.926 -0.3560  0.1104 -0.0933
  191SLPC   C1322046   1.605   3.700   5.886  0.0932  0.0851  0.2971
  191SLPC  H13A22047   1.682   3.772   5.860 -0.8482  0.8203 -0.5344
  191SLPC  H13B22048   1.537   3.687   5.803 -1.2199 -2.1211  1.6117
  191SLPC  H13C22049   1.534   3.730   5.961 -1.2285  0.2296 -0.9716
  191SLPC   C1422050   1.752   3.604   6.051 -0.4674  0.3872 -0.1143
  191SLPC  H14A22051   1.693   3.620   6.139  1.8533 -1.3966  1.9028
  191SLPC  H14B22052   1.825   3.530   6.080 -0.5882  0.2650 -0.1243
  191SLPC  H14C22053   1.808   3.696   6.036 -1.9206  1.6625  1.7478
  191SLPC   C1522054   1.763   3.517   5.813  0.1033 -0.0820  0.7826
  191SLPC  H15A22055   1.846   3.586   5.807 -0.1883  0.2405  0.3456
  191SLPC  H15B22056   1.793   3.418   5.844  0.1646  0.2037  1.6421
  191SLPC  H15C22057   1.722   3.500   5.714 -0.4804  0.1232  0.9862
  191SLPC   C1222058   1.567   3.467   5.963 -0.0402  0.1097  0.3759
  191SLPC  H12A22059   1.605   3.369   5.984 -2.6303 -1.0813 -0.0940
  191SLPC  H12B22060   1.507   3.458   5.874 -0.6800 -0.1576  0.8238
  191SLPC   C1122061   1.457   3.495   6.070 -0.8152  0.6341  0.4730
  191SLPC  H11A22062   1.495   3.531   6.169 -1.8689  0.1456  1.0690
  191SLPC  H11B22063   1.416   3.396   6.100 -1.6647  0.8356 -0.0127
  191SLPC     P22064   1.232   3.537   5.943  0.1607  0.5270  0.0283
  191SLPC   O1322065   1.141   3.646   5.907 -0.2073 -0.1393 -0.1530
  191SLPC   O1422066   1.291   3.450   5.835 -0.4888  0.6222  0.3867
  191SLPC   O1222067   1.356   3.590   6.025 -0.9587 -0.1124 -0.1140
  191SLPC   O1122068   1.148   3.449   6.049  0.3610  0.0759  0.0171
  191SLPC    C122069   1.074   3.508   6.153 -0.1120  0.4677  0.0029
  191SLPC    HA22070   1.076   3.619   6.152 -2.2853  0.7109  4.1314
  191SLPC    HB22071   0.967   3.481   6.144 -0.1575 -0.0439  1.6746
  191SLPC    C222072   1.143   3.459   6.285  0.2753 -1.2157  0.0359
  191SLPC    HS22073   1.077   3.489   6.369 -0.4167  1.2836 -1.2892
  191SLPC   O2122074   1.270   3.524   6.299  0.4009 -0.5642  0.0040
  191SLPC   C2122075   1.264   3.659   6.319 -0.4289 -0.1299 -0.5539
  191SLPC   O2222076   1.163   3.727   6.333  0.2872 -0.6131 -0.7711
  191SLPC   C2222077   1.406   3.722   6.337  0.2880 -0.2839 -0.2784
  191SLPC   H2R22078   1.475   3.635   6.343  0.6418 -0.0619 -0.9935
  191SLPC   H2S22079   1.428   3.784   6.247  0.8945 -0.3933 -0.2053
  191SLPC    C322080   1.151   3.307   6.281 -0.2175  0.2102 -0.1217
  191SLPC    HX22081   1.212   3.290   6.190  0.5263  2.6630 -0.1523
  191SLPC    HY22082   1.050   3.261   6.279  0.1534 -0.6484  0.1749
  191SLPC   O3122083   1.226   3.257   6.398 -0.0182 -0.4749 -0.2880
  191SLPC   C3122084   1.155   3.244   6.509 -0.1545  0.1085 -0.0701
  191SLPC   O3222085   1.036   3.252   6.524  0.3832  0.1637  0.6153
  191SLPC   C3222086   1.254   3.204   6.622  0.1111 -0.1188  0.1664
  191SLPC   H2X22087   1.334   3.281   6.620  0.0389 -0.0507 -0.2675
  191SLPC   H2Y22088   1.307   3.109   6.601  2.8622  1.5568 -1.1312
  191SLPC   C2322089   1.423   3.814   6.454 -0.6566 -0.0951 -0.2263
  191SLPC   H3R22090   1.340   3.887   6.462 -1.2497 -0.8662  0.9459
  191SLPC   H3S22091   1.518   3.863   6.425  0.0513 -2.7780 -2.8596
  191SLPC   C2422092   1.419   3.734   6.590  0.1872  0.0556 -0.6281
  191SLPC   H4R22093   1.511   3.756   6.649  0.3324 -0.0986 -0.7961
  191SLPC   H4S22094   1.439   3.628   6.564  0.7904 -0.0223  0.1196
  191SLPC   C2522095   1.291   3.744   6.675 -0.3369 -0.5378  0.9629
  191SLPC   H5R22096   1.309   3.676   6.761  4.3313  1.3477  1.7736
  191SLPC   H5S22097   1.220   3.703   6.599  0.6478 -0.7588  0.1339
  191SLPC   C2622098   1.255   3.881   6.723 -0.3970 -0.1547 -0.4552
  191SLPC   H6R22099   1.153   3.879   6.766 -0.3389  3.1027  0.1216
  191SLPC   H6S22100   1.257   3.956   6.641 -1.6563 -0.0204 -0.3807
  191SLPC   C2722101   1.344   3.920   6.849  0.0421  0.1627  0.2501
  191SLPC   H7R22102   1.431   3.977   6.810 -0.4601 -0.2157 -1.4854
  191SLPC   H7S22103   1.393   3.832   6.897  0.8528  1.1358  1.2626
  191SLPC   C2822104   1.271   4.006   6.964  0.8926 -0.2808  0.1293
  191SLPC   H8R22105   1.331   3.997   7.057 -1.8598  0.6921  2.1297
  191SLPC   H8S22106   1.171   3.962   6.984  1.0097 -1.1177 -1.0237
  191SLPC   C2922107   1.253   4.152   6.917  0.0272  0.4818 -0.1627
  191SLPC   H9R22108   1.311   4.184   6.830 -1.0999  1.1975 -0.6636
  191SLPC  C21022109   1.176   4.246   6.981  0.3153 -0.2568 -0.4247
  191SLPC  H10R22110   1.181   4.352   6.952 -1.8506 -0.0789 -0.2536
  191SLPC  C21122111   1.088   4.212   7.106 -0.0808  0.8761  0.0614
  191SLPC  H11R22112   1.051   4.107   7.104 -0.0180  0.8607 -0.8700
  191SLPC  H11S22113   0.997   4.277   7.098 -1.4202 -0.8956  0.2519
  191SLPC  C21222114   1.162   4.241   7.235  1.0870  0.5704 -0.5036
  191SLPC  H12R22115   1.227   4.330   7.237 -0.0676  1.4279 -0.1336
  191SLPC  C21322116   1.143   4.167   7.350 -0.0010 -0.1367 -0.0270
  191SLPC  H13R22117   1.184   4.205   7.445  0.6465  1.4924 -0.9133
  191SLPC  C21422118   1.047   4.048   7.363 -0.2970  0.2885  0.5710
  191SLPC  H14R22119   1.065   3.971   7.286 -3.1996 -1.4542  1.4457
  191SLPC  H14S22120   0.942   4.077   7.341  0.6211  1.3783 -3.0515
  191SLPC  C21522121   1.083   3.970   7.496  0.5694  0.5054  0.2831
  191SLPC  H15R22122   1.189   3.941   7.480  0.1417 -0.5436 -0.8298
  191SLPC  H15S22123   1.025   3.876   7.481 -1.1889  1.5352  0.3292
  191SLPC  C21622124   1.058   4.048   7.632  0.1939 -0.0457 -0.8610
  191SLPC  H16R22125   0.955   4.089   7.646  0.0179 -0.6567 -0.3610
  191SLPC  H16S22126   1.129   4.133   7.643 -1.0087  0.8328  0.4930
  191SLPC  C21722127   1.092   3.964   7.750  0.6394  0.3633  0.2958
  191SLPC  H17R22128   1.176   3.892   7.735  0.5429  0.4082 -0.4811
  191SLPC  H17S22129   1.001   3.903   7.772  0.9359  0.0234  0.6062
  191SLPC  C21822130   1.125   4.031   7.888  0.1585  0.4123 -0.3084
  191SLPC  H18R22131   1.047   4.104   7.921  0.9764  0.0030  2.8886
  191SLPC  H18S22132   1.223   4.083   7.880  0.6805 -0.7302 -1.6374
  191SLPC  H18T22133   1.138   3.956   7.969  0.1888  0.2086 -0.5022
  191SLPC   C3322134   1.195   3.204   6.767 -0.3279  0.3853  0.7995
  191SLPC   H3X22135   1.141   3.108   6.781  0.5865 -0.2917 -0.2341
  191SLPC   H3Y22136   1.119   3.285   6.779 -0.0786  0.6390  0.6776
  191SLPC   C3422137   1.304   3.230   6.879 -0.2242  0.3261  0.1414
  191SLPC   H4X22138   1.358   3.324   6.856  1.3979  0.0243  2.4343
  191SLPC   H4Y22139   1.386   3.156   6.866  0.0062  0.4269  0.9580
  191SLPC   C3522140   1.252   3.224   7.021  0.5583 -0.2434  0.4735
  191SLPC   H5X22141   1.336   3.238   7.092 -0.0523 -0.4142  1.2411
  191SLPC   H5Y22142   1.202   3.129   7.051 -1.8124  0.7266 -0.1633
  191SLPC   C3622143   1.138   3.325   7.051 -0.2633  0.0065 -0.1816
  191SLPC   H6X22144   1.059   3.337   6.975 -0.2454 -0.8399 -0.3439
  191SLPC   H6Y22145   1.194   3.420   7.037  0.2705 -0.3661 -0.6002
  191SLPC   C3722146   1.066   3.315   7.195  0.4769 -0.0374  0.5094
  191SLPC   H7X22147   0.997   3.401   7.197  0.2100 -0.1968 -0.9880
  191SLPC   H7Y22148   1.135   3.322   7.283 -1.4824 -1.8636  2.3180
  191SLPC   C3822149   0.974   3.196   7.196  0.6687  0.0864 -0.8620
  191SLPC   H8X22150   1.033   3.102   7.197 -1.7245 -1.5071 -0.8888
  191SLPC   H8Y22151   0.914   3.171   7.107 -1.8358 -1.8977  1.2249
  191SLPC   C3922152   0.871   3.193   7.315 -0.1393  0.1195 -0.3043
  191SLPC   H9X22153   0.807   3.102   7.306 -0.2520  0.1306  0.3372
  191SLPC   H9Y22154   0.797   3.276   7.312  0.0610  0.4379  1.8081
  191SLPC  C31022155   0.943   3.185   7.446  0.2432  0.6840  0.5507
  191SLPC  H10X22156   1.025   3.260   7.447 -0.0624  1.0796 -1.0783
  191SLPC  H10Y22157   1.000   3.089   7.450  1.9310  1.6760  1.5995
  191SLPC  C31122158   0.842   3.207   7.561 -0.3670 -0.0821 -0.2291
  191SLPC  H11X22159   0.787   3.111   7.571  1.5710 -1.0835  1.5072
  191SLPC  H11Y22160   0.772   3.292   7.545 -2.3023 -2.0236 -2.9711
  191SLPC  C31222161   0.902   3.213   7.703 -0.8233 -0.2678 -0.0307
  191SLPC  H12X22162   0.968   3.127   7.727 -2.8485 -1.9305 -0.1656
  191SLPC  H12Y22163   0.816   3.214   7.773  1.5681 -0.4030  3.1787
  191SLPC  C31322164   0.963   3.356   7.740  0.0329  0.2882  0.9561
  191SLPC  H13X22165   0.895   3.435   7.702  0.6580 -0.8841 -3.1041
  191SLPC  H13Y22166   1.062   3.365   7.690 -0.6458 -0.5208 -0.6317
  191SLPC  C31422167   0.992   3.385   7.888 -0.2980 -0.6584 -0.5528
  191SLPC  H14X22168   1.024   3.491   7.900 -1.4420 -0.2322 -1.1334
  191SLPC  H14Y22169   1.079   3.328   7.927  0.2799 -2.3551 -3.9613
  191SLPC  C31522170   0.886   3.352   7.989  0.1831  0.0025  0.9735
  191SLPC  H15X22171   0.784   3.354   7.945  0.8795  1.1852 -0.6730
  191SLPC  H15Y22172   0.887   3.430   8.068  0.7749  0.7986  0.2016
  191SLPC  C31622173   0.915   3.225   8.065 -0.3562 -0.3377  0.7493
  191SLPC  H16X22174   0.996   3.246   8.138 -0.5101 -0.1841  0.8766
  191SLPC  H16Y22175   0.951   3.151   7.990  0.5302 -0.5610  1.3736
  191SLPC  C31722176   0.800   3.152   8.128 -0.7559 -1.2850 -0.0001
  191SLPC  H17X22177   0.723   3.116   8.056 -3.2329  1.9736  0.7379
  191SLPC  H17Y22178   0.746   3.219   8.199 -1.6131  0.4994 -2.1835
  191SLPC  C31822179   0.845   3.028   8.202 -0.1236 -0.2052 -1.0054
  191SLPC  H18X22180   0.765   2.977   8.259  1.0353  0.4534  1.3769
  191SLPC  H18Y22181   0.930   3.041   8.273 -2.1646 -0.9573  1.7710
  191SLPC  H18Z22182   0.874   2.957   8.122 -1.5166 -1.7190 -0.2173
  192SLPC     N22183   0.861   4.717   6.404 -0.0473 -0.0457  0.3482
  192SLPC   C1322184   0.946   4.797   6.305  0.6308  0.0463 -0.1617
  192SLPC  H13A22185   1.018   4.728   6.265 -0.5540 -0.1500 -2.0863
  192SLPC  H13B22186   0.885   4.825   6.221  0.3123 -2.7809 -0.9647
  192SLPC  H13C22187   0.988   4.884   6.354 -1.5043  0.5158  0.9882
  192SLPC   C1422188   0.807   4.597   6.335  0.0608 -0.1534  0.1481
  192SLPC  H14A22189   0.755   4.627   6.244 -0.8705 -1.9033  0.0747
  192SLPC  H14B22190   0.878   4.524   6.299 -1.0191 -0.1464 -2.2234
  192SLPC  H14C22191   0.735   4.539   6.390 -0.7185 -0.7394 -1.4086
  192SLPC   C1522192   0.753   4.814   6.448 -0.4435 -0.1669  0.3441
  192SLPC  H15A22193   0.805   4.903   6.479  2.3535 -1.2760 -0.8147
  192SLPC  H15B22194   0.699   4.837   6.357  0.0503  2.8318  0.7041
  192SLPC  H15C22195   0.684   4.774   6.521  0.3715  0.3803  1.4341
  192SLPC   C1222196   0.952   4.681   6.519  0.3862  0.7275  0.0229
  192SLPC  H12A22197   1.028   4.617   6.478 -1.2598 -0.7711 -0.8309
  192SLPC  H12B22198   0.890   4.616   6.580  0.7168 -1.0037 -1.4015
  192SLPC   C1122199   1.020   4.790   6.599 -0.1241  0.7754 -0.3104
  192SLPC  H11A22200   1.059   4.749   6.694  3.8070  0.2021 -1.9972
  192SLPC  H11B22201   0.932   4.854   6.625 -0.4154 -0.2435  1.4166
  192SLPC     P22202   1.277   4.824   6.528  0.4090 -0.2694 -0.3940
  192SLPC   O1322203   1.310   4.713   6.434 -0.1756 -0.2391 -0.4767
  192SLPC   O1422204   1.340   4.957   6.516 -0.2097 -0.1171  0.0286
  192SLPC   O1222205   1.123   4.851   6.518 -0.3045 -0.1176 -0.4874
  192SLPC   O1122206   1.303   4.777   6.671  1.3447  0.0904  0.2751
  192SLPC    C122207   1.356   4.850   6.784 -0.7441  0.6945  0.6569
  192SLPC    HA22208   1.413   4.776   6.845 -2.8099 -1.1337  0.4892
  192SLPC    HB22209   1.427   4.927   6.748 -1.1531  0.9674  0.4328
  192SLPC    C222210   1.253   4.940   6.868 -0.3578 -0.1507 -0.0111
  192SLPC    HS22211   1.313   4.984   6.951 -0.4368  0.1793 -0.1295
  192SLPC   O2122212   1.132   4.864   6.906  0.3332  0.6396 -0.6715
  192SLPC   C2122213   1.146   4.778   7.008  0.6355  0.0639 -0.2282
  192SLPC   O2222214   1.242   4.773   7.080  0.9266 -0.1288 -0.2730
  192SLPC   C2222215   1.011   4.703   7.028 -0.3525  0.2657 -0.3894
  192SLPC   H2R22216   0.935   4.781   7.009  0.2882  1.1766  0.6411
  192SLPC   H2S22217   0.993   4.633   6.944 -0.5597  1.5577 -1.4468
  192SLPC    C322218   1.218   5.061   6.782  0.2034 -0.6072 -0.2956
  192SLPC    HX22219   1.145   5.028   6.705  1.0469 -1.1763 -0.8790
  192SLPC    HY22220   1.311   5.081   6.726  1.8082 -0.8593  2.1201
  192SLPC   O3122221   1.167   5.177   6.856  0.3514 -0.2203  0.0388
  192SLPC   C3122222   1.124   5.274   6.775 -1.2391  0.6225  0.0520
  192SLPC   O3222223   1.153   5.276   6.654  0.2944  0.3647  0.2723
  192SLPC   C3222224   1.044   5.379   6.858 -0.0678  0.5363  0.9420
  192SLPC   H2X22225   0.980   5.415   6.775  0.1192 -3.5525 -1.2262
  192SLPC   H2Y22226   1.099   5.469   6.894 -0.3753  1.2053 -0.2022
  192SLPC   C2322227   0.992   4.635   7.173 -0.6176 -1.0370  0.6620
  192SLPC   H3R22228   1.062   4.548   7.183 -0.1410 -0.7626 -0.1901
  192SLPC   H3S22229   0.892   4.588   7.169 -2.1887  2.1579 -0.2298
  192SLPC   C2422230   1.010   4.734   7.285 -0.0714 -0.1054 -0.3763
  192SLPC   H4R22231   0.931   4.810   7.271 -0.1306 -0.2584 -0.8977
  192SLPC   H4S22232   1.106   4.788   7.294  1.3488 -2.6836  1.3621
  192SLPC   C2522233   0.998   4.654   7.418  0.1506  1.0120 -0.2104
  192SLPC   H5R22234   0.914   4.583   7.409  0.1806  0.9817 -0.2494
  192SLPC   H5S22235   0.983   4.726   7.502  2.7608  0.5424  0.7592
  192SLPC   C2622236   1.116   4.558   7.445  0.5918  0.5588 -0.2933
  192SLPC   H6R22237   1.213   4.611   7.441  0.7779  0.2062 -0.5579
  192SLPC   H6S22238   1.117   4.478   7.367  0.6833 -0.1150  0.3922
  192SLPC   C2722239   1.110   4.481   7.577  0.1568 -0.5522  0.5038
  192SLPC   H7R22240   1.180   4.396   7.565  0.4191 -0.4787  1.4773
  192SLPC   H7S22241   1.006   4.441   7.584 -1.3344  2.4860 -1.7137
  192SLPC   C2822242   1.150   4.577   7.692 -0.2155 -0.3819  0.2982
  192SLPC   H8R22243   1.056   4.625   7.728  0.7523  2.9199 -1.2343
  192SLPC   H8S22244   1.212   4.659   7.653  1.8021 -1.6789  0.6239
  192SLPC   C2922245   1.230   4.517   7.801  0.3216  0.1264 -0.1856
  192SLPC   H9R22246   1.340   4.517   7.803  0.3134  0.4205  0.9004
  192SLPC  C21022247   1.183   4.448   7.906  0.4657 -0.4242  0.0531
  192SLPC  H10R22248   1.247   4.426   7.993 -2.8533  1.5434  3.2669
  192SLPC  C21122249   1.040   4.424   7.930  0.3146  0.5667 -0.3213
  192SLPC  H11R22250   1.027   4.318   7.961 -1.0462  0.3274 -1.5809
  192SLPC  H11S22251   0.976   4.432   7.839 -3.4290  0.6451  2.0806
  192SLPC  C21222252   0.991   4.509   8.042 -0.7987 -0.5737  0.1750
  192SLPC  H12R22253   0.959   4.609   8.009  2.4100  0.2820 -0.6960
  192SLPC  C21322254   1.028   4.493   8.172 -0.4061  0.3401 -0.1860
  192SLPC  H13R22255   0.976   4.557   8.245 -1.8958 -1.2780  0.2282
  192SLPC  C21422256   1.109   4.381   8.236 -0.4121 -0.2964 -0.5964
  192SLPC  H14R22257   1.213   4.408   8.205 -0.3242  0.1117  0.0450
  192SLPC  H14S22258   1.091   4.278   8.198 -0.8448 -0.3588 -0.2175
  192SLPC  C21522259   1.096   4.376   8.386  0.5232  0.2291 -0.9177
  192SLPC  H15R22260   0.988   4.369   8.412  0.6960  1.1017  0.1102
  192SLPC  H15S22261   1.135   4.463   8.443 -0.4661 -0.3637  0.7561
  192SLPC  C21622262   1.163   4.250   8.449  0.1636  0.4617 -0.5040
  192SLPC  H16R22263   1.273   4.244   8.432 -0.3589 -0.4748 -4.6986
  192SLPC  H16S22264   1.128   4.149   8.418  0.8288 -0.1420  0.6233
  192SLPC  C21722265   1.144   4.262   8.610 -0.3107 -0.2974  0.1342
  192SLPC  H17R22266   1.170   4.365   8.643  2.6258 -0.5222 -1.2521
  192SLPC  H17S22267   1.035   4.244   8.627 -0.1575 -0.2290  1.3167
  192SLPC  C21822268   1.218   4.156   8.683 -0.2262  0.2513  0.0600
  192SLPC  H18R22269   1.162   4.068   8.647  0.3108  1.2278 -3.5041
  192SLPC  H18S22270   1.212   4.159   8.794 -1.6330  0.6306 -0.0025
  192SLPC  H18T22271   1.325   4.139   8.658 -0.3694  0.6309 -0.8645
  192SLPC   C3322272   0.956   5.316   6.967  0.1240  0.3123 -0.0860
  192SLPC   H3X22273   0.926   5.215   6.931 -1.3695  0.2591  1.1862
  192SLPC   H3Y22274   0.863   5.374   6.989 -1.0282 -2.0089  1.6515
  192SLPC   C3422275   1.039   5.310   7.100  0.2020  0.3707  0.1538
  192SLPC   H4X22276   1.035   5.411   7.147  0.9787 -0.2294  1.6037
  192SLPC   H4Y22277   1.144   5.288   7.074  0.1351 -0.0587  0.2350
  192SLPC   C3522278   0.996   5.191   7.191  0.7622  0.2664 -0.5800
  192SLPC   H5X22279   1.053   5.103   7.156  0.8105  0.8640 -2.0717
  192SLPC   H5Y22280   0.890   5.174   7.161  0.9156  0.3375 -1.1625
  192SLPC   C3622281   1.004   5.216   7.341  0.3443 -0.4139 -0.8063
  192SLPC   H6X22282   0.918   5.282   7.368 -0.1765 -2.0873  1.9953
  192SLPC   H6Y22283   1.099   5.270   7.362 -0.6668  0.2862  2.5239
  192SLPC   C3722284   1.001   5.085   7.427 -0.2423  0.6202 -0.9370
  192SLPC   H7X22285   1.070   5.012   7.380  1.9348  0.7754  1.8169
  192SLPC   H7Y22286   0.898   5.043   7.428  0.1522 -0.4591 -2.3933
  192SLPC   C3822287   1.048   5.111   7.569 -0.7837 -0.3937  0.2209
  192SLPC   H8X22288   0.998   5.201   7.611  1.8800  1.8264 -0.9991
  192SLPC   H8Y22289   1.157   5.131   7.566 -0.5135 -1.8263 -0.6943
  192SLPC   C3922290   1.020   5.002   7.674 -0.6042  0.3228 -0.2604
  192SLPC   H9X22291   1.067   4.913   7.626  1.0583  1.4092 -0.7352
  192SLPC   H9Y22292   0.913   4.977   7.686 -0.1716 -1.8019 -0.3864
  192SLPC  C31022293   1.086   5.040   7.817  0.0590  0.0370 -0.2485
  192SLPC  H10X22294   1.031   5.126   7.859 -1.8843 -0.9191 -0.6884
  192SLPC  H10Y22295   1.191   5.066   7.795 -0.0534  2.0048  1.2842
  192SLPC  C31122296   1.073   4.929   7.921 -0.2387  0.7537  0.0747
  192SLPC  H11X22297   1.148   4.852   7.894 -1.6567 -1.8384  2.8673
  192SLPC  H11Y22298   0.982   4.872   7.892 -0.2096  0.2720  0.9016
  192SLPC  C31222299   1.071   4.970   8.066  0.2676 -0.3845  0.0084
  192SLPC  H12X22300   0.998   5.053   8.077 -0.0301 -0.3814 -1.6582
  192SLPC  H12Y22301   1.168   5.021   8.080  0.0467  0.3461 -0.9938
  192SLPC  C31322302   1.054   4.850   8.164 -0.3363 -0.3464  0.1220
  192SLPC  H13X22303   1.139   4.785   8.135 -0.1261  0.3898 -0.9625
  192SLPC  H13Y22304   0.962   4.789   8.165  0.6649 -1.9887  2.3952
  192SLPC  C31422305   1.079   4.894   8.309  0.8882  0.4387  1.1299
  192SLPC  H14X22306   1.161   4.969   8.314  0.1531  1.2448  1.4863
  192SLPC  H14Y22307   1.109   4.808   8.373  0.4655 -0.0473  0.6802
  192SLPC  C31522308   0.946   4.946   8.367 -0.4086  0.1415  0.4041
  192SLPC  H15X22309   0.865   4.881   8.327  0.4205 -1.1036  0.6912
  192SLPC  H15Y22310   0.927   5.039   8.310 -1.4927 -1.1728 -1.5045
  192SLPC  C31622311   0.942   4.957   8.520 -0.6958  0.1747  0.2174
  192SLPC  H16X22312   1.024   5.022   8.556 -0.0616 -0.1753 -0.5683
  192SLPC  H16Y22313   0.962   4.858   8.565 -0.8020  0.3328  0.6174
  192SLPC  C31722314   0.811   5.014   8.571  0.5799 -0.4397  0.5615
  192SLPC  H17X22315   0.729   4.949   8.533  1.8393 -0.3456 -2.6767
  192SLPC  H17Y22316   0.778   5.109   8.523 -0.0170 -0.9855 -0.1332
  192SLPC  C31822317   0.794   5.035   8.723  1.0576 -0.1242  0.0409
  192SLPC  H18X22318   0.880   5.088   8.771 -0.0872  0.2986  1.6937
  192SLPC  H18Y22319   0.780   4.939   8.776  0.1784 -1.0840 -1.8323
  192SLPC  H18Z22320   0.706   5.100   8.741  1.9681  1.7194 -1.6771
  193SOD    SOD22321   0.813   0.962   5.656  0.1586 -0.1685  0.7297
  194SOD    SOD22322   0.329   4.415  11.150  0.4148  0.2035  0.2751
  195SOD    SOD22323   3.755   2.257  11.862  0.0719 -0.1111  0.0322
  196SOD    SOD22324   0.330   0.856  11.113  0.4784 -0.6054  0.2591
  197SOD    SOD22325   3.902   3.894  12.264  0.0213  0.2025 -0.6096
  198SOD    SOD22326   4.411   4.357  15.947  0.0831 -0.1672 -0.5345
  199SOD    SOD22327   3.029   2.423   0.379 -0.0906 -0.5876 -0.0839
  200SOD    SOD22328   5.072   0.576   2.302  0.6384 -0.0628 -0.0406
  201SOD    SOD22329   4.537   3.100   3.076  0.3413 -0.0373 -0.2302
  202SOD    SOD22330   5.831   3.968   6.319  0.0633  0.2242 -0.5723
  203SOD    SOD22331   2.689   1.079  11.390 -0.1274  0.0440  0.0193
  204SOD    SOD22332   1.571   5.276   1.455 -0.2613  0.2316 -0.0877
  205SOD    SOD22333   1.090   1.725   4.381  0.0932 -0.3642 -0.1578
  206SOD    SOD22334   6.640   1.987  14.637  0.2624  0.2817 -0.3970
  207SOD    SOD22335   0.174   5.574   0.638  0.2291  0.1034  0.0892
  208SOD    SOD22336   5.160   0.455   3.311 -0.3279  0.0596 -0.0090
  209SOD    SOD22337   3.981   1.579  11.769  0.1455  0.2046  0.6851
  210SOD    SOD22338   5.063   2.984   6.632  0.1896 -0.3579 -0.0382
  211SOD    SOD22339   3.717   4.927  14.055 -0.4074  0.3520  0.0859
  212SOD    SOD22340   5.368   2.987   1.073  0.1975  0.2407  0.8310
  213SOD    SOD22341   1.030   3.630  13.611 -0.4079  0.3841  0.3602
  214SOD    SOD22342   6.465   2.868  11.441 -0.0166 -0.5600 -0.0253
  215SOD    SOD22343   2.813   1.037  15.284 -0.2247  0.0233  0.2781
  216SOD    SOD22344   0.256   0.390   1.386  0.0971 -0.1978 -0.5170
  217SOD    SOD22345   5.655   2.840  14.940 -0.0208  0.8578  0.1332
  218SOD    SOD22346   0.821   1.156  12.851  0.5276 -0.0920  0.6319
  219SOD    SOD22347   1.944   1.185  12.219  0.1233  0.0875 -0.8300
  220SOD    SOD22348   3.297   5.450  16.922  0.3765  0.2876 -0.4669
  221SOD    SOD22349   0.675   5.729  11.361 -0.0518  0.4970  0.4980
  222SOD    SOD22350   1.393   0.164   1.470  0.4002  0.2714  0.3576
  223SOD    SOD22351   1.151   6.563  11.134 -0.0876 -0.1584  0.2753
  224SOD    SOD22352   3.991   3.900  14.196  0.1780  0.3384  0.1770
  225SOD    SOD22353   0.703   5.794   5.091 -0.2083  0.3569  0.0403
  226SOD    SOD22354   6.037   4.716   1.351 -0.3975 -0.6382  0.0288
  227SOD    SOD22355   1.192   4.255  13.205 -0.3845 -0.2576 -0.1014
  228SOD    SOD22356   6.387   4.938   1.722  0.0972 -0.8651  0.1792
  229SOD    SOD22357   0.629   0.090  10.734  0.0502  0.1929 -0.2966
  230SOD    SOD22358   3.736   3.942   5.813 -0.4495  0.0020 -0.3175
  231SOD    SOD22359   4.216   2.121  10.311 -0.1041 -0.1735 -0.8444
  232SOD    SOD22360   0.961   5.613  14.269  0.1103  0.6138  0.2033
  233SOD    SOD22361   2.358   5.347   6.559  0.2822 -0.2337 -0.2525
  234SOD    SOD22362   3.387   2.255   1.262 -0.4817  0.1638 -0.6108
  235SOD    SOD22363   4.722   4.995   6.152 -0.2669  0.0270 -0.4843
  236SOD    SOD22364   2.894   1.758   4.880  0.1722  0.2727 -0.0092
  237SOD    SOD22365   6.090   1.939   5.794  0.0678  0.0954  0.1147
  238SOD    SOD22366   6.788   4.961  13.775  0.6291  0.1574  0.2845
  239SOD    SOD22367   3.206   5.114  10.826  0.1505  0.0394 -0.3490
  240SOD    SOD22368   2.983   4.099   2.838 -0.0158  0.2831 -0.1632
  241SOD    SOD22369   3.870   4.753  12.359  0.2399 -0.1605  0.3846
  242SOD    SOD22370   2.210   6.578   2.305  0.6945 -0.2526  0.2105
  243SOD    SOD22371   5.983   6.116   5.569 -0.2367 -0.0118  0.1468
  244SOD    SOD22372   0.568   0.555  14.000  0.0594  0.8782  0.2110
  245SOD    SOD22373   3.915   1.828  11.148 -0.1199 -0.1078  0.2511
  246SOD    SOD22374   0.289   4.562   2.173 -0.4309 -0.4002 -0.8033
  247SOD    SOD22375   1.993   3.902  11.412 -0.1122  0.3241  0.2732
  248SOD    SOD22376   4.533   0.037   2.869 -0.0211  0.6544 -0.4714
  249SOD    SOD22377   0.364   2.271  11.380  0.1991  0.0596  0.6283
  250SOD    SOD22378   5.848   4.459   3.459  0.2232  0.1520 -0.5136
  251SOD    SOD22379   5.304   0.914  11.797  0.2777  0.3434  0.1589
  252SOD    SOD22380   1.239   1.232  15.314 -0.2203 -0.2186 -0.1853
  253SOD    SOD22381   3.127   4.570   5.852 -0.2429  0.2893 -0.3895
  254SOD    SOD22382   4.101   3.288   5.826 -0.5263 -0.1969 -0.6004
  255SOD    SOD22383   5.613   1.548   2.537 -0.0039 -0.0601 -0.3482
  256SOD    SOD22384   1.233   3.268   2.077 -0.0112 -0.1059  0.0384
  257SOD    SOD22385   6.627   4.440   4.836  0.2096  0.0264 -0.2883
  258SOD    SOD22386   2.584   4.398  13.865 -0.4090  0.1838  0.3264
  259SOD    SOD22387   4.478   1.770   5.944 -0.1789 -0.0065 -0.4453
  260SOD    SOD22388   0.668   6.214  10.823  0.0751  0.2107 -0.1822
  261SOD    SOD22389   1.177   1.131   4.360  0.1163 -0.3646 -0.0617
  262SOD    SOD22390   6.507   2.169   6.195  0.2614 -0.2297  0.0893
  263SOD    SOD22391   3.702   2.714  12.852 -0.3719 -0.3917 -0.0962
  264SOD    SOD22392   6.707   2.054   3.828 -0.9597 -0.0561  0.4707
  265SOD    SOD22393   6.215   6.576   1.138 -0.1077 -0.1111  0.4137
  266CLA    CLA22394   0.915   6.422  14.542  0.2093 -0.0354 -0.0775
  267CLA    CLA22395   3.955   5.598  14.411  0.0195  0.1868  0.1688
  268CLA    CLA22396   5.931   1.140   5.525  0.1585  0.1350 -0.2856
  269CLA    CLA22397   5.804   0.857   1.638 -0.1540 -0.7924 -0.5300
  270CLA    CLA22398   2.092   1.435   2.048  0.2169  0.0119  0.2946
  271CLA    CLA22399   5.733   2.996  16.816 -0.2294 -0.3703 -0.1422
  272CLA    CLA22400   5.767   4.490   0.021  0.2315 -0.2389 -0.0828
  273CLA    CLA22401   5.509   2.199  11.224 -0.2509  0.1675 -0.3900
  274CLA    CLA22402   5.040   4.131  16.715 -0.3443  0.3403  0.0820
  275CLA    CLA22403   3.131   3.412   5.198  0.0778 -0.3134  0.1795
  276CLA    CLA22404   2.747   3.166   4.978  0.3710 -0.1774 -0.0169
  277CLA    CLA22405   3.169   0.217  16.460  0.2221 -0.2510 -0.2386
  278CLA    CLA22406   0.516   6.174  11.286 -0.3575  0.1470  0.1854
  279CLA    CLA22407   6.750   5.058   2.657  0.0937 -0.0785  0.2648
  280CLA    CLA22408   1.786   6.740   1.312 -0.0897 -0.1041  0.0962
  281CLA    CLA22409   3.432   3.243  15.144 -0.2038  0.6435  0.0610
  282CLA    CLA22410   0.763   5.609   2.840 -0.0259 -0.0061 -0.1364
  283CLA    CLA22411   6.494   0.402   5.689 -0.3270 -0.0172 -0.1433
  284CLA    CLA22412   0.076   1.765  14.299 -0.2889  0.5292  0.8890
  285CLA    CLA22413   2.691   4.936   1.237 -0.0621 -0.1136  0.3185
  286CLA    CLA22414   4.706   5.975  12.893 -0.2006 -0.0253 -0.3136
  287CLA    CLA22415   2.536   0.969   0.998 -0.0129 -0.0060  0.0341
  288CLA    CLA22416   1.004   4.560   2.595  0.1481 -0.2567 -0.1077
  289CLA    CLA22417   2.094   0.933  14.366  0.0350 -0.1485  0.1252
  290CLA    CLA22418   3.121   4.970   4.544 -0.0176 -0.2297  0.0242
  291CLA    CLA22419   3.273   3.227   3.170  0.2267 -0.0506 -0.2809
  292CLA    CLA22420   2.387   2.632  12.975 -0.4171 -0.0893  0.2699
  293CLA    CLA22421   4.614   5.715  15.800  0.0356  0.0989 -0.2189
  294CLA    CLA22422   5.559   4.657   5.568 -0.2657 -0.1584  0.0019
  295CLA    CLA22423   0.614   3.521  14.467 -0.2695  0.1535 -0.2390
  296CLA    CLA22424   3.947   2.259  12.040  0.1505  0.0962  0.1756
  297CLA    CLA22425   4.514   3.576   3.057  0.3766 -0.7010  0.5375
  298CLA    CLA22426   1.463   1.656  16.907  0.0017  0.2967  0.1651
  299CLA    CLA22427   5.184   6.443   0.408 -0.2841 -0.0851  0.0288
  300CLA    CLA22428   6.671   2.039  14.920 -0.0042 -0.6121  0.2033
  301CLA    CLA22429   1.026   5.829   5.382  0.3672 -0.1079  0.1509
  302CLA    CLA22430   1.014   6.100  11.232 -0.1267 -0.2523  0.1916
  303CLA    CLA22431   4.654   2.843   2.613  0.3053  0.1353 -0.0287
  304CLA    CLA22432   2.443   3.386  14.560  0.0175  0.3308 -0.1503
  305CLA    CLA22433   3.785   5.015   2.511  0.5132 -0.0788 -0.5057
  306CLA    CLA22434   2.538   2.740  13.465 -0.0945 -0.2722 -0.0506
  307CLA    CLA22435   2.931   4.183   5.574  0.1688  0.1649 -0.0989
  308CLA    CLA22436   0.326   2.364   3.764  0.3333 -0.2431 -0.1989
  309CLA    CLA22437   1.523   0.849  13.193  0.6104 -0.5715 -0.0835
  310CLA    CLA22438   3.037   1.777  15.667 -0.0233  0.4142  0.0474
  311CLA    CLA22439   0.343   1.084  12.805 -0.2106  0.3836 -0.0727
  312CLA    CLA22440   0.400   5.911  12.694  0.1428  0.2325  0.0734
  313CLA    CLA22441   0.267   5.374  16.876 -0.0978  0.1791  0.6453
  314CLA    CLA22442   4.493   4.033  14.385  0.2730 -0.1554 -0.0356
  315CLA    CLA22443   4.351   6.264   2.524  0.2054 -0.3007  0.0756
  316CLA    CLA22444   1.825   4.308  11.345  0.1432 -0.1223 -0.1475
  317CLA    CLA22445   4.700   3.765  13.185  0.1031  0.4256 -0.0905
  318CLA    CLA22446   3.091   4.575  13.817 -0.3726 -0.0235  0.0486
  319TIP3   OH222447   1.153   1.187   1.790  0.0757 -0.5829  0.1263
  319TIP3    H122448   1.216   1.116   1.802 -0.9108 -1.3456  1.0059
  319TIP3    H222449   1.170   1.219   1.701  0.5366 -1.9362 -0.3112
  320TIP3   OH222450   5.783   5.862  16.708  0.4106 -0.2630 -0.0954
  320TIP3    H122451   5.818   5.931  16.765 -1.0253 -0.7955  1.5196
  320TIP3    H222452   5.824   5.878  16.623  0.0369  2.6454  0.1621
  321TIP3   OH222453   1.972   1.585   4.048 -0.0670 -0.2930 -0.1123
  321TIP3    H122454   1.942   1.547   4.130  1.3502 -1.7853 -0.2253
  321TIP3    H222455   2.022   1.663   4.074 -0.4070 -0.2387  0.3734
  322TIP3   OH222456   6.413   4.540  11.400  0.0507 -0.2192  0.5304
  322TIP3    H122457   6.415   4.614  11.339 -1.0505 -0.1707  0.5269
  322TIP3    H222458   6.466   4.473  11.357  2.1347  0.9741  1.1265
  323TIP3   OH222459   6.000   0.793  10.567 -0.2182  0.3329 -0.2756
  323TIP3    H122460   6.064   0.727  10.595  1.2177  1.1818 -1.4484
  323TIP3    H222461   5.921   0.771  10.616  0.6604 -1.3586  0.4763
  324TIP3   OH222462   2.160   6.717  13.435 -0.5462  0.1418  0.0223
  324TIP3    H122463   2.135   6.807  13.456 -2.6025 -0.8993  2.5605
  324TIP3    H222464   2.092   6.663  13.476 -0.0231 -2.5648 -2.3861
  325TIP3   OH222465   0.928   0.792  13.780  0.2674 -0.2458  0.4783
  325TIP3    H122466   0.848   0.844  13.779 -0.5508 -1.4319  1.2386
  325TIP3    H222467   0.972   0.816  13.862  0.6628  0.3580  0.0918
  326TIP3   OH222468   4.324   5.473  15.372  0.4358  0.7279  0.1984
  326TIP3    H122469   4.316   5.517  15.457  0.0261 -0.2751  0.6962
  326TIP3    H222470   4.236   5.476  15.335 -0.2961 -1.9768  1.4461
  327TIP3   OH222471   5.141   5.722   5.873  0.1908 -0.3696  0.1217
  327TIP3    H122472   5.231   5.690   5.866  1.1259  2.0585  0.2982
  327TIP3    H222473   5.131   5.747   5.965 -0.1674  0.7039 -0.1965
  328TIP3   OH222474   0.270   1.035  16.111 -0.3993 -0.1554 -0.2723
  328TIP3    H122475   0.340   1.024  16.048 -0.2856  0.8187 -0.3277
  328TIP3    H222476   0.255   1.129  16.114  0.1455 -0.0939  1.7412
  329TIP3   OH222477   5.602   1.300  15.125 -0.3045 -0.1510  0.2322
  329TIP3    H122478   5.594   1.356  15.202  1.1262  0.1087  0.2060
  329TIP3    H222479   5.640   1.355  15.057  1.3986 -1.1910  0.2875
  330TIP3   OH222480   1.850   5.237   3.752  0.2713  0.7177  0.3523
  330TIP3    H122481   1.820   5.328   3.751  0.1800  0.6840 -0.2683
  330TIP3    H222482   1.908   5.229   3.676 -0.2969  0.0717 -0.0307
  331TIP3   OH222483   2.213   2.313  17.270 -0.1982 -0.6178 -0.2459
  331TIP3    H122484   2.178   2.266  17.195 -0.9824  0.9465 -0.9116
  331TIP3    H222485   2.247   2.395  17.233  1.2714 -0.7064  0.8393
  332TIP3   OH222486   2.083   1.419   3.638 -0.3482 -0.1759  0.2822
  332TIP3    H122487   2.144   1.345   3.632 -1.3844 -0.9534 -1.8292
  332TIP3    H222488   2.000   1.383   3.606 -1.5299  1.2685  1.6055
  333TIP3   OH222489   0.650   6.347  13.165 -0.4055  0.2047  0.0870
  333TIP3    H122490   0.595   6.352  13.087  0.6052  0.6661 -0.6125
  333TIP3    H222491   0.721   6.287  13.141  1.0875  1.9623 -0.1230
  334TIP3   OH222492   6.362   3.007  11.620 -0.1820  0.3264 -0.1277
  334TIP3    H122493   6.343   3.099  11.604  0.3642  0.6314  0.8948
  334TIP3    H222494   6.377   3.002  11.715  1.8774 -0.4263 -0.4567
  335TIP3   OH222495   6.484   3.023   4.152 -0.0063  0.0943  0.0372
  335TIP3    H122496   6.536   2.950   4.186  1.5266  0.6432 -1.0460
  335TIP3    H222497   6.458   2.995   4.064 -0.3497  0.4069  0.0356
  336TIP3   OH222498   1.709   0.029   6.444 -0.4120 -0.3248 -0.0327
  336TIP3    H122499   1.770  -0.042   6.427  0.4323  0.6429 -1.2465
  336TIP3    H222500   1.626   0.000   6.405  0.3390 -0.0214 -1.9617
  337TIP3   OH222501   3.482   2.207  14.055  0.0522 -0.4282  0.7788
  337TIP3    H122502   3.461   2.223  13.963 -0.4877  0.8541  1.1053
  337TIP3    H222503   3.566   2.161  14.053  0.8002  0.9330 -0.3155
  338TIP3   OH222504   3.876   2.786  11.389  0.4588 -0.0295 -0.0415
  338TIP3    H122505   3.870   2.882  11.395  0.0855  0.0482 -1.3548
  338TIP3    H222506   3.928   2.761  11.465 -1.2872  1.0005  1.6060
  339TIP3   OH222507   4.607   4.804   6.159  0.6591 -0.1059 -0.1870
  339TIP3    H122508   4.513   4.812   6.143  0.7215  0.7150 -0.1945
  339TIP3    H222509   4.616   4.729   6.218 -0.2688  1.4601  2.0554
  340TIP3   OH222510   1.461   6.365   4.785 -0.4728 -0.5432  0.3843
  340TIP3    H122511   1.527   6.432   4.807 -1.2071  0.3566 -0.0962
  340TIP3    H222512   1.510   6.283   4.785  0.6407  0.0962  0.1166
  341TIP3   OH222513   1.271   3.119   4.548 -0.7991 -0.4461 -0.0909
  341TIP3    H122514   1.270   3.030   4.583 -0.2291  0.3831  2.1559
  341TIP3    H222515   1.192   3.160   4.584  0.0633  0.5905  0.6530
  342TIP3   OH222516   2.524   4.640  15.549 -0.4938 -0.1725 -0.6336
  342TIP3    H122517   2.428   4.643  15.544 -0.6314 -0.3844  1.0960
  342TIP3    H222518   2.543   4.550  15.576  0.2333 -0.2324 -1.3034
  343TIP3   OH222519   2.808   3.861  14.970  0.2859  0.4816  0.3051
  343TIP3    H122520   2.795   3.809  15.050 -1.2156 -0.1038 -0.2834
  343TIP3    H222521   2.808   3.797  14.900  1.2329  1.0318 -0.2051
  344TIP3   OH222522   5.208   5.281  13.627  0.3002 -0.1121 -0.0782
  344TIP3    H122523   5.202   5.186  13.629 -2.4513 -0.0060  1.1192
  344TIP3    H222524   5.290   5.301  13.674  0.7709 -1.8485 -0.0997
  345TIP3   OH222525   5.750   5.228   6.135  0.1601  0.1367  0.6020
  345TIP3    H122526   5.669   5.232   6.085  0.2829  1.5772  0.4490
  345TIP3    H222527   5.812   5.281   6.084  1.4395 -1.5549  0.3282
  346TIP3   OH222528   5.901   2.449  16.570 -0.5279 -0.2807  0.2130
  346TIP3    H122529   5.893   2.456  16.665 -0.9910 -0.3475  0.1848
  346TIP3    H222530   5.989   2.416  16.555  0.1304  1.2549  0.5449
  347TIP3   OH222531   0.109   6.569   0.656  0.4307 -0.3827 -0.3434
  347TIP3    H122532   0.019   6.551   0.629 -0.0224 -0.3861  1.1200
  347TIP3    H222533   0.103   6.646   0.712  1.4113 -0.1071 -0.5859
  348TIP3   OH222534   2.211   3.927  12.122  0.1508 -0.5931 -0.2793
  348TIP3    H122535   2.158   3.872  12.181 -1.9183  0.8006 -0.7070
  348TIP3    H222536   2.221   4.010  12.170  0.8214 -0.3868 -0.7714
  349TIP3   OH222537   5.191   5.902   0.907 -0.0205  0.6462  0.4404
  349TIP3    H122538   5.175   5.978   0.850 -0.8266  0.5924  0.5831
  349TIP3    H222539   5.248   5.845   0.855  0.7895  1.4491  0.4213
  350TIP3   OH222540   1.823   6.204   2.605  0.2462  0.2085 -0.5860
  350TIP3    H122541   1.906   6.187   2.560  1.3367  1.6164  0.7669
  350TIP3    H222542   1.794   6.118   2.635  1.9504 -0.1661  0.0928
  351TIP3   OH222543   0.638   5.619   2.265 -0.1000 -0.1912  0.3842
  351TIP3    H122544   0.557   5.569   2.251 -0.5072  0.3981  0.5953
  351TIP3    H222545   0.634   5.645   2.357  0.1184  0.2017  0.2841
  352TIP3   OH222546   6.202   5.631   4.120  0.7495 -0.0680  0.2241
  352TIP3    H122547   6.203   5.648   4.026 -2.4394 -0.3667  0.0358
  352TIP3    H222548   6.197   5.717   4.160 -0.3276 -0.0098 -0.0175
  353TIP3   OH222549   6.254   3.102  12.790 -0.0598  0.0260 -0.0219
  353TIP3    H122550   6.248   3.171  12.857  1.2498  0.3668 -0.2082
  353TIP3    H222551   6.327   3.130  12.735 -0.3668 -0.8553 -0.8958
  354TIP3   OH222552   1.963   5.570  11.213 -0.3437 -0.1070 -0.2179
  354TIP3    H122553   1.880   5.617  11.221  0.0415  0.8095 -1.2666
  354TIP3    H222554   1.945   5.483  11.249 -1.1308  0.7578  1.6107
  355TIP3   OH222555   0.382   5.924   3.239 -0.2625 -0.7750 -0.0552
  355TIP3    H122556   0.383   5.965   3.325  1.3274 -0.6562 -0.0872
  355TIP3    H222557   0.404   5.995   3.178  0.4461 -1.2304 -0.3450
  356TIP3   OH222558   2.725   1.619   0.688 -0.3568  0.2474  0.2019
  356TIP3    H122559   2.632   1.597   0.697 -1.0329  3.3894  2.2486
  356TIP3    H222560   2.768   1.573   0.760 -0.6553  0.4172  0.4869
  357TIP3   OH222561   0.414   5.187   0.667  0.3824  0.1855 -0.6632
  357TIP3    H122562   0.399   5.220   0.755 -0.1033  0.3573 -0.8079
  357TIP3    H222563   0.508   5.201   0.652  0.5742 -0.3032  0.0047
  358TIP3   OH222564   2.921   6.184  12.803 -0.0366 -0.4277  0.2013
  358TIP3    H122565   2.841   6.215  12.760  0.4655  0.0506 -0.4103
  358TIP3    H222566   2.982   6.167  12.731  0.0342 -1.9374  0.5871
  359TIP3   OH222567   2.717   3.607  12.426 -0.0114 -0.1040 -0.2101
  359TIP3    H122568   2.782   3.539  12.411  0.6886  0.4449  0.2467
  359TIP3    H222569   2.751   3.684  12.380 -0.6714  0.0067 -0.5241
  360TIP3   OH222570   5.502   5.401   0.311  0.0222  0.1466  0.0884
  360TIP3    H122571   5.576   5.343   0.295 -0.4465 -0.9257  1.5556
  360TIP3    H222572   5.436   5.375   0.246  0.2497 -0.1618 -0.0177
  361TIP3   OH222573   6.530   2.833  14.109 -0.5000  0.2576  0.0413
  361TIP3    H122574   6.560   2.761  14.165  0.4843 -0.1823 -1.0144
  361TIP3    H222575   6.479   2.889  14.167 -1.2786 -1.2723  0.9055
  362TIP3   OH222576   1.570   1.806   1.206 -0.2649  0.0087  0.0041
  362TIP3    H122577   1.638   1.862   1.167  0.5124 -0.2299  0.9684
  362TIP3    H222578   1.566   1.730   1.149 -0.9840  0.8143 -1.0481
  363TIP3   OH222579   4.542   1.622  11.844 -0.3644 -0.1737 -0.0577
  363TIP3    H122580   4.547   1.532  11.814 -0.5797 -1.5601  3.5252
  363TIP3    H222581   4.621   1.634  11.897 -0.6836  1.4993  0.1026
  364TIP3   OH222582   1.976   4.113  11.527 -0.0324  0.3185 -0.4982
  364TIP3    H122583   1.934   4.170  11.464 -0.4958 -0.5744 -1.0171
  364TIP3    H222584   1.916   4.112  11.603  0.1871  0.8500 -0.3176
  365TIP3   OH222585   3.897   6.496   3.846 -0.0119  0.4891  0.3916
  365TIP3    H122586   3.822   6.437   3.837  0.1428  0.0194  1.8631
  365TIP3    H222587   3.958   6.449   3.902  0.8642  1.3601  0.1948
  366TIP3   OH222588   1.563   1.920  14.704 -0.0817 -0.4928  0.3603
  366TIP3    H122589   1.643   1.970  14.686 -1.2273  1.4336  0.3114
  366TIP3    H222590   1.587   1.829  14.686  1.6380  0.2036 -1.2921
  367TIP3   OH222591   0.614   0.427   4.508 -0.1586 -0.2858 -0.2719
  367TIP3    H122592   0.677   0.483   4.464  0.0779  0.3165  0.8042
  367TIP3    H222593   0.554   0.399   4.439  0.5915  0.0783 -1.0892
  368TIP3   OH222594   4.169   3.915   6.175 -0.0398 -0.3833 -0.1071
  368TIP3    H122595   4.086   3.962   6.185 -0.0790 -0.5306  0.2734
  368TIP3    H222596   4.209   3.952   6.096 -1.1289 -1.2924 -1.1349
  369TIP3   OH222597   6.382   1.353  15.369 -0.0798  0.6121  0.1095
  369TIP3    H122598   6.314   1.287  15.381 -0.7177  1.1897 -0.2249
  369TIP3    H222599   6.358   1.398  15.288  0.9106  0.5862 -0.2184
  370TIP3   OH222600   1.778   6.419  12.856  0.2412 -0.4397 -0.4076
  370TIP3    H122601   1.872   6.417  12.875  0.2346 -1.1108 -0.4061
  370TIP3    H222602   1.752   6.510  12.870  0.7082 -0.4373  0.4800
  371TIP3   OH222603   1.384   4.125  13.164 -0.2293 -0.2045  0.5215
  371TIP3    H122604   1.461   4.147  13.112 -0.4842  0.2967  0.3479
  371TIP3    H222605   1.391   4.030  13.179  0.0523 -0.2836 -0.0863
  372TIP3   OH222606   2.328   4.888   5.510  0.0514  0.4393  0.2921
  372TIP3    H122607   2.276   4.904   5.588 -0.7066  0.5342 -0.2216
  372TIP3    H222608   2.308   4.798   5.485  1.6159 -0.2082  1.1629
  373TIP3   OH222609   2.975   5.742  14.968 -0.1750 -0.0747  0.2934
  373TIP3    H122610   2.983   5.705  14.880 -0.1762 -2.2363  1.1440
  373TIP3    H222611   3.064   5.765  14.993  0.1724 -1.6638  0.5985
  374TIP3   OH222612   5.441   3.228  12.241  0.3887 -0.5288 -0.0890
  374TIP3    H122613   5.442   3.190  12.153  0.6498 -0.9827  0.1033
  374TIP3    H222614   5.363   3.189  12.283 -0.4272  0.6143 -0.5079
  375TIP3   OH222615   3.110   0.954  16.255 -0.0965  0.1726  0.4036
  375TIP3    H122616   3.053   0.878  16.240  0.8757 -0.6145  0.6270
  375TIP3    H222617   3.144   0.976  16.168  0.2988 -0.2003  0.4601
  376TIP3   OH222618   1.324   2.940   0.658 -0.7584 -0.0773 -0.2324
  376TIP3    H122619   1.386   2.930   0.730  1.6852  0.1850 -2.1750
  376TIP3    H222620   1.264   3.009   0.689  0.8275  0.7789  1.1660
  377TIP3   OH222621   3.488   1.047   3.347 -0.1399  0.5453 -0.1175
  377TIP3    H122622   3.489   0.972   3.287  0.1807  0.3991  0.0686
  377TIP3    H222623   3.505   1.008   3.433  1.1005  0.9641 -0.1609
  378TIP3   OH222624   0.771   5.225  11.786  0.1433 -0.3220  0.5306
  378TIP3    H122625   0.731   5.242  11.701 -0.9659  1.3346  1.3245
  378TIP3    H222626   0.773   5.311  11.829  4.0075 -0.3904  0.8223
  379TIP3   OH222627   3.292   3.140   4.706 -0.6753  0.5707 -0.5138
  379TIP3    H122628   3.381   3.129   4.740 -0.7905  1.2600  0.0433
  379TIP3    H222629   3.303   3.156   4.613 -0.2598 -0.0378 -0.5716
  380TIP3   OH222630   5.005   6.572  11.378 -0.5844  0.1164  0.2508
  380TIP3    H122631   4.916   6.552  11.351 -0.1254  0.4719 -1.6408
  380TIP3    H222632   5.047   6.610  11.301  1.9063 -2.1575  0.3030
  381TIP3   OH222633   4.287   2.933  11.960 -0.2730 -0.1216 -0.6052
  381TIP3    H122634   4.358   2.911  12.021 -0.3673  1.3012  0.0476
  381TIP3    H222635   4.214   2.878  11.987  0.7355 -2.1482 -1.7360
  382TIP3   OH222636   0.599   4.302  13.977 -0.0953 -0.7513 -0.4140
  382TIP3    H122637   0.628   4.356  14.050  2.0793 -0.1024 -1.6741
  382TIP3    H222638   0.541   4.236  14.017 -0.2141  0.5082  1.6189
  383TIP3   OH222639   4.283   2.111   2.369 -0.0215 -0.0627  0.1913
  383TIP3    H122640   4.313   2.029   2.329 -0.3543 -0.4948  0.7987
  383TIP3    H222641   4.217   2.144   2.309  0.6637  0.1622 -0.4443
  384TIP3   OH222642   0.426   6.462   4.326  0.0885  0.2414  0.2933
  384TIP3    H122643   0.351   6.456   4.386 -1.4700 -0.9090 -1.6415
  384TIP3    H222644   0.485   6.524   4.368 -0.5652 -1.0267  3.3338
  385TIP3   OH222645   3.396   5.756  15.443  0.2549  0.2949 -0.2275
  385TIP3    H122646   3.459   5.701  15.489  3.1482  2.3883 -1.3530
  385TIP3    H222647   3.382   5.711  15.360 -0.3705 -0.5692  0.3346
  386TIP3   OH222648   4.641   3.923   3.550  0.3762  0.1259  0.0406
  386TIP3    H122649   4.567   3.922   3.490  1.9911  1.9022 -2.1616
  386TIP3    H222650   4.649   3.832   3.580 -3.2561  0.0503  1.2574
  387TIP3   OH222651   0.449   5.882  14.300 -0.3464  0.1117 -0.5166
  387TIP3    H122652   0.528   5.935  14.297  0.1177 -0.4687  0.6901
  387TIP3    H222653   0.472   5.808  14.357 -1.7209 -0.1288 -0.2401
  388TIP3   OH222654   4.984   5.822   3.938  0.5535  0.5484 -0.8809
  388TIP3    H122655   5.003   5.729   3.954  1.0686  1.0349  1.6730
  388TIP3    H222656   4.949   5.823   3.848  0.4650 -2.1094 -0.9763
  389TIP3   OH222657   3.685   1.559   3.828 -0.1945 -0.4539  0.5710
  389TIP3    H122658   3.739   1.617   3.881  0.7390 -2.5040  1.9938
  389TIP3    H222659   3.595   1.580   3.852  0.1493 -0.0583  1.5374
  390TIP3   OH222660   5.649   6.278   5.519  0.0440  0.1875 -0.3852
  390TIP3    H122661   5.582   6.321   5.466  1.5940  0.5882 -2.1361
  390TIP3    H222662   5.731   6.319   5.492  1.3199 -2.1290 -0.3125
  391TIP3   OH222663   5.586   0.150   3.477  0.3601 -0.4271 -0.0558
  391TIP3    H122664   5.622   0.155   3.566  0.8386  0.4139 -0.2901
  391TIP3    H222665   5.627   0.222   3.430 -0.1456 -0.6591 -0.8768
  392TIP3   OH222666   3.461   2.882  11.875  0.1957  0.8188  0.0394
  392TIP3    H122667   3.492   2.894  11.785  0.2828  1.6295  0.1677
  392TIP3    H222668   3.490   2.961  11.921  2.0771 -0.5191  1.3126
  393TIP3   OH222669   1.568   3.757  13.511  0.5776 -0.1419  0.0216
  393TIP3    H122670   1.486   3.763  13.560  0.5816  1.0775 -0.0903
  393TIP3    H222671   1.628   3.710  13.570 -0.0410 -0.5804  0.3075
  394TIP3   OH222672   4.664   6.629  14.902 -0.2090  0.0174 -0.4116
  394TIP3    H122673   4.705   6.606  14.818 -0.5739  0.4855 -0.7197
  394TIP3    H222674   4.587   6.573  14.907  1.6682 -2.6490  1.2775
  395TIP3   OH222675   5.607   1.693  14.786 -0.3726 -0.1936 -0.1325
  395TIP3    H122676   5.684   1.749  14.783 -0.7335  0.2580 -1.2860
  395TIP3    H222677   5.533   1.752  14.774 -0.9768 -0.5436  1.5137
  396TIP3   OH222678   5.258   4.736  13.647 -0.1833  0.0403 -0.5983
  396TIP3    H122679   5.276   4.667  13.711  0.9469  0.3077 -0.5966
  396TIP3    H222680   5.345   4.763  13.617 -0.4955  2.3718  0.3583
  397TIP3   OH222681   5.552   0.396  16.119  0.2763  0.3309 -0.3329
  397TIP3    H122682   5.458   0.416  16.119  0.0097 -0.8420  0.5954
  397TIP3    H222683   5.566   0.346  16.039  0.4537  1.8859 -1.3250
  398TIP3   OH222684   5.571   1.077   4.888  0.3803 -0.1397 -0.0605
  398TIP3    H122685   5.572   1.094   4.983 -2.6060  0.5975 -0.0552
  398TIP3    H222686   5.620   1.151   4.851  1.2878 -0.2439  0.8568
  399TIP3   OH222687   6.240   3.249  14.389 -0.8191  0.1842  0.2915
  399TIP3    H122688   6.165   3.215  14.439 -2.1650  1.6404 -0.6349
  399TIP3    H222689   6.203   3.321  14.338  1.2597  0.9913 -0.1479
  400TIP3   OH222690   5.296   5.297  16.995  0.1193 -0.0074 -0.0563
  400TIP3    H122691   5.292   5.309  16.900  1.1950  0.9819  0.0011
  400TIP3    H222692   5.334   5.210  17.007 -1.3283 -0.7239 -0.5143
  401TIP3   OH222693   6.114   4.388   3.004 -0.1751  0.1890  0.0033
  401TIP3    H122694   6.053   4.315   2.997 -1.8176  1.4045  0.9993
  401TIP3    H222695   6.155   4.378   3.090 -0.2770  0.3735  0.0714
  402TIP3   OH222696   6.356   0.773  14.364  0.0258 -0.2737  0.0367
  402TIP3    H122697   6.429   0.722  14.330  0.6958  0.0550  0.9380
  402TIP3    H222698   6.361   0.857  14.318  0.6968  0.0284  0.6384
  403TIP3   OH222699   5.447   5.253   6.162 -0.1584 -0.4590  0.0973
  403TIP3    H122700   5.436   5.346   6.185 -0.6069 -0.6357  0.5923
  403TIP3    H222701   5.469   5.255   6.068  1.5796  0.2551  0.4793
  404TIP3   OH222702   2.306   2.744  10.745 -0.2531  0.2251 -0.4442
  404TIP3    H122703   2.332   2.712  10.832  3.7128  0.9964 -1.1416
  404TIP3    H222704   2.337   2.676  10.685 -0.7241  0.8311 -1.3808
  405TIP3   OH222705   0.071   3.877   2.215 -0.2405  0.2783 -0.3185
  405TIP3    H122706   0.138   3.945   2.220 -0.3460  0.3601  0.0733
  405TIP3    H222707   0.118   3.795   2.226 -0.4657  0.4366  2.9812
  406TIP3   OH222708   3.712   2.055   5.727  0.2881  0.0751 -0.3383
  406TIP3    H122709   3.660   2.135   5.721  0.7546  0.2753 -2.5513
  406TIP3    H222710   3.775   2.072   5.798  0.3440  1.6520 -0.7329
  407TIP3   OH222711   4.290   1.750  13.089  0.4769 -0.2987  0.2773
  407TIP3    H122712   4.354   1.763  13.158  0.2936  3.2302 -0.0638
  407TIP3    H222713   4.338   1.762  13.007 -0.0444 -0.6896 -0.1028
  408TIP3   OH222714   4.400   1.900  13.602  0.6499  0.5048 -0.2066
  408TIP3    H122715   4.339   1.960  13.558  1.4189  1.0579 -0.5428
  408TIP3    H222716   4.452   1.956  13.659  1.8485  0.2744 -1.0381
  409TIP3   OH222717   4.142   4.879   5.858  0.0656  0.5504 -0.1588
  409TIP3    H122718   4.237   4.874   5.863  0.1064 -0.4727 -1.4863
  409TIP3    H222719   4.111   4.796   5.894 -0.3402  0.8376  0.1791
  410TIP3   OH222720   3.335   5.885  14.209  0.3677 -0.2057 -0.1783
  410TIP3    H122721   3.338   5.808  14.152  2.3939 -0.1485 -0.2324
  410TIP3    H222722   3.318   5.958  14.150 -0.9844 -0.5264 -0.2071
  411TIP3   OH222723   6.621   4.320  11.679 -0.0290  0.5799 -0.2828
  411TIP3    H122724   6.676   4.370  11.619 -1.2861  0.9821 -1.1638
  411TIP3    H222725   6.544   4.376  11.692 -1.7241 -1.2711 -1.7209
  412TIP3   OH222726   0.078   4.022   1.326  0.5237 -0.0390 -0.3619
  412TIP3    H122727   0.072   4.078   1.403  1.3476  0.7561 -0.8514
  412TIP3    H222728  -0.008   3.982   1.318 -0.1541  1.3249 -0.1206
  413TIP3   OH222729   3.378   6.787   5.645 -0.1108  0.5065 -0.1522
  413TIP3    H122730   3.325   6.708   5.656 -0.9823  0.7780 -2.0024
  413TIP3    H222731   3.328   6.841   5.583  2.3367  0.7712 -2.0491
  414TIP3   OH222732   4.419   2.982   4.778  0.1030  0.4042  0.4402
  414TIP3    H122733   4.410   3.038   4.855 -1.1711 -0.3023  0.8399
  414TIP3    H222734   4.463   2.903   4.810  1.1428  0.8089  0.0562
  415TIP3   OH222735   0.664   2.512  11.438 -0.1859  0.2130  0.5753
  415TIP3    H122736   0.648   2.490  11.346 -1.3084 -0.9060  1.0150
  415TIP3    H222737   0.750   2.555  11.438  0.6927 -1.4319 -0.7469
  416TIP3   OH222738   1.288   6.682   2.584  0.2150 -0.1523  0.3056
  416TIP3    H122739   1.263   6.653   2.497  1.5154  1.3416 -0.6155
  416TIP3    H222740   1.372   6.727   2.572  0.0753  0.7460  2.1990
  417TIP3   OH222741   4.656   1.648  16.906 -0.3749  0.1841 -0.0394
  417TIP3    H122742   4.672   1.608  16.820 -0.9935  0.9238 -0.5084
  417TIP3    H222743   4.561   1.644  16.917 -0.5286  2.0824 -0.3952
  418TIP3   OH222744   6.036   4.796  15.170  0.2298 -0.4387  0.1864
  418TIP3    H122745   6.078   4.793  15.083  0.6116  0.7709  0.3030
  418TIP3    H222746   6.101   4.759  15.229  1.0744  1.1881  0.3262
  419TIP3   OH222747   4.997   0.676  15.510 -0.4384 -0.3390 -0.0647
  419TIP3    H122748   5.013   0.603  15.451  0.7493  2.0632 -2.9901
  419TIP3    H222749   5.005   0.754  15.455 -1.2393  2.0686  2.9159
  420TIP3   OH222750   3.475   1.032   3.628  0.4977 -0.4655 -0.0619
  420TIP3    H122751   3.382   1.055   3.635  0.6272 -0.1670  0.7463
  420TIP3    H222752   3.521   1.115   3.630  0.8455 -0.6716  0.6580
  421TIP3   OH222753   0.662   4.606   2.406 -0.5972  0.1504 -0.0221
  421TIP3    H122754   0.606   4.530   2.391 -0.7183  0.2347  0.0028
  421TIP3    H222755   0.603   4.672   2.442 -0.1455 -0.3494  1.7362
  422TIP3   OH222756   5.722   3.061  12.222  0.0976 -0.2217  0.2990
  422TIP3    H122757   5.740   3.062  12.316  0.9415 -0.4103  0.1547
  422TIP3    H222758   5.759   2.977  12.192 -1.8042 -1.0411  0.0874
  423TIP3   OH222759   4.565   0.804  17.280 -0.2088  0.2477 -0.1074
  423TIP3    H122760   4.584   0.863  17.352 -0.2434  0.3072 -0.1471
  423TIP3    H222761   4.637   0.818  17.218 -1.4046  1.9410 -1.1876
  424TIP3   OH222762   0.568   2.224   3.456  0.2960  0.2304  0.5440
  424TIP3    H122763   0.510   2.299   3.451 -1.0338 -0.8657 -2.3991
  424TIP3    H222764   0.588   2.202   3.365  3.7612 -0.6960  1.3723
  425TIP3   OH222765   6.337   1.498  13.041 -0.8886 -0.7506 -0.2181
  425TIP3    H122766   6.274   1.569  13.031 -1.2189 -1.0956 -0.6007
  425TIP3    H222767   6.288   1.419  13.022 -0.7734 -1.1855  1.1764
  426TIP3   OH222768   6.341   0.660  12.688  0.3940 -0.0772 -0.5454
  426TIP3    H122769   6.425   0.668  12.733 -0.0936  3.9963  0.0271
  426TIP3    H222770   6.281   0.627  12.756  1.0117 -0.5272 -0.2084
  427TIP3   OH222771   4.763   0.319   5.704  0.0324  0.1633  0.3736
  427TIP3    H122772   4.852   0.353   5.708  0.0085  0.8987 -2.6238
  427TIP3    H222773   4.773   0.225   5.689  0.5483  0.6120 -2.9516
  428TIP3   OH222774   2.637   2.631  17.102  0.0505  0.1335  0.1580
  428TIP3    H122775   2.637   2.544  17.063  0.9885  0.4457 -0.5841
  428TIP3    H222776   2.545   2.656  17.106 -0.1412 -0.3815 -0.8188
  429TIP3   OH222777   4.217   1.165  16.603 -0.0339  0.0387  0.4787
  429TIP3    H122778   4.251   1.241  16.651 -0.7052  0.7791 -0.2093
  429TIP3    H222779   4.162   1.120  16.667 -0.6630  0.8411  0.5194
  430TIP3   OH222780   6.304   0.048   5.814  0.1255 -0.3945 -0.1923
  430TIP3    H122781   6.320  -0.045   5.829  0.0739 -0.2065  1.1393
  430TIP3    H222782   6.355   0.068   5.735  0.0780 -1.5556 -0.5373
  431TIP3   OH222783   0.886   5.118  17.110 -0.0533 -0.3175 -0.2884
  431TIP3    H122784   0.887   5.083  17.020  0.7408 -1.1299  0.0178
  431TIP3    H222785   0.805   5.169  17.115 -0.4894 -0.8800 -1.2355
  432TIP3   OH222786   1.683   6.605  17.089  0.8238 -0.4082  0.5231
  432TIP3    H122787   1.726   6.552  17.022  1.5912  0.6708  0.1415
  432TIP3    H222788   1.667   6.690  17.047 -1.7737 -0.7534  0.6247
  433TIP3   OH222789   3.157   5.833   2.331 -0.0779  0.1406 -0.1266
  433TIP3    H122790   3.131   5.884   2.408 -1.9758 -2.1490  0.8757
  433TIP3    H222791   3.249   5.814   2.346 -0.5051 -0.6421  1.8923
  434TIP3   OH222792   1.873   3.559   5.507  0.2308  0.1123  0.6314
  434TIP3    H122793   1.950   3.613   5.488 -0.2711  0.9018  0.7856
  434TIP3    H222794   1.907   3.470   5.513  1.1089  0.4319  0.5552
  435TIP3   OH222795   3.710   0.801  14.600  0.0783  0.0307  0.3662
  435TIP3    H122796   3.641   0.746  14.563 -0.4461 -0.4892  2.0094
  435TIP3    H222797   3.714   0.775  14.692 -0.0009  2.5456  1.1584
  436TIP3   OH222798   3.551   2.631   0.973 -0.3118  1.1888 -0.1659
  436TIP3    H122799   3.480   2.569   0.960 -1.5600  2.3575  0.7551
  436TIP3    H222800   3.616   2.608   0.907 -0.1718 -1.8306  0.8598
  437TIP3   OH222801   2.059   2.723  16.130  0.1262 -0.7399 -0.2655
  437TIP3    H122802   2.038   2.634  16.104 -0.1097 -0.6901 -0.2437
  437TIP3    H222803   2.063   2.772  16.048  0.8357 -0.8925 -0.3260
  438TIP3   OH222804   5.355   0.708  13.057  0.0934 -0.1418 -0.3587
  438TIP3    H122805   5.367   0.703  13.152  0.5530 -1.0371 -0.4598
  438TIP3    H222806   5.434   0.670  13.020 -1.6776 -3.5790 -1.0709
  439TIP3   OH222807   3.971   0.522   3.331  0.5556  0.0949 -0.0597
  439TIP3    H122808   4.040   0.570   3.377 -0.8772  1.5733  0.6374
  439TIP3    H222809   3.920   0.481   3.402 -0.1849  0.3058 -0.4617
  440TIP3   OH222810   0.831   3.196   4.506 -0.1156 -0.1005  0.2894
  440TIP3    H122811   0.836   3.224   4.415  4.3211 -0.8733  0.0629
  440TIP3    H222812   0.843   3.101   4.503 -1.2721 -0.3121  1.6357
  441TIP3   OH222813   2.814   1.736  15.444 -0.4754  0.0960  0.0203
  441TIP3    H122814   2.858   1.723  15.528  0.7328 -2.3494 -0.8861
  441TIP3    H222815   2.866   1.802  15.399  0.5258 -0.5746  0.1571
  442TIP3   OH222816   4.031   4.533   0.193  0.6336  0.2468 -0.0666
  442TIP3    H122817   3.950   4.498   0.231  0.8127  0.4684  0.5365
  442TIP3    H222818   4.013   4.625   0.178  0.8356  0.3405  0.2530
  443TIP3   OH222819   3.166   5.157  17.105  0.6051  0.3239  0.1587
  443TIP3    H122820   3.098   5.148  17.171 -0.1407 -0.8998 -0.7186
  443TIP3    H222821   3.135   5.226  17.047  0.1133 -0.1848 -0.2016
  444TIP3   OH222822   1.010   5.084   6.462 -0.4829 -0.4708 -0.4034
  444TIP3    H122823   0.946   5.111   6.528 -1.3018 -0.7854 -1.0450
  444TIP3    H222824   1.040   4.999   6.493 -2.3344 -1.5546 -1.3983
  445TIP3   OH222825   1.665   5.556   1.142  0.0899  0.2446 -0.1540
  445TIP3    H122826   1.706   5.625   1.194  0.0437  0.5925 -0.5807
  445TIP3    H222827   1.734   5.528   1.082  1.3169 -2.5144  2.2724
  446TIP3   OH222828   5.580   6.437  16.393  0.1487  0.3629 -0.0477
  446TIP3    H122829   5.570   6.446  16.488 -0.1651 -0.1718 -0.0266
  446TIP3    H222830   5.496   6.402  16.363  0.9116 -1.3830 -0.2487
  447TIP3   OH222831   5.690   5.661   6.240  0.7444 -0.4181  0.7733
  447TIP3    H122832   5.675   5.698   6.327  0.5894 -0.2679  0.6818
  447TIP3    H222833   5.744   5.583   6.257  0.2411 -0.7091  1.0554
  448TIP3   OH222834   5.655   6.398  12.331 -0.6384  0.1171 -0.2711
  448TIP3    H122835   5.674   6.337  12.259 -0.3398  0.0027 -0.0989
  448TIP3    H222836   5.570   6.436  12.309 -0.8432 -0.3879 -0.3679
  449TIP3   OH222837   5.646   0.787   2.870  0.1027 -0.1405 -0.5835
  449TIP3    H122838   5.724   0.839   2.850 -0.6692  1.5782  0.5835
  449TIP3    H222839   5.619   0.751   2.786  2.3486 -1.1202 -0.9597
  450TIP3   OH222840   1.355   2.535   5.997  0.5421 -0.1849 -0.1951
  450TIP3    H122841   1.432   2.585   6.025  1.1271 -0.4240 -1.3368
  450TIP3    H222842   1.298   2.599   5.955  0.0639  0.0030  0.6983
  451TIP3   OH222843   1.739   2.276  16.093 -0.3931  1.0781 -0.0060
  451TIP3    H122844   1.707   2.275  16.002 -2.1912 -0.4674  0.5562
  451TIP3    H222845   1.704   2.195  16.130 -0.4263  2.0847  2.3048
  452TIP3   OH222846   5.692   2.135   4.783 -0.9047  0.2550 -0.6653
  452TIP3    H122847   5.622   2.079   4.748  0.0606 -0.7807 -0.9700
  452TIP3    H222848   5.755   2.074   4.822  0.5851  1.0477 -1.7486
  453TIP3   OH222849   1.011   5.661   4.299 -0.3046 -0.3914 -0.5843
  453TIP3    H122850   0.982   5.676   4.389 -0.8684 -1.5000 -0.5639
  453TIP3    H222851   0.930   5.650   4.250  0.0302 -1.7831 -0.8584
  454TIP3   OH222852   5.746   3.599  14.474  0.4029 -0.0680 -0.0536
  454TIP3    H122853   5.759   3.504  14.475 -1.2175 -0.3193  0.6806
  454TIP3    H222854   5.810   3.631  14.411  0.8860 -1.6641 -0.4296
  455TIP3   OH222855   2.300   5.894   4.202  0.9494 -0.1395 -0.0707
  455TIP3    H122856   2.330   5.803   4.206  2.1873  0.2066 -0.7768
  455TIP3    H222857   2.305   5.924   4.292 -1.7438 -1.4136  0.5953
  456TIP3   OH222858   3.156   0.149  11.903 -0.2616  0.7717  0.0079
  456TIP3    H122859   3.114   0.185  11.825  1.7258 -0.1565 -1.5916
  456TIP3    H222860   3.219   0.216  11.929 -1.3615  1.3672  1.2857
  457TIP3   OH222861   2.453   4.659   1.722 -0.2945 -0.2566 -0.2260
  457TIP3    H122862   2.511   4.653   1.798  1.2494  1.0524 -1.2350
  457TIP3    H222863   2.511   4.684   1.650 -2.0177  0.4135 -1.4330
  458TIP3   OH222864   6.557   3.241   0.092 -0.4375 -0.2321  0.2260
  458TIP3    H122865   6.548   3.236  -0.003  1.3767  0.3290 -0.0167
  458TIP3    H222866   6.565   3.150   0.120 -0.5466 -0.3796 -0.2077
  459TIP3   OH222867   0.509   2.975  10.873  0.1013 -0.2323  0.0486
  459TIP3    H122868   0.560   3.017  10.803 -0.2540  0.9457  0.4720
  459TIP3    H222869   0.550   2.890  10.884  0.5381 -0.2141 -1.1969
  460TIP3   OH222870   1.998   6.118  12.388 -0.0714 -0.0069  0.7913
  460TIP3    H122871   1.952   6.080  12.312  1.3876  0.3154 -0.2852
  460TIP3    H222872   1.996   6.048  12.454  0.7245 -1.2249 -0.4085
  461TIP3   OH222873   5.694   5.893   4.696  0.3375  0.6997  0.4219
  461TIP3    H122874   5.654   5.906   4.782 -2.2770  1.3955 -0.8255
  461TIP3    H222875   5.730   5.979   4.673  0.7466  0.5934  0.6423
  462TIP3   OH222876   3.016   1.860   1.248 -0.6556  0.0547 -0.0993
  462TIP3    H122877   2.971   1.857   1.164 -1.4191 -0.4322  0.3130
  462TIP3    H222878   3.103   1.894   1.228  0.3928 -3.0946 -1.6173
  463TIP3   OH222879   3.720   1.717   0.196 -0.5291  0.0643  0.1465
  463TIP3    H122880   3.665   1.646   0.164 -0.4935  0.6175 -1.1840
  463TIP3    H222881   3.761   1.754   0.118  0.4756  0.7095  0.9436
  464TIP3   OH222882   3.948   4.303  14.077 -0.3658  0.6071  0.1110
  464TIP3    H122883   3.875   4.339  14.028 -0.4536 -0.2502 -0.4149
  464TIP3    H222884   3.933   4.332  14.167 -1.3932  0.4036  0.0240
  465TIP3   OH222885   1.531   4.644  14.820  0.3905  0.0758 -0.1654
  465TIP3    H122886   1.611   4.644  14.872 -1.4515  0.9670  2.9660
  465TIP3    H222887   1.503   4.553  14.819  1.3138 -0.2201 -1.1683
  466TIP3   OH222888   3.069   4.589   0.608 -0.1510  0.1547 -0.6729
  466TIP3    H122889   3.145   4.620   0.558 -0.3652  0.3201 -0.8989
  466TIP3    H222890   3.035   4.516   0.558  0.0886 -0.1663 -0.3692
  467TIP3   OH222891   0.773   3.688  15.833  0.0135 -0.2132 -0.5493
  467TIP3    H122892   0.729   3.722  15.911  1.9508  0.2024  0.4343
  467TIP3    H222893   0.738   3.740  15.761  0.6181  1.7733  0.5172
  468TIP3   OH222894   1.764   5.060   1.098 -0.1666 -0.2813  0.0644
  468TIP3    H122895   1.728   4.973   1.115 -1.2780 -0.2950 -2.0681
  468TIP3    H222896   1.857   5.051   1.117 -0.5949 -1.2953  2.0262
  469TIP3   OH222897   5.928   6.062   1.808 -0.4377 -0.4633  0.7452
  469TIP3    H122898   5.939   5.996   1.739 -0.0537  1.1936 -0.8562
  469TIP3    H222899   5.850   6.034   1.856 -0.2574 -2.0923  0.1532
  470TIP3   OH222900   4.948   4.180   1.878  0.9509 -0.3715  0.0802
  470TIP3    H122901   4.943   4.092   1.840  2.1192  0.4543 -2.1603
  470TIP3    H222902   4.859   4.198   1.909  0.4050 -1.8438 -0.5710
  471TIP3   OH222903   2.926   6.685  10.478  0.5521 -0.8389 -0.6837
  471TIP3    H122904   2.966   6.765  10.442  0.6615 -0.8392 -0.5650
  471TIP3    H222905   2.998   6.622  10.483  0.1166 -1.5218 -2.4179
  472TIP3   OH222906   0.520   6.758  14.870  0.2565 -0.4426  0.2808
  472TIP3    H122907   0.564   6.764  14.785  1.6594 -0.2558  0.9788
  472TIP3    H222908   0.585   6.718  14.928 -1.4733 -2.7342  0.7650
  473TIP3   OH222909   3.727   6.615  15.820  0.3391 -0.0474  0.4692
  473TIP3    H122910   3.657   6.595  15.882  0.5018 -1.2116  0.3105
  473TIP3    H222911   3.784   6.676  15.867 -0.9667  1.2265  0.4463
  474TIP3   OH222912   4.478   3.648  12.476 -0.1400 -0.1240  0.0977
  474TIP3    H122913   4.515   3.734  12.497  2.0084 -0.7548 -0.9257
  474TIP3    H222914   4.431   3.662  12.393  0.7637 -0.0722 -0.4112
  475TIP3   OH222915   1.343   5.124  10.647 -0.1869 -0.0769 -0.0582
  475TIP3    H122916   1.261   5.085  10.679  0.0836  1.1827  2.4484
  475TIP3    H222917   1.412   5.074  10.690  0.3435 -0.4105 -1.2697
  476TIP3   OH222918   2.066   4.185   5.927  0.3378 -0.2773 -0.4856
  476TIP3    H122919   2.147   4.135   5.930 -1.1214 -2.7880  0.1821
  476TIP3    H222920   2.038   4.192   6.019  0.6193  2.1334 -0.5063
  477TIP3   OH222921   3.069   3.453   1.952  0.2919 -0.1787  0.7046
  477TIP3    H122922   3.015   3.374   1.947  1.1353 -0.7331  0.0173
  477TIP3    H222923   3.024   3.516   1.896 -0.6361  0.0063  1.6184
  478TIP3   OH222924   1.598   1.407  13.613 -0.4955 -0.1402 -0.1796
  478TIP3    H122925   1.589   1.431  13.705 -0.1632  0.6327 -0.3451
  478TIP3    H222926   1.692   1.412  13.596 -0.5692 -0.1527 -0.6004
  479TIP3   OH222927   2.553   5.278  14.950  0.1819 -0.6152  0.0688
  479TIP3    H122928   2.646   5.260  14.962  0.5119 -0.7610 -2.1786
  479TIP3    H222929   2.535   5.353  15.006  1.3093 -1.3838  1.5389
  480TIP3   OH222930   0.948   1.962   2.696  0.1795 -0.2589  0.0412
  480TIP3    H122931   0.948   1.941   2.790 -0.9118 -3.6869 -0.5852
  480TIP3    H222932   1.041   1.964   2.672  0.5159  1.4333  1.2494
  481TIP3   OH222933   5.205   2.584   2.193 -0.6238  0.1535 -0.4244
  481TIP3    H122934   5.236   2.537   2.270  0.5622  1.4918 -0.0311
  481TIP3    H222935   5.110   2.577   2.197 -0.5132 -1.7831 -0.1537
  482TIP3   OH222936   5.465   2.307   5.422  0.7838 -0.7748  0.4559
  482TIP3    H122937   5.436   2.302   5.513  1.8356  0.9009  0.9339
  482TIP3    H222938   5.442   2.396   5.394 -0.6261 -1.6337 -1.3441
  483TIP3   OH222939   6.761   1.020  16.347  0.0159 -0.1853  0.1961
  483TIP3    H122940   6.758   1.075  16.269 -1.6594 -1.3365 -0.5966
  483TIP3    H222941   6.776   0.932  16.314 -2.8721 -1.0421  0.9279
  484TIP3   OH222942   5.637   2.691   0.079 -0.1852 -0.5487 -0.1802
  484TIP3    H122943   5.565   2.747   0.051  0.4316 -0.0421 -0.7840
  484TIP3    H222944   5.705   2.704   0.013  1.3893  0.7836  1.6068
  485TIP3   OH222945   1.129   0.406  16.994 -0.5764 -0.8225  0.1061
  485TIP3    H122946   1.143   0.330  17.050 -1.1346 -0.0786  1.2736
  485TIP3    H222947   1.127   0.481  17.053 -0.0227  0.1223 -1.0200
  486TIP3   OH222948   2.701   6.688  16.502  0.6666 -0.3934 -0.0954
  486TIP3    H122949   2.760   6.670  16.575 -0.9492 -1.7580  0.9116
  486TIP3    H222950   2.660   6.604  16.482 -1.2434  0.5801 -0.4994
  487TIP3   OH222951   3.338   5.779   4.267 -0.8276 -0.2497 -0.3231
  487TIP3    H122952   3.251   5.817   4.257 -0.6499 -0.0082 -1.0763
  487TIP3    H222953   3.355   5.780   4.361 -1.8015 -0.6860 -0.1352
  488TIP3   OH222954   3.441   2.328  14.298  0.2831 -0.3866 -0.2604
  488TIP3    H122955   3.436   2.248  14.352  2.1878 -0.0076  0.5796
  488TIP3    H222956   3.463   2.296  14.211 -0.1237 -0.8396 -0.2050
  489TIP3   OH222957   1.933   2.515  12.386 -0.6082 -0.7403 -0.3344
  489TIP3    H122958   1.992   2.572  12.338 -0.9225 -0.7935 -0.7900
  489TIP3    H222959   1.891   2.461  12.319 -0.6290 -1.2118  0.0491
  490TIP3   OH222960   2.010   6.594  12.154  0.4439  0.1677 -0.0474
  490TIP3    H122961   1.999   6.593  12.249 -0.5109  0.8658 -0.1310
  490TIP3    H222962   2.103   6.613  12.141  0.5327  0.3203  0.7484
  491TIP3   OH222963   6.623   5.629   3.732  0.5789 -0.2114  0.4226
  491TIP3    H122964   6.534   5.611   3.762  1.2004 -1.4246  1.6601
  491TIP3    H222965   6.669   5.659   3.811  1.1830  0.7230 -0.2743
  492TIP3   OH222966   4.756   0.737   4.484  0.1472  0.6240  0.7277
  492TIP3    H122967   4.689   0.710   4.547 -0.3582 -0.6823 -0.3262
  492TIP3    H222968   4.830   0.679   4.502  0.5564  1.2338  1.0625
  493TIP3   OH222969   3.159   5.798   0.629  0.3808 -0.2523  0.0029
  493TIP3    H122970   3.083   5.829   0.677  1.5269  1.8656  0.5696
  493TIP3    H222971   3.125   5.776   0.542 -0.9154  0.3497  0.3320
  494TIP3   OH222972   0.545   1.981   1.088  0.3866 -0.2960 -0.2760
  494TIP3    H122973   0.630   2.023   1.077  0.2087  0.0827 -0.2149
  494TIP3    H222974   0.552   1.936   1.172 -0.1000  1.2717  0.6391
  495TIP3   OH222975   0.607   2.562   6.241 -0.1999 -0.3862  0.3997
  495TIP3    H122976   0.694   2.592   6.268  0.5985 -1.3205 -0.9780
  495TIP3    H222977   0.546   2.615   6.291  1.1599  1.5839  0.0651
  496TIP3   OH222978   2.408   6.654   0.915  0.0530 -0.3677 -0.0983
  496TIP3    H122979   2.493   6.663   0.958 -0.0977 -1.4478  0.4515
  496TIP3    H222980   2.344   6.660   0.985 -0.3295  0.3137 -0.4947
  497TIP3   OH222981   2.639   5.609  12.337  0.5745  0.6411  0.7371
  497TIP3    H122982   2.733   5.601  12.353  0.6934  0.8715  0.1692
  497TIP3    H222983   2.621   5.702  12.346 -0.0090  0.3497  2.9951
  498TIP3   OH222984   4.885   3.560  16.658  0.6878 -0.4405 -0.0441
  498TIP3    H122985   4.936   3.622  16.710 -0.2466 -0.5676  1.0787
  498TIP3    H222986   4.924   3.474  16.678  0.2768 -0.4980  0.5200
  499TIP3   OH222987   1.611   5.065   3.675  0.3175 -0.1324 -0.3670
  499TIP3    H122988   1.689   5.075   3.730  0.4236  1.8829 -0.8185
  499TIP3    H222989   1.620   5.133   3.608 -0.7653 -1.2902 -1.7535
  500TIP3   OH222990   1.765   2.758  11.328  0.0405 -0.2229 -0.5092
  500TIP3    H122991   1.705   2.685  11.314 -0.7360  0.1730  0.6262
  500TIP3    H222992   1.826   2.753  11.255 -0.2531 -1.7501 -0.6797
  501TIP3   OH222993   4.112   0.261  15.998  0.1211 -0.2041  0.1291
  501TIP3    H122994   4.087   0.292  15.912 -1.2741  1.1597  0.9783
  501TIP3    H222995   4.169   0.186  15.981 -1.9581 -1.4364 -1.9380
  502TIP3   OH222996   6.244   1.205   3.333 -0.0457 -0.1079  0.1038
  502TIP3    H122997   6.156   1.226   3.365  0.4008  0.0735  1.2747
  502TIP3    H222998   6.282   1.150   3.402  1.5555  1.6684  0.7360
  503TIP3   OH222999   4.092   0.467  12.423  0.0268 -0.1738  0.3268
  503TIP3    H123000   4.025   0.500  12.364  0.0167 -1.0288 -0.1588
  503TIP3    H223001   4.046   0.450  12.505 -0.1131  0.3079  0.3504
  504TIP3   OH223002   2.506   1.534  13.544  1.3208  0.4839 -0.0764
  504TIP3    H123003   2.435   1.595  13.566 -0.2186 -1.5321  0.8746
  504TIP3    H223004   2.534   1.498  13.628 -0.4916 -2.8927 -0.7463
  505TIP3   OH223005   5.428   5.342  12.383 -0.7987 -0.2112  0.1729
  505TIP3    H123006   5.500   5.280  12.375 -1.1235 -0.4707 -0.9261
  505TIP3    H223007   5.460   5.409  12.445  0.2194 -0.5304  0.0042
  506TIP3   OH223008   1.727   3.903  17.226  0.4770  0.2947 -0.4188
  506TIP3    H123009   1.754   3.815  17.201 -1.6882 -0.8408  0.9504
  506TIP3    H223010   1.663   3.928  17.160 -0.4410 -0.0440  0.3210
  507TIP3   OH223011   2.993   6.493  16.020 -0.4755 -0.2811  0.0548
  507TIP3    H123012   3.082   6.484  16.053 -0.8965 -1.1709  1.0380
  507TIP3    H223013   2.965   6.580  16.051  0.9051  1.2023 -2.5510
  508TIP3   OH223014   3.466   0.926  10.752 -0.5441 -0.0514  0.7568
  508TIP3    H123015   3.547   0.965  10.786  0.4328 -0.9515 -0.4416
  508TIP3    H223016   3.442   0.980  10.678  0.4458 -1.2376 -0.4961
  509TIP3   OH223017   4.662   3.529  15.516 -0.4234  0.0458  0.3471
  509TIP3    H123018   4.720   3.453  15.510  0.6576  0.8970 -0.1193
  509TIP3    H223019   4.626   3.540  15.428  1.5375  1.6864 -0.3107
  510TIP3   OH223020   0.073   4.008  12.134  0.5627  1.1438 -0.0075
  510TIP3    H123021   0.105   3.933  12.185 -0.7310 -0.9046 -1.9976
  510TIP3    H223022   0.035   4.067  12.199  1.7631  0.1633  1.6608
  511TIP3   OH223023   5.793   6.163   4.677  0.3248 -0.3129 -1.1622
  511TIP3    H123024   5.745   6.245   4.678  0.1049 -0.4396 -1.0064
  511TIP3    H223025   5.815   6.147   4.769 -1.9017 -1.7258 -0.8135
  512TIP3   OH223026   4.226   5.010   5.426  0.4089  0.1181 -0.0295
  512TIP3    H123027   4.212   5.048   5.339 -0.0650  0.4771  0.2015
  512TIP3    H223028   4.294   4.943   5.412  1.2126  0.9953 -0.4430
  513TIP3   OH223029   4.048   6.439  15.929 -0.3247 -0.4998  0.4089
  513TIP3    H123030   3.967   6.474  15.965  0.1464  1.8922 -0.6161
  513TIP3    H223031   4.098   6.411  16.005 -0.8638  0.9137  1.3237
  514TIP3   OH223032   3.171   0.380  14.992  0.1341 -0.4200  0.7580
  514TIP3    H123033   3.218   0.345  15.068  1.1295 -0.7810 -0.0112
  514TIP3    H223034   3.194   0.473  14.990  3.1090 -1.0796 -1.1788
  515TIP3   OH223035   3.853   3.594  16.839 -0.4503 -0.2260 -0.6509
  515TIP3    H123036   3.795   3.532  16.883  0.8547 -1.5602 -0.7530
  515TIP3    H223037   3.939   3.577  16.875  0.3770 -0.2447 -2.5199
  516TIP3   OH223038   6.201   4.849  14.621  0.2367  0.4556  0.5974
  516TIP3    H123039   6.124   4.863  14.675  0.6066  0.1721  1.2041
  516TIP3    H223040   6.214   4.754  14.621 -0.4708  0.3227 -0.9987
  517TIP3   OH223041   4.288   0.106   2.562 -0.4019 -0.0180  0.6210
  517TIP3    H123042   4.198   0.130   2.582 -0.5017  1.2064 -1.0710
  517TIP3    H223043   4.282   0.055   2.481  0.5773  2.6923 -1.2938
  518TIP3   OH223044   1.646   6.366   3.806 -0.4792  0.0699 -0.1075
  518TIP3    H123045   1.622   6.373   3.714  1.9699  0.8874 -0.7407
  518TIP3    H223046   1.663   6.273   3.820  0.1865  0.0770 -0.7906
  519TIP3   OH223047   1.308   6.023   0.205  0.4560  0.2532  0.1182
  519TIP3    H123048   1.276   6.078   0.133 -0.1165  0.2628  0.3779
  519TIP3    H223049   1.319   6.084   0.278  0.2470  0.0980  0.2783
  520TIP3   OH223050   4.328   0.050   5.365 -0.0195 -0.1980 -0.0749
  520TIP3    H123051   4.266   0.122   5.376 -1.2055 -1.3325  0.9645
  520TIP3    H223052   4.411   0.093   5.345 -0.8394  1.4243 -0.1428
  521TIP3   OH223053   2.652   2.562  12.842  0.0150  0.1013 -0.4459
  521TIP3    H123054   2.701   2.622  12.897 -0.2115  0.2634 -0.4222
  521TIP3    H223055   2.561   2.583  12.859 -0.0661  1.4297 -2.2775
  522TIP3   OH223056   0.515   6.125   3.076 -0.2935 -0.5792 -0.6442
  522TIP3    H123057   0.579   6.160   3.137  1.0460 -1.7616 -1.3188
  522TIP3    H223058   0.510   6.190   3.006 -0.5112 -0.0646 -0.1592
  523TIP3   OH223059   3.989   4.097  15.967 -0.1679 -0.0117  0.4468
  523TIP3    H123060   3.895   4.078  15.966 -0.0048 -0.9244  1.3877
  523TIP3    H223061   4.031   4.014  15.944  0.4394  0.1026  1.1034
  524TIP3   OH223062   3.587   3.324   0.882  0.2050 -0.3480  0.1609
  524TIP3    H123063   3.521   3.322   0.813  0.9993 -1.5453 -0.6013
  524TIP3    H223064   3.575   3.241   0.929  2.0603 -1.2734 -0.8900
  525TIP3   OH223065   2.232   3.547  16.928  0.4910 -0.3177 -0.3881
  525TIP3    H123066   2.240   3.490  16.851 -2.4268 -1.9665  0.3673
  525TIP3    H223067   2.221   3.487  17.001  1.0588  1.2500  1.0538
  526TIP3   OH223068   1.792   0.652   2.031 -0.4748 -0.8440  0.3232
  526TIP3    H123069   1.875   0.667   2.077 -0.8732  0.0190  0.8023
  526TIP3    H223070   1.769   0.738   1.995 -1.2452 -1.0231  0.3654
  527TIP3   OH223071   3.495   3.764  13.445  0.1261  0.3614 -0.1413
  527TIP3    H123072   3.512   3.858  13.439 -0.0605  0.4400  0.5134
  527TIP3    H223073   3.493   3.745  13.539 -3.3940  0.3626 -0.0718
  528TIP3   OH223074   4.091   5.875   4.475  0.1589  0.0140  0.1317
  528TIP3    H123075   4.096   5.779   4.473 -1.3783 -0.0756 -0.7052
  528TIP3    H223076   4.145   5.903   4.401 -2.0794 -0.3980 -1.7475
  529TIP3   OH223077   5.188   4.052   5.604 -0.1578  0.2995 -0.2549
  529TIP3    H123078   5.109   4.003   5.629 -0.5172  0.8246 -0.3488
  529TIP3    H223079   5.174   4.140   5.640  0.6508  0.2327  0.2335
  530TIP3   OH223080   3.040   3.913   5.508  0.0676 -0.2357  0.0206
  530TIP3    H123081   3.084   3.875   5.584 -1.6858 -0.0460  1.1701
  530TIP3    H223082   3.025   4.004   5.532 -1.2154 -0.3725 -0.2082
  531TIP3   OH223083   1.877   2.540  14.186  0.2404  0.2004  0.4137
  531TIP3    H123084   1.892   2.446  14.194 -0.9041  0.1451  2.4154
  531TIP3    H223085   1.828   2.549  14.104  0.0119 -0.9897  0.3957
  532TIP3   OH223086   6.183   0.367  17.310  0.0531 -0.6147  0.7640
  532TIP3    H123087   6.259   0.397  17.260 -0.0144 -1.1298  0.3392
  532TIP3    H223088   6.152   0.445  17.355 -0.8950  0.2944 -1.3266
  533TIP3   OH223089   4.921   3.224  11.999 -0.1514 -0.1113  0.0690
  533TIP3    H123090   5.016   3.224  11.990  0.0283  1.7789  1.3189
  533TIP3    H223091   4.896   3.316  11.990 -1.9395 -0.6346 -0.7273
  534TIP3   OH223092   4.007   0.532   5.039  0.5017  0.1300 -0.0569
  534TIP3    H123093   4.052   0.603   5.086  1.0297  0.2938 -0.7852
  534TIP3    H223094   4.078   0.482   4.998  0.2865 -1.8866  1.8391
  535TIP3   OH223095   3.037   5.386   3.168  0.1072 -0.2033  0.5347
  535TIP3    H123096   3.019   5.326   3.241  0.2589  0.2718  0.9663
  535TIP3    H223097   2.972   5.363   3.102 -1.5523  0.8782  1.7123
  536TIP3   OH223098   5.170   5.162  16.517  0.6214  0.0081 -0.0366
  536TIP3    H123099   5.125   5.078  16.529  1.4686 -0.2287  1.9280
  536TIP3    H223100   5.131   5.200  16.439 -1.8750 -0.8749  0.7100
  537TIP3   OH223101   4.426   5.155  17.016  0.1827 -0.1248  0.4752
  537TIP3    H123102   4.384   5.100  16.951  0.4588 -1.6508  1.5431
  537TIP3    H223103   4.511   5.177  16.978  0.8748 -2.0659  0.8119
  538TIP3   OH223104   3.332   0.094  13.132  0.1601  0.1925 -0.3708
  538TIP3    H123105   3.279   0.153  13.185  1.3155  0.5642  0.3940
  538TIP3    H223106   3.357   0.024  13.191 -1.1213 -1.0661 -1.2483
  539TIP3   OH223107   5.347   4.041  16.273 -0.5469  0.3666 -0.2852
  539TIP3    H123108   5.334   3.946  16.273  1.6351 -0.0559  2.1235
  539TIP3    H223109   5.440   4.052  16.254 -0.8570  2.0873 -0.9848
  540TIP3   OH223110   0.005   2.870   2.180  0.3046 -0.1002 -0.6587
  540TIP3    H123111  -0.004   2.900   2.090 -1.7728 -0.7468 -0.7359
  540TIP3    H223112  -0.039   2.937   2.233  1.3240  0.1741 -0.1380
  541TIP3   OH223113   3.398   6.403  16.636  0.1690  0.5859  0.1886
  541TIP3    H123114   3.477   6.348  16.635  0.5782  1.1588 -0.8553
  541TIP3    H223115   3.426   6.485  16.595 -1.0115  0.7447 -0.3313
  542TIP3   OH223116   0.462   4.952   1.020 -0.1309 -0.0719 -0.8363
  542TIP3    H123117   0.442   5.039   0.985 -0.0948 -0.0898 -0.9029
  542TIP3    H223118   0.470   4.897   0.942 -0.4433 -0.1983 -0.7796
  543TIP3   OH223119   4.784   2.175  15.960 -0.3640 -0.1138  0.3911
  543TIP3    H123120   4.754   2.225  16.037  2.2735  0.3235  1.2168
  543TIP3    H223121   4.831   2.101  15.997  0.5853 -0.1310 -0.8177
  544TIP3   OH223122   3.450   1.764  14.131  0.4783 -0.0709 -0.1627
  544TIP3    H123123   3.416   1.849  14.103  0.9671 -0.0031 -0.5722
  544TIP3    H223124   3.382   1.702  14.106  0.3875  0.1310 -0.4286
  545TIP3   OH223125   4.631   2.162   5.588 -0.4289 -0.2061  0.1784
  545TIP3    H123126   4.536   2.148   5.596 -0.6665 -0.8802 -2.6062
  545TIP3    H223127   4.669   2.076   5.601 -0.4127 -0.3331 -0.6238
  546TIP3   OH223128   1.370   6.268  14.353  0.5260  0.3599 -0.1999
  546TIP3    H123129   1.295   6.328  14.347  0.3548  0.0741 -1.1069
  546TIP3    H223130   1.345   6.194  14.297  0.2566 -1.0921  1.7278
  547TIP3   OH223131   6.274   5.162  12.829 -0.2315  0.0757 -0.3034
  547TIP3    H123132   6.325   5.201  12.758  1.5282  1.2588  1.4766
  547TIP3    H223133   6.183   5.185  12.809  0.4141  2.1324 -1.1476
  548TIP3   OH223134   2.391   5.503  15.607  0.1335 -0.2722  0.5130
  548TIP3    H123135   2.427   5.455  15.682  0.1212  0.9099  1.3060
  548TIP3    H223136   2.449   5.579  15.597 -1.1196  0.7399  0.7169
  549TIP3   OH223137   3.692   4.887   5.684  0.1399 -0.4206  0.1252
  549TIP3    H123138   3.611   4.876   5.634 -0.0860 -0.4081  0.4835
  549TIP3    H223139   3.737   4.961   5.641  1.5418 -2.4252 -2.1201
  550TIP3   OH223140   0.151   0.571  12.134  0.3594 -0.2314  0.0321
  550TIP3    H123141   0.206   0.644  12.108 -1.2623  2.0365  2.4827
  550TIP3    H223142   0.087   0.563  12.063 -0.8924  2.4297  0.7446
  551TIP3   OH223143   6.383   0.349   0.206 -0.4404  0.1788 -0.0958
  551TIP3    H123144   6.341   0.312   0.129  0.4065  0.7879 -0.8652
  551TIP3    H223145   6.461   0.394   0.173  0.6350 -0.6055  1.2502
  552TIP3   OH223146   4.015   3.806  16.745  0.0483  0.7142  0.2016
  552TIP3    H123147   3.947   3.740  16.754  2.9726 -2.5726  0.5452
  552TIP3    H223148   4.037   3.831  16.834 -0.5763  1.7101  0.0955
  553TIP3   OH223149   5.939   0.912  11.346  0.1080 -0.1909 -0.4386
  553TIP3    H123150   5.962   0.936  11.436 -2.2443  1.6360 -0.2473
  553TIP3    H223151   5.905   0.823  11.352 -0.4796  0.0928  0.5795
  554TIP3   OH223152   6.374   2.277  15.782  0.1635 -0.4932 -0.4039
  554TIP3    H123153   6.364   2.186  15.753  0.4460 -0.9668  0.9195
  554TIP3    H223154   6.466   2.297  15.767 -0.1611  0.0317 -1.8887
  555TIP3   OH223155   5.016   0.663   3.333 -0.2336  0.6645 -0.1896
  555TIP3    H123156   5.070   0.718   3.389  0.6611  0.3480 -0.7262
  555TIP3    H223157   4.945   0.633   3.391  1.7451 -1.2945  1.3841
  556TIP3   OH223158   3.448   5.566  10.989 -0.1248  0.0930  0.0139
  556TIP3    H123159   3.531   5.520  11.003  0.2942  0.2734 -1.7446
  556TIP3    H223160   3.471   5.658  10.986 -0.4753  0.1860  0.0521
  557TIP3   OH223161   5.373   0.184   2.703  0.5918  0.0473 -0.7001
  557TIP3    H123162   5.427   0.108   2.724  0.1867 -0.1518 -0.3707
  557TIP3    H223163   5.289   0.166   2.744  0.2627  0.3404 -1.2330
  558TIP3   OH223164   3.236   0.643  16.041 -0.0302  0.1576 -0.9088
  558TIP3    H123165   3.273   0.701  16.108 -1.7799  2.1909 -1.5693
  558TIP3    H223166   3.192   0.575  16.091 -3.6803  3.0896  0.3871
  559TIP3   OH223167   1.800   1.236   2.467  0.4171  0.8745  0.1210
  559TIP3    H123168   1.707   1.251   2.452  0.6955  1.6590 -1.0045
  559TIP3    H223169   1.844   1.307   2.419  1.6364 -0.2873 -0.5561
  560TIP3   OH223170   0.367   6.447  13.971  0.5793  0.5810 -0.1107
  560TIP3    H123171   0.411   6.530  13.956 -0.4149  1.4514  1.4954
  560TIP3    H223172   0.387   6.425  14.062  0.9439 -1.0341 -0.5523
  561TIP3   OH223173   1.251   5.894  10.685 -0.1784  1.0070  0.2039
  561TIP3    H123174   1.247   5.799  10.679 -1.1885  1.0142  0.5620
  561TIP3    H223175   1.196   5.924  10.612 -0.0053  1.3150  0.2007
  562TIP3   OH223176   1.523   3.666   2.677 -0.0692  0.4200  0.9039
  562TIP3    H123177   1.553   3.742   2.627 -1.0557  0.8244  0.9021
  562TIP3    H223178   1.602   3.633   2.720  0.2995  1.7246  1.2781
  563TIP3   OH223179   1.270   2.580  15.560 -0.4668 -0.1107  0.3952
  563TIP3    H123180   1.250   2.668  15.531 -0.8448  0.4199  2.1705
  563TIP3    H223181   1.365   2.580  15.574 -0.3375 -0.2622 -0.4564
  564TIP3   OH223182   4.876   2.522  15.758  0.2823  0.4230 -0.0659
  564TIP3    H123183   4.936   2.458  15.719 -0.6527 -0.6395  0.1836
  564TIP3    H223184   4.916   2.544  15.843  0.8505  0.5527 -0.3594
  565TIP3   OH223185   5.153   1.266  12.772  0.2679 -0.1648 -0.6438
  565TIP3    H123186   5.110   1.352  12.774 -0.3742 -0.4807 -0.4375
  565TIP3    H223187   5.224   1.273  12.836  0.3589  0.2846 -0.7919
  566TIP3   OH223188   4.260   0.271   1.421  0.2771 -0.2160 -0.3046
  566TIP3    H123189   4.255   0.365   1.441  2.5447 -0.4310  1.7194
  566TIP3    H223190   4.270   0.268   1.326 -0.4408  1.5595 -0.4813
  567TIP3   OH223191   2.636   5.589   0.958  0.1490 -0.2544  0.0062
  567TIP3    H123192   2.578   5.619   1.028  0.0745 -1.1218  0.3279
  567TIP3    H223193   2.684   5.515   0.996  3.0137  1.6854  0.4688
  568TIP3   OH223194   6.489   3.996  14.695 -0.6065  0.0914  0.4866
  568TIP3    H123195   6.540   4.037  14.765  3.2209 -1.2099 -1.2338
  568TIP3    H223196   6.474   4.067  14.632  2.3472 -0.0525 -0.5566
  569TIP3   OH223197   1.417   5.522  11.292 -0.7261  0.1599  0.3090
  569TIP3    H123198   1.342   5.533  11.350 -1.0470  1.6938 -0.3547
  569TIP3    H223199   1.482   5.583  11.326  0.4281 -1.4376  1.1252
  570TIP3   OH223200   4.660   2.870  12.741  0.7126  0.0967 -0.2911
  570TIP3    H123201   4.623   2.919  12.814 -1.0233 -2.2798  0.5294
  570TIP3    H223202   4.587   2.857  12.681  1.4770 -0.2807 -1.1700
  571TIP3   OH223203   0.543   2.068   2.204  0.1489 -0.7370  0.7322
  571TIP3    H123204   0.517   2.001   2.142 -1.4730  1.9632 -1.7627
  571TIP3    H223205   0.626   2.102   2.170  0.5931 -0.9339  1.5679
  572TIP3   OH223206   5.535   5.311   5.366  0.1441  0.3507  0.6381
  572TIP3    H123207   5.517   5.362   5.445  3.1684  0.2825  1.4845
  572TIP3    H223208   5.534   5.375   5.296 -3.4291  0.2907  0.4347
  573TIP3   OH223209   5.981   4.521   2.355 -0.1288  0.6859 -0.1286
  573TIP3    H123210   6.023   4.590   2.406 -0.4472 -0.4552  1.7366
  573TIP3    H223211   6.053   4.465   2.326 -0.1231 -0.1710  1.4194
  574TIP3   OH223212   4.414   5.333  16.761 -0.0250  0.3301 -0.3094
  574TIP3    H123213   4.486   5.272  16.769 -1.9159 -1.9644  0.4503
  574TIP3    H223214   4.429   5.397  16.831  0.5601 -0.9060  0.7295
  575TIP3   OH223215   0.325   1.791  14.514  0.3325 -0.1890  0.0695
  575TIP3    H123216   0.264   1.824  14.447  1.9420  0.8737 -0.9286
  575TIP3    H223217   0.407   1.779  14.467  1.0199 -1.2250  1.4801
  576TIP3   OH223218   4.128   4.110   3.422 -0.3068 -0.7707  0.7830
  576TIP3    H123219   4.056   4.134   3.364 -0.3545  0.1427  1.1992
  576TIP3    H223220   4.207   4.124   3.371 -0.3012  0.8996  1.1971
  577TIP3   OH223221   0.326   2.184  16.110 -0.2089 -0.3342  0.3881
  577TIP3    H123222   0.321   2.098  16.069  0.0286  0.2378 -0.8700
  577TIP3    H223223   0.401   2.178  16.169  0.8149 -0.4941 -0.9073
  578TIP3   OH223224   6.558   4.265   3.902 -0.5413 -0.0555  0.1821
  578TIP3    H123225   6.584   4.239   3.813  1.5591 -2.2492  1.3043
  578TIP3    H223226   6.557   4.360   3.900  0.7063 -0.0176 -1.8993
  579TIP3   OH223227   5.148   2.423  15.107  0.2036 -0.0508  0.6291
  579TIP3    H123228   5.063   2.467  15.108  0.3350  0.2554 -0.4643
  579TIP3    H223229   5.128   2.333  15.081  0.4429  0.6699 -2.3882
  580TIP3   OH223230   5.188   0.490  10.503 -0.1112  0.3330 -0.7629
  580TIP3    H123231   5.236   0.532  10.573  0.0425  1.2446 -1.3950
  580TIP3    H223232   5.097   0.517  10.517 -0.3428 -0.7960  0.0078
  581TIP3   OH223233   0.819   1.515   5.355  0.2214 -0.3805 -0.2607
  581TIP3    H123234   0.872   1.462   5.415  0.6421  0.8073  0.4549
  581TIP3    H223235   0.733   1.474   5.357  1.0065 -2.1972 -1.2351
  582TIP3   OH223236   1.420   2.826  13.363 -0.0311  0.0540 -0.1322
  582TIP3    H123237   1.359   2.836  13.436  0.7414 -1.0471  0.6804
  582TIP3    H223238   1.460   2.912  13.353 -0.9968  0.5278 -0.0488
  583TIP3   OH223239   5.209   5.661  16.788 -0.2845  0.0532  0.2465
  583TIP3    H123240   5.126   5.657  16.836 -0.1398  3.1053  0.9458
  583TIP3    H223241   5.218   5.753  16.764  2.2619 -0.4516 -1.0075
  584TIP3   OH223242   3.769   4.336  11.496 -0.2182 -0.9795 -0.1405
  584TIP3    H123243   3.689   4.303  11.536  0.1493 -2.9466 -0.8880
  584TIP3    H223244   3.839   4.283  11.534  0.7623  0.6604  0.4566
  585TIP3   OH223245   5.519   4.976   4.392  0.2620 -0.5091  0.6566
  585TIP3    H123246   5.469   4.997   4.471 -1.1456  2.6283 -0.9262
  585TIP3    H223247   5.466   4.909   4.348 -1.6365  1.3180  0.0010
  586TIP3   OH223248   2.165   3.616   3.999  0.5779  0.2334  0.6636
  586TIP3    H123249   2.153   3.685   3.933 -0.1785  0.7632  1.3331
  586TIP3    H223250   2.115   3.542   3.965  2.9422 -0.6931 -1.0091
  587TIP3   OH223251   3.905   1.431  13.397  0.2124 -0.0766 -0.1387
  587TIP3    H123252   3.878   1.487  13.324  1.9669  2.0857  0.7442
  587TIP3    H223253   3.826   1.419  13.449 -0.2704  1.4609 -0.4639
  588TIP3   OH223254   2.025   0.997  12.347  0.5727 -0.0260 -0.1009
  588TIP3    H123255   2.029   0.901  12.352 -1.7558 -0.1396  0.6486
  588TIP3    H223256   2.020   1.026  12.438 -2.1594  0.5296 -0.3581
  589TIP3   OH223257   3.141   1.331  12.162 -0.5625 -0.4493 -0.9442
  589TIP3    H123258   3.159   1.364  12.074 -1.6722 -0.3694 -1.1512
  589TIP3    H223259   3.048   1.308  12.161 -0.8823  0.6751  0.5689
  590TIP3   OH223260   0.539   2.085   0.233 -0.0321  0.1157 -0.0814
  590TIP3    H123261   0.583   2.121   0.310  0.6833 -0.0475 -0.4065
  590TIP3    H223262   0.596   2.109   0.160 -0.3635 -0.3055 -0.4816
  591TIP3   OH223263   0.131   6.784  17.057  0.4730 -0.0494 -0.2649
  591TIP3    H123264   0.152   6.841  16.983 -0.4302  0.1030 -0.4286
  591TIP3    H223265   0.035   6.787  17.061  0.4305  3.6876  3.7328
  592TIP3   OH223266   5.757   2.953   4.890  0.2872 -0.1006 -0.1125
  592TIP3    H123267   5.700   2.963   4.966  0.2235 -1.2104  0.0133
  592TIP3    H223268   5.816   3.028   4.894  0.1385 -0.0213  0.9053
  593TIP3   OH223269   1.530   0.370  11.231  0.5114 -0.0566  0.1201
  593TIP3    H123270   1.511   0.385  11.139 -0.2969 -0.5535  0.2040
  593TIP3    H223271   1.450   0.395  11.277 -0.0263 -2.2032  0.4677
  594TIP3   OH223272   0.918   4.634   4.712  0.1997 -0.4819  0.4273
  594TIP3    H123273   0.839   4.661   4.665  0.2434 -1.0255  0.0253
  594TIP3    H223274   0.888   4.616   4.801  0.1439  0.7000  0.6523
  595TIP3   OH223275   6.536   2.442   4.484  0.0485 -0.9175  0.2553
  595TIP3    H123276   6.623   2.467   4.453 -0.6605 -0.3803 -1.4503
  595TIP3    H223277   6.476   2.489   4.427 -1.3746 -1.4582  1.2404
  596TIP3   OH223278   5.364   6.312  11.605 -0.0922 -0.0176  0.0928
  596TIP3    H123279   5.305   6.310  11.680 -1.9218  2.7667 -1.0920
  596TIP3    H223280   5.307   6.314  11.529  1.6902 -2.1042 -1.4500
  597TIP3   OH223281   0.341   0.852  14.959  0.5457 -0.3913 -0.6548
  597TIP3    H123282   0.328   0.838  14.865 -1.9298 -0.2850 -0.3921
  597TIP3    H223283   0.361   0.765  14.994  2.2322 -0.3093 -1.3521
  598TIP3   OH223284   1.667   3.871  15.421 -1.1020  0.2358 -0.1053
  598TIP3    H123285   1.747   3.923  15.413 -1.2747  0.3048 -1.5506
  598TIP3    H223286   1.691   3.801  15.482  0.0460  0.2795 -0.4742
  599TIP3   OH223287   0.976   4.117  15.429 -0.4786  0.1999 -0.3712
  599TIP3    H123288   1.031   4.071  15.494 -1.1452  1.9010  1.5169
  599TIP3    H223289   1.038   4.169  15.378 -0.2040  4.1198  3.3833
  600TIP3   OH223290   5.209   1.710  16.817 -0.1162 -0.0428  0.1172
  600TIP3    H123291   5.222   1.726  16.723  0.7459 -0.2365  0.1963
  600TIP3    H223292   5.144   1.639  16.821  1.3485 -1.4606 -0.3960
  601TIP3   OH223293   2.918   5.416  15.496  1.0657  0.1083  0.2872
  601TIP3    H123294   3.007   5.414  15.460  1.6173  0.7187  1.5787
  601TIP3    H223295   2.896   5.324  15.511 -0.0546 -0.4335 -3.5643
  602TIP3   OH223296   0.956   3.522  12.419 -0.3323 -0.1081 -0.1167
  602TIP3    H123297   1.051   3.526  12.431 -0.4204  0.1157  0.5425
  602TIP3    H223298   0.932   3.612  12.393 -0.2025 -0.4768 -1.6159
  603TIP3   OH223299   5.060   4.967   2.217 -0.7568 -0.3947 -0.2988
  603TIP3    H123300   4.992   5.029   2.244  0.1312  1.5522 -2.2658
  603TIP3    H223301   5.041   4.888   2.268 -4.1168  0.2381 -0.2962
  604TIP3   OH223302   5.468   3.113   1.658 -0.5502 -0.0246  0.7116
  604TIP3    H123303   5.509   3.027   1.660  0.9530  0.5760 -1.5153
  604TIP3    H223304   5.532   3.171   1.699 -1.2115  0.2042  1.4547
  605TIP3   OH223305   1.050   4.765   3.033 -0.6399  0.9626 -0.1582
  605TIP3    H123306   0.973   4.711   3.015 -0.3057  0.8259 -1.2575
  605TIP3    H223307   1.084   4.788   2.946  1.5487 -0.3848  0.2816
  606TIP3   OH223308   3.875   0.571  13.704  0.1949 -0.1279 -0.1935
  606TIP3    H123309   3.933   0.564  13.779  0.7948 -0.8479 -0.7148
  606TIP3    H223310   3.933   0.586  13.629 -0.4881  2.8083 -0.2887
  607TIP3   OH223311   4.701   4.904  11.072  0.6254 -0.4846 -0.3849
  607TIP3    H123312   4.777   4.865  11.029  0.0049 -0.2983 -1.7017
  607TIP3    H223313   4.657   4.952  11.002 -0.7570 -0.6640  0.3441
  608TIP3   OH223314   3.642   2.660  16.674 -0.1312 -0.4067 -0.5884
  608TIP3    H123315   3.590   2.695  16.746 -2.1207 -1.3309 -1.5009
  608TIP3    H223316   3.698   2.733  16.647  0.5768 -0.0126  1.7608
  609TIP3   OH223317   1.217   4.054   1.162 -0.2392 -0.3698  0.2409
  609TIP3    H123318   1.176   4.139   1.177  1.4554  0.1678  2.2808
  609TIP3    H223319   1.270   4.067   1.084 -2.0584 -0.4254 -1.0870
  610TIP3   OH223320   2.106   3.727   0.817 -0.5112 -0.1917  0.5236
  610TIP3    H123321   2.024   3.694   0.855 -0.6536  0.6954  1.0019
  610TIP3    H223322   2.092   3.721   0.722 -1.5017  0.8077  0.5814
  611TIP3   OH223323   1.847   2.368  12.172 -0.2228  0.0535 -0.2519
  611TIP3    H123324   1.903   2.321  12.111 -0.3002 -1.9402  1.1362
  611TIP3    H223325   1.759   2.336  12.152 -0.8222  2.2426 -1.5766
  612TIP3   OH223326   5.023   2.899  14.316  0.2392 -0.1582  0.1297
  612TIP3    H123327   4.985   2.950  14.387  1.6999 -0.1182  0.9273
  612TIP3    H223328   5.097   2.951  14.286  1.0851 -1.2761  0.2084
  613TIP3   OH223329   5.734   3.969  15.588 -0.1813 -0.4081 -0.2824
  613TIP3    H123330   5.679   3.891  15.597  1.1928 -1.1684  2.5455
  613TIP3    H223331   5.823   3.938  15.602  0.3670  1.7108  1.5755
  614TIP3   OH223332   4.797   0.796   4.809  0.3175 -0.0233  0.5979
  614TIP3    H123333   4.765   0.821   4.896 -0.1503  2.7450 -0.2647
  614TIP3    H223334   4.717   0.780   4.758  0.5668 -0.8458  0.4550
  615TIP3   OH223335   4.219   5.032  12.301 -0.0442 -0.3148 -0.0910
  615TIP3    H123336   4.145   5.011  12.359 -0.3590  0.5673 -0.1488
  615TIP3    H223337   4.296   5.005  12.351 -0.2618  1.0916  1.0979
  616TIP3   OH223338   3.918   1.844   0.042 -0.8604 -0.6741 -0.1225
  616TIP3    H123339   3.905   1.909  -0.028 -0.4828  0.6413  0.9804
  616TIP3    H223340   3.956   1.768  -0.003 -0.6801  0.1057 -1.3525
  617TIP3   OH223341   3.579   2.488  16.464  0.5658 -0.3490 -0.8275
  617TIP3    H123342   3.624   2.543  16.529 -1.2418 -1.1431  1.2457
  617TIP3    H223343   3.645   2.468  16.398  1.9018  2.3634 -0.4373
  618TIP3   OH223344   3.076   4.121   5.839  0.0850 -0.6431  0.3524
  618TIP3    H123345   3.036   4.038   5.866  0.4290 -1.4427 -1.4100
  618TIP3    H223346   3.020   4.153   5.768  1.8525 -1.2174 -1.3953
  619TIP3   OH223347   0.008   0.690  15.121 -0.1285 -0.2335  0.2562
  619TIP3    H123348   0.075   0.687  15.189  0.0548  1.2648  0.1726
  619TIP3    H223349   0.048   0.645  15.047 -0.2193 -1.6242  1.0218
  620TIP3   OH223350   3.306   4.630   0.486  0.1429  0.0458  0.1305
  620TIP3    H123351   3.339   4.552   0.531  2.1772  0.6504 -0.2481
  620TIP3    H223352   3.311   4.608   0.393  2.5619  1.2234 -0.1009
  621TIP3   OH223353   4.850   3.961  17.300 -0.3493  0.7773  0.5019
  621TIP3    H123354   4.875   3.868  17.299 -1.3153  0.5120 -0.1910
  621TIP3    H223355   4.933   4.008  17.311  0.1387 -0.1696  0.9508
  622TIP3   OH223356   1.555   1.441   3.075  0.5294 -0.7042  0.7619
  622TIP3    H123357   1.643   1.419   3.102 -0.1748 -1.9389  2.1723
  622TIP3    H223358   1.531   1.372   3.012  0.9602  0.2993 -0.5574
  623TIP3   OH223359   0.017   1.223   2.222 -0.3219 -0.2626  0.2180
  623TIP3    H123360   0.044   1.269   2.143 -1.7766 -1.3905 -1.0013
  623TIP3    H223361  -0.004   1.292   2.284  0.8190  0.6529 -0.3657
  624TIP3   OH223362   0.282   5.257  13.601 -0.2796  0.4627  0.1622
  624TIP3    H123363   0.286   5.220  13.513  0.2451  1.1591 -0.1213
  624TIP3    H223364   0.374   5.265  13.627 -0.2042  3.4764 -0.6345
  625TIP3   OH223365   1.456   0.859   0.059 -0.5054 -0.3282  0.1017
  625TIP3    H123366   1.419   0.945   0.041 -0.0541 -0.1513  0.0138
  625TIP3    H223367   1.537   0.856   0.008 -0.5568 -0.8351  0.0413
  626TIP3   OH223368   3.839   0.855  15.943  0.8630  0.2900 -0.1579
  626TIP3    H123369   3.756   0.868  15.989  0.7618 -1.8031  0.3492
  626TIP3    H223370   3.876   0.776  15.982  2.5632  0.5360 -1.1664
  627TIP3   OH223371   2.738   6.754  15.876  0.4492  0.0861  0.7022
  627TIP3    H123372   2.769   6.830  15.925 -1.8853  1.6284 -0.0192
  627TIP3    H223373   2.727   6.686  15.942  2.0479  0.5166  1.4618
  628TIP3   OH223374   5.041   5.493   0.649 -0.7974 -0.0560 -0.0372
  628TIP3    H123375   5.103   5.436   0.695  2.8620  2.9010 -0.7698
  628TIP3    H223376   5.047   5.465   0.558 -0.9608 -0.0936 -0.0362
  629TIP3   OH223377   2.570   2.888   4.714  0.7607  0.2786  0.0879
  629TIP3    H123378   2.581   2.807   4.664  0.6933 -0.2199  0.8630
  629TIP3    H223379   2.493   2.930   4.674  0.8240 -0.0082 -0.3491
  630TIP3   OH223380   3.759   6.815  10.895 -0.1448  0.0120  0.9108
  630TIP3    H123381   3.700   6.832  10.821 -0.4167  0.8289  1.3012
  630TIP3    H223382   3.716   6.745  10.944 -1.8278  1.8450  2.2337
  631TIP3   OH223383   5.273   6.258  12.628  0.2495 -0.0417  0.1336
  631TIP3    H123384   5.336   6.293  12.691  0.2716  0.8001 -0.3518
  631TIP3    H223385   5.223   6.193  12.679  1.8880 -1.1800  0.3586
  632TIP3   OH223386   1.156   1.177  14.456  0.5657  0.5020  0.6438
  632TIP3    H123387   1.180   1.096  14.501 -0.5503 -0.0485  0.2722
  632TIP3    H223388   1.240   1.215  14.429  1.1365 -0.1784  1.4103
  633TIP3   OH223389   1.104   0.408  15.402  0.0727  0.1366  0.0584
  633TIP3    H123390   1.140   0.493  15.428  0.5474  1.2473 -3.6518
  633TIP3    H223391   1.009   0.418  15.410  0.0887  1.3021 -0.9699
  634TIP3   OH223392   4.202   5.147  11.171 -0.1166  0.2912  0.3725
  634TIP3    H123393   4.162   5.060  11.160 -0.1835  0.3106  0.4683
  634TIP3    H223394   4.134   5.199  11.213 -0.4240  0.6586 -0.5570
  635TIP3   OH223395   6.710   1.124   0.460 -0.3837 -0.2146  0.2876
  635TIP3    H123396   6.679   1.036   0.443  0.6979 -0.7905  1.1453
  635TIP3    H223397   6.784   1.136   0.401 -0.9493  0.3838 -0.3116
  636TIP3   OH223398   3.773   5.322  14.503 -0.0586 -0.1105  0.1673
  636TIP3    H123399   3.823   5.393  14.463 -1.6240  0.0416 -1.6511
  636TIP3    H223400   3.767   5.255  14.435  0.7377 -1.7237  1.5809
  637TIP3   OH223401   5.835   1.854   4.403  0.4023  0.3247  0.3212
  637TIP3    H123402   5.756   1.852   4.349 -0.2898  3.0411  1.0681
  637TIP3    H223403   5.898   1.902   4.351  0.0529  2.0777  1.4181
  638TIP3   OH223404   3.002   5.670   5.294 -0.4728 -0.3890  0.4362
  638TIP3    H123405   2.992   5.749   5.241 -1.3382 -2.8307 -3.4754
  638TIP3    H223406   2.962   5.691   5.378 -0.1744  3.4208 -0.2331
  639TIP3   OH223407   1.559   3.120   3.353 -0.0875  1.0549  0.3034
  639TIP3    H123408   1.524   3.060   3.419 -1.2278 -0.3219 -1.4632
  639TIP3    H223409   1.486   3.176   3.329 -0.0612  0.7197 -0.6310
  640TIP3   OH223410   1.276   1.388  12.958 -0.1845  0.1523 -0.1683
  640TIP3    H123411   1.238   1.470  12.989  0.5302  0.3983  0.0695
  640TIP3    H223412   1.218   1.361  12.887 -1.8771 -0.4473  1.3540
  641TIP3   OH223413   1.223   6.798  13.332 -0.3872 -0.2259  0.4020
  641TIP3    H123414   1.292   6.770  13.392 -0.8402 -1.3492  0.4286
  641TIP3    H223415   1.252   6.883  13.300  1.7495 -1.2855 -0.7119
  642TIP3   OH223416   0.672   5.525  11.209 -0.3796 -0.1432 -0.1572
  642TIP3    H123417   0.636   5.439  11.233 -0.8482  0.2928  0.7488
  642TIP3    H223418   0.740   5.505  11.145 -0.6302 -1.1767 -0.1224
  643TIP3   OH223419   1.007   0.444  16.449  0.2837  0.3066 -0.3190
  643TIP3    H123420   0.949   0.475  16.379 -0.7525  3.1224  1.5929
  643TIP3    H223421   1.095   0.464  16.417 -0.0882  0.4437 -1.2906
  644TIP3   OH223422   0.887   2.558  14.918  0.2662  0.2731 -0.2533
  644TIP3    H123423   0.828   2.598  14.853  0.1953 -0.0094 -0.3661
  644TIP3    H223424   0.938   2.495  14.868 -0.4668 -0.6470  0.1415
  645TIP3   OH223425   2.897   3.110   5.247 -0.1584  0.0623  0.1961
  645TIP3    H123426   2.891   3.177   5.315  1.8706 -0.1018  0.6220
  645TIP3    H223427   2.872   3.155   5.166 -1.2730  0.6248  0.8326
  646TIP3   OH223428   5.632   1.930   3.278 -0.2319 -0.7672 -0.1728
  646TIP3    H123429   5.658   1.988   3.349 -0.2509 -1.0575  0.0719
  646TIP3    H223430   5.539   1.915   3.291 -0.3028 -0.5705 -0.4411
  647TIP3   OH223431   2.888   2.161   0.606 -0.0371 -0.6333 -0.1559
  647TIP3    H123432   2.826   2.098   0.567 -0.7816 -0.7659  1.1845
  647TIP3    H223433   2.946   2.107   0.659  0.1601 -0.3196 -0.0505
  648TIP3   OH223434   0.771   4.045   5.678  0.0121 -0.2381 -0.4016
  648TIP3    H123435   0.747   4.066   5.768 -0.0511  0.6139 -0.6133
  648TIP3    H223436   0.694   3.999   5.643  0.0541 -0.6047 -0.0135
  649TIP3   OH223437   0.381   2.998   1.707  0.4189 -0.2214  0.2811
  649TIP3    H123438   0.387   2.920   1.763  0.2973 -0.4970 -0.0823
  649TIP3    H223439   0.320   2.973   1.638  3.0697 -1.1354 -1.9129
  650TIP3   OH223440   1.142   5.143   2.615  0.1266 -0.1660 -0.4256
  650TIP3    H123441   1.212   5.204   2.638 -0.8817  1.1813 -0.8200
  650TIP3    H223442   1.152   5.071   2.678  3.8835 -1.7218 -2.4414
  651TIP3   OH223443   3.462   5.464   2.884 -0.0519  0.2150  0.1006
  651TIP3    H123444   3.482   5.550   2.848 -1.4622  0.4522 -0.1534
  651TIP3    H223445   3.538   5.410   2.859  0.2972  1.0775 -0.7847
  652TIP3   OH223446   4.315   6.501   4.883  0.6660  0.1415 -0.3132
  652TIP3    H123447   4.274   6.583   4.853  1.5505  0.2977 -1.1526
  652TIP3    H223448   4.309   6.505   4.979 -2.5716 -0.5340 -0.3614
  653TIP3   OH223449   1.412   0.113  14.441  0.0847  0.2766  1.0217
  653TIP3    H123450   1.435   0.144  14.353 -0.8497  1.1048  1.0600
  653TIP3    H223451   1.337   0.055  14.427 -0.0914  0.4408  1.2853
  654TIP3   OH223452   5.699   0.852   3.365 -0.2783  0.2724  0.2724
  654TIP3    H123453   5.634   0.844   3.296  0.2135  1.5282 -0.3752
  654TIP3    H223454   5.713   0.763   3.396 -0.1400 -0.3865 -1.6022
  655TIP3   OH223455   2.602   4.118  15.898 -0.1503 -0.4480  0.5877
  655TIP3    H123456   2.577   4.091  15.986  1.2299  0.5181  1.3176
  655TIP3    H223457   2.693   4.148  15.907 -0.4244  0.9795 -0.8601
  656TIP3   OH223458   5.267   1.268   2.079 -0.2958 -0.1564 -0.1949
  656TIP3    H123459   5.203   1.217   2.030  0.0342 -0.1469 -0.6492
  656TIP3    H223460   5.320   1.204   2.125 -1.9916 -0.1182  1.9984
  657TIP3   OH223461   1.935   2.263   0.469  0.2579 -0.0265 -0.6795
  657TIP3    H123462   1.985   2.334   0.510  0.4633 -0.8503  0.5666
  657TIP3    H223463   1.992   2.231   0.399  2.4081 -2.1143  1.8056
  658TIP3   OH223464   6.685   5.269   0.417 -0.3574 -0.1135  0.1213
  658TIP3    H123465   6.720   5.238   0.501 -0.2114 -3.0773 -0.9155
  658TIP3    H223466   6.762   5.299   0.369 -0.1120 -0.4970  0.2633
  659TIP3   OH223467   4.489   0.072  10.972 -0.2701 -0.5776  0.4708
  659TIP3    H123468   4.430   0.079  10.896  0.1093  2.0629  0.3213
  659TIP3    H223469   4.567   0.028  10.937 -0.0127  0.7873 -0.7791
  660TIP3   OH223470   6.336   3.806  14.208  0.5957 -0.4170 -0.1609
  660TIP3    H123471   6.341   3.710  14.201 -1.3961 -0.5714 -0.0290
  660TIP3    H223472   6.353   3.837  14.119  1.3896 -0.8691 -0.1804
  661TIP3   OH223473   3.112   0.410   3.024 -0.6385  0.3996  0.1984
  661TIP3    H123474   3.111   0.384   3.117 -1.1793 -1.5655 -0.3198
  661TIP3    H223475   3.032   0.462   3.013 -0.1628  1.3412  0.9865
  662TIP3   OH223476   6.730   3.974  11.645  0.4026  0.1231  0.6978
  662TIP3    H123477   6.708   3.985  11.737  0.5459  1.4940  0.5907
  662TIP3    H223478   6.646   3.976  11.599  0.4473  1.6577  0.6228
  663TIP3   OH223479   5.027   3.252   3.361  0.5647  0.0498 -0.1227
  663TIP3    H123480   4.994   3.329   3.315 -0.9300  0.0274  0.8393
  663TIP3    H223481   4.948   3.205   3.388  1.3094  0.2280  2.7235
  664TIP3   OH223482   3.127   6.340   6.105 -0.3471  0.0661  0.0100
  664TIP3    H123483   3.076   6.260   6.120 -0.2935  0.0942  0.3382
  664TIP3    H223484   3.086   6.406   6.162  0.6093 -0.1352  0.9513
  665TIP3   OH223485   5.092   4.065  14.495  0.0059  0.3783 -0.4212
  665TIP3    H123486   5.089   4.079  14.400  2.4619  0.0385 -0.6124
  665TIP3    H223487   5.014   4.012  14.514 -0.6212  0.5919 -2.2103
  666TIP3   OH223488   4.008   3.755   4.714 -0.0572  0.0803 -0.1858
  666TIP3    H123489   3.974   3.842   4.695 -0.6700 -0.2439 -0.6005
  666TIP3    H223490   3.930   3.701   4.729  0.3316 -0.2712  0.6397
  667TIP3   OH223491   4.184   4.281  16.004 -0.2345 -0.5170  0.1911
  667TIP3    H123492   4.133   4.200  16.010  0.4335 -0.8878  1.1207
  667TIP3    H223493   4.137   4.343  16.059  0.5786 -1.0268  1.5203
  668TIP3   OH223494   1.472   0.281  15.637  0.1445 -0.0506  0.4294
  668TIP3    H123495   1.548   0.339  15.645  1.2610 -1.6004  1.6515
  668TIP3    H223496   1.507   0.193  15.651 -1.5796 -1.0050 -0.8299
  669TIP3   OH223497   4.945   1.794  10.646 -0.7111 -0.2552  0.8241
  669TIP3    H123498   4.988   1.793  10.561 -0.6318 -0.4232  0.8654
  669TIP3    H223499   4.852   1.788  10.625 -0.6219 -2.5155  0.7892
  670TIP3   OH223500   4.354   4.288  13.658  0.4569 -0.1358  0.3674
  670TIP3    H123501   4.441   4.259  13.687  1.1978 -0.7225 -2.1955
  670TIP3    H223502   4.368   4.325  13.571 -1.7384  0.6857  0.2899
  671TIP3   OH223503   3.932   1.842   6.275  1.0835 -0.3063  0.0126
  671TIP3    H123504   3.940   1.923   6.224  0.0305 -1.2001 -1.6860
  671TIP3    H223505   3.913   1.774   6.209  1.2612 -1.8166  1.4516
  672TIP3   OH223506   3.451   6.102   1.697  0.2436 -0.5596  0.3141
  672TIP3    H123507   3.420   6.190   1.677  3.6496  0.7221  0.0917
  672TIP3    H223508   3.432   6.052   1.617  1.5806  0.9983 -1.0671
  673TIP3   OH223509   1.090   4.443   5.383  0.0892 -0.2425 -0.1510
  673TIP3    H123510   1.074   4.403   5.297 -0.6147  2.1313 -1.1976
  673TIP3    H223511   1.012   4.422   5.434  0.8909 -2.4300  0.2999
  674TIP3   OH223512   3.974   4.184   2.296 -0.6622  0.4284 -0.1184
  674TIP3    H123513   3.958   4.197   2.390  0.6714  1.0738  0.0510
  674TIP3    H223514   3.909   4.239   2.253 -0.8957  0.6004  0.4405
  675TIP3   OH223515   1.696   2.317  14.387 -0.3727  0.1949 -0.3494
  675TIP3    H123516   1.760   2.278  14.328  0.6513  1.1378  0.0891
  675TIP3    H223517   1.630   2.249  14.400 -0.4302 -0.1506 -2.2673
  676TIP3   OH223518   1.978   2.757   6.388  0.2638  0.6151 -0.5184
  676TIP3    H123519   1.932   2.680   6.423  1.3491  0.3452  0.3846
  676TIP3    H223520   1.910   2.823   6.377 -1.0095 -0.9349 -2.8492
  677TIP3   OH223521   6.786   0.537   4.727  0.0733 -0.1098  0.3955
  677TIP3    H123522   6.766   0.585   4.807 -0.2508 -0.0880  0.3044
  677TIP3    H223523   6.855   0.476   4.752 -0.6386 -0.7273  0.9214
  678TIP3   OH223524   4.521   6.478   3.981  0.3063  0.2407  0.3955
  678TIP3    H123525   4.493   6.395   3.942  2.1649 -0.1120 -0.2869
  678TIP3    H223526   4.611   6.461   4.012  1.3519  2.4190 -1.2060
  679TIP3   OH223527   6.301   2.491  14.113 -0.6082  0.2732 -0.3648
  679TIP3    H123528   6.225   2.448  14.075 -0.2791  0.7682 -1.6575
  679TIP3    H223529   6.319   2.565  14.054  1.3684 -0.3225 -0.5894
  680TIP3   OH223530   0.815   3.096  12.791  0.6695  0.0943 -0.2817
  680TIP3    H123531   0.861   3.018  12.821  0.6579 -1.0145 -2.9033
  680TIP3    H223532   0.884   3.152  12.755  0.4401  0.3641 -0.3079
  681TIP3   OH223533   5.996   0.118  12.663  0.4552  0.1665 -0.7245
  681TIP3    H123534   6.075   0.100  12.611 -1.3686  0.4027 -3.7958
  681TIP3    H223535   6.027   0.175  12.734  3.3345 -1.3242 -0.6346
  682TIP3   OH223536   5.518   1.712  14.372 -0.0424 -0.0816 -0.2164
  682TIP3    H123537   5.559   1.786  14.325 -1.1905 -0.3651 -1.7446
  682TIP3    H223538   5.467   1.754  14.442  0.5132  0.4631 -0.1260
  683TIP3   OH223539   4.949   1.286  16.133  0.0427  0.0281  0.0747
  683TIP3    H123540   4.864   1.266  16.092  0.0442 -0.9282  0.5227
  683TIP3    H223541   4.952   1.382  16.135 -0.1982  0.1081 -1.6456
  684TIP3   OH223542   2.333   5.031   0.125  0.3353 -0.2455 -0.2577
  684TIP3    H123543   2.384   4.980   0.062  0.6497  0.0791 -0.2665
  684TIP3    H223544   2.353   5.122   0.105  0.9310 -0.1407  0.7011
  685TIP3   OH223545   5.520   3.825   2.374 -0.3039 -0.3739 -0.2223
  685TIP3    H123546   5.485   3.780   2.451  0.6117  1.3782  1.3037
  685TIP3    H223547   5.469   3.906   2.368  1.8508  1.1595  0.7020
  686TIP3   OH223548   6.219   6.398   5.017 -0.0829  0.4513  0.2126
  686TIP3    H123549   6.253   6.323   4.969  0.8628  0.6398  0.5661
  686TIP3    H223550   6.240   6.380   5.108  3.0496  2.5198  0.0569
  687TIP3   OH223551   3.595   5.200  15.571 -0.0323 -0.2720  0.1145
  687TIP3    H123552   3.675   5.249  15.586  0.0291 -0.1244 -0.6490
  687TIP3    H223553   3.575   5.159  15.655  0.2326  0.5830  0.6028
  688TIP3   OH223554   3.240   2.988  11.425 -0.3757 -0.1231  0.3463
  688TIP3    H123555   3.289   3.022  11.351 -0.1616 -0.0774  0.5081
  688TIP3    H223556   3.156   2.960  11.388  0.2241 -1.3337 -0.1588
  689TIP3   OH223557   6.517   4.405  13.985  0.5067 -0.7088 -0.4278
  689TIP3    H123558   6.495   4.324  13.939 -0.6221  0.5713 -2.2722
  689TIP3    H223559   6.611   4.416  13.971  1.3871 -3.1821  2.4623
  690TIP3   OH223560   0.717   0.999  11.018 -0.7172  0.4212  0.2659
  690TIP3    H123561   0.809   0.973  11.025 -1.2434 -1.6404  0.3633
  690TIP3    H223562   0.710   1.040  10.932  0.4993  1.7041  0.7374
  691TIP3   OH223563   0.886   3.130  13.938  0.3337 -0.5587  0.0457
  691TIP3    H123564   0.801   3.164  13.967  0.4163  0.1097 -0.4512
  691TIP3    H223565   0.919   3.080  14.012  0.1484  0.3794  0.7873
  692TIP3   OH223566   6.295   3.538  17.259 -0.0413 -0.2568 -0.4382
  692TIP3    H123567   6.265   3.452  17.289  1.7171 -0.3045  1.4364
  692TIP3    H223568   6.387   3.541  17.285  0.3622  1.6014 -1.8905
  693TIP3   OH223569   1.565   1.596   2.080  0.0370  0.1710  0.3717
  693TIP3    H123570   1.577   1.502   2.074  0.6078  0.2350  0.4771
  693TIP3    H223571   1.563   1.626   1.989 -3.1068 -0.2775  0.1765
  694TIP3   OH223572   3.114   3.139  13.667 -0.4854  0.1521 -0.3170
  694TIP3    H123573   3.056   3.065  13.651 -0.4672 -0.2468  1.3339
  694TIP3    H223574   3.115   3.149  13.762  1.6185  0.5897 -0.3397
  695TIP3   OH223575   0.096   4.825  12.764 -0.5258  0.1973 -0.0320
  695TIP3    H123576   0.053   4.907  12.791 -0.8886 -0.0646  0.1929
  695TIP3    H223577   0.048   4.757  12.810  0.3060 -0.0813  0.4265
  696TIP3   OH223578   1.373   4.693   3.311 -0.4099  0.2475 -0.6118
  696TIP3    H123579   1.341   4.777   3.280  1.6832  1.8053  1.1403
  696TIP3    H223580   1.440   4.715   3.375 -1.0150 -2.7598  1.2625
  697TIP3   OH223581   2.855   6.770  11.424 -0.4712  0.1186  0.1678
  697TIP3    H123582   2.930   6.710  11.432  0.0838  0.7814  0.0687
  697TIP3    H223583   2.804   6.734  11.352 -0.8334 -0.9480  0.9258
  698TIP3   OH223584   2.547   0.472  16.907 -0.1946  0.6097 -0.3934
  698TIP3    H123585   2.474   0.445  16.962 -0.3332  1.8044  0.0499
  698TIP3    H223586   2.620   0.486  16.968  0.1008  0.4452 -0.7028
  699TIP3   OH223587   4.660   1.650  12.149  0.5873 -0.6856  0.3996
  699TIP3    H123588   4.714   1.728  12.159 -0.9641  0.5571 -0.3516
  699TIP3    H223589   4.654   1.613  12.237  0.2423  0.8522  1.0648
  700TIP3   OH223590   5.547   1.873  10.591  0.4973 -0.1744 -0.0318
  700TIP3    H123591   5.498   1.953  10.610 -0.2339 -0.5606 -0.2490
  700TIP3    H223592   5.531   1.858  10.497 -1.2331 -1.7851  0.4641
  701TIP3   OH223593   4.165   3.741  14.588  0.3467 -0.0628  0.0999
  701TIP3    H123594   4.201   3.657  14.560  0.3143  0.4635 -1.7082
  701TIP3    H223595   4.242   3.799  14.593  0.3694 -0.1869  1.3286
  702TIP3   OH223596   6.019   3.589   5.299 -0.2380  0.1829 -0.5474
  702TIP3    H123597   6.030   3.622   5.210 -2.0463  0.6036 -0.6680
  702TIP3    H223598   5.963   3.655   5.342 -0.3125 -0.5636  0.5466
  703TIP3   OH223599   6.458   4.805   3.844  0.2110  0.4457  0.0430
  703TIP3    H123600   6.534   4.862   3.832  1.3241 -1.0016 -0.0614
  703TIP3    H223601   6.493   4.727   3.888 -1.4842  0.3265  1.2839
  704TIP3   OH223602   3.062   4.657  15.219  0.0495  0.5319  0.2741
  704TIP3    H123603   3.011   4.604  15.280  1.8372  1.0029  2.2817
  704TIP3    H223604   3.027   4.746  15.229 -0.7737  0.3416 -0.6939
  705TIP3   OH223605   4.688   5.556  13.600  0.2335 -0.5403 -0.0015
  705TIP3    H123606   4.775   5.539  13.564  0.2249  0.6700 -0.6553
  705TIP3    H223607   4.651   5.469  13.615  0.8714 -1.0957 -1.4270
  706TIP3   OH223608   4.672   3.775   1.273 -0.3282 -0.0358 -0.3588
  706TIP3    H123609   4.622   3.704   1.234  0.7443 -0.6235 -0.7276
  706TIP3    H223610   4.712   3.820   1.198  2.4691 -1.7037 -0.0311
  707TIP3   OH223611   3.074   6.798   6.104 -0.1603  0.0934  0.2240
  707TIP3    H123612   3.094   6.859   6.175 -0.8571 -0.5234  0.9583
  707TIP3    H223613   3.160   6.764   6.077  0.0577 -0.1841  1.2360
  708TIP3   OH223614   5.943   2.672  11.950  0.2147 -0.3167  0.6981
  708TIP3    H123615   6.030   2.672  11.910 -0.0340 -2.0750  0.0547
  708TIP3    H223616   5.890   2.726  11.891  1.1532  2.0418  1.8991
  709TIP3   OH223617   4.987   0.183   1.117  0.2786  0.1513 -0.3907
  709TIP3    H123618   5.028   0.267   1.094 -1.2874  0.9951 -0.2503
  709TIP3    H223619   4.981   0.184   1.212 -0.9526  0.5195 -0.4491
  710TIP3   OH223620   0.474   0.169  16.154 -0.5490  0.3029  0.6311
  710TIP3    H123621   0.554   0.216  16.179 -0.3872  0.6303 -0.4283
  710TIP3    H223622   0.504   0.104  16.090 -1.3060  1.4601 -0.9677
  711TIP3   OH223623   0.693   1.753  15.418  0.1090 -0.0393  0.2358
  711TIP3    H123624   0.683   1.658  15.414  4.2422 -0.8388  2.7196
  711TIP3    H223625   0.748   1.775  15.342 -0.4911  0.3413 -0.0985
  712TIP3   OH223626   6.192   3.000   0.761  0.0018 -0.6056 -0.3439
  712TIP3    H123627   6.222   3.037   0.678  2.8950 -1.3929  0.2406
  712TIP3    H223628   6.146   3.072   0.805  1.8710  1.0667 -0.9893
  713TIP3   OH223629   1.756   2.665   6.696 -0.2626  0.0831  0.1749
  713TIP3    H123630   1.748   2.742   6.753  0.1803  0.5193 -0.3350
  713TIP3    H223631   1.755   2.701   6.607  0.0846 -0.4829 -0.0649
  714TIP3   OH223632   1.125   6.292  11.456  0.1396  0.3946  0.4382
  714TIP3    H123633   1.108   6.382  11.428  0.5775  0.0086 -1.1597
  714TIP3    H223634   1.104   6.238  11.379  1.3168 -0.7383  0.8691
  715TIP3   OH223635   4.592   5.302  13.750  0.3075 -0.1010 -0.0933
  715TIP3    H123636   4.630   5.318  13.836 -2.1316 -1.0187  1.2520
  715TIP3    H223637   4.591   5.206  13.741 -1.9197 -0.1616  0.1442
  716TIP3   OH223638   0.522   3.288  17.163  0.0100 -0.4335 -0.0288
  716TIP3    H123639   0.488   3.287  17.073  2.0160 -2.7102 -0.8764
  716TIP3    H223640   0.500   3.375  17.196 -0.7832  0.4983 -2.7358
  717TIP3   OH223641   6.072   4.179   3.227  0.2412 -0.1332  0.1471
  717TIP3    H123642   6.147   4.157   3.283 -0.9732  0.2091  1.9868
  717TIP3    H223643   6.080   4.120   3.152  1.8863 -0.6729  0.7033
  718TIP3   OH223644   4.781   2.102   1.285  0.0128  0.1021  0.2724
  718TIP3    H123645   4.728   2.097   1.365 -0.6550  0.1131 -0.1639
  718TIP3    H223646   4.843   2.173   1.302 -0.1250  0.1047  0.7800
  719TIP3   OH223647   6.701   1.130  14.960 -0.0538 -0.6298 -0.1952
  719TIP3    H123648   6.742   1.215  14.944 -0.6103 -0.4281 -0.5875
  719TIP3    H223649   6.757   1.088  15.025  1.4120 -0.8354 -1.5398
  720TIP3   OH223650   4.224   4.321   5.415  0.1222  0.0326  0.4181
  720TIP3    H123651   4.270   4.405   5.408  1.2549 -0.4486  1.5343
  720TIP3    H223652   4.205   4.297   5.325 -0.3442  1.5430  0.0777
  721TIP3   OH223653   1.486   5.065   4.491  0.4202 -0.2860 -0.2743
  721TIP3    H123654   1.574   5.032   4.506  0.3403 -0.2362  0.3262
  721TIP3    H223655   1.470   5.126   4.563 -0.4763 -1.0435  0.1945
  722TIP3   OH223656   5.592   2.122  12.932  0.3703  0.1340  0.3186
  722TIP3    H123657   5.681   2.154  12.920 -0.0682  1.4468  0.4789
  722TIP3    H223658   5.536   2.190  12.893 -0.5720 -0.5965  0.3482
  723TIP3   OH223659   6.781   4.771  13.338 -0.3569  0.4970 -0.1873
  723TIP3    H123660   6.758   4.682  13.312 -0.1303  0.5268 -0.4951
  723TIP3    H223661   6.700   4.821  13.329 -0.5408  0.2760  0.2047
  724TIP3   OH223662   0.062   5.587  13.278 -0.1484  0.1509 -0.0257
  724TIP3    H123663   0.114   5.558  13.353 -1.4957 -1.7625  0.2403
  724TIP3    H223664   0.033   5.675  13.302 -1.2063 -0.7033  2.1214
  725TIP3   OH223665   2.045   4.743  15.553  0.2008 -0.7438 -0.0168
  725TIP3    H123666   2.025   4.834  15.576  0.9071 -0.8667  1.1312
  725TIP3    H223667   1.968   4.714  15.503 -1.3661 -0.4352  2.0791
  726TIP3   OH223668   4.695   3.725   0.748  0.0364 -0.3513 -0.4144
  726TIP3    H123669   4.743   3.780   0.687  0.1205 -2.7159 -2.6492
  726TIP3    H223670   4.612   3.706   0.704 -0.1455 -1.6596  0.4215
  727TIP3   OH223671   3.797   2.369   2.385 -0.0031 -0.1389 -0.5325
  727TIP3    H123672   3.863   2.428   2.348  0.7496 -1.1982 -0.9521
  727TIP3    H223673   3.728   2.427   2.419  1.6673  1.0611  0.9913
  728TIP3   OH223674   6.450   0.294   2.324  0.5759  0.0069  0.0261
  728TIP3    H123675   6.411   0.381   2.315  2.1486  0.6264 -1.2287
  728TIP3    H223676   6.378   0.239   2.355 -1.4108  1.0111 -2.4289
  729TIP3   OH223677   1.356   3.613   1.384 -0.2303 -0.2055 -0.6090
  729TIP3    H123678   1.295   3.684   1.363 -0.6933 -0.4413 -0.0882
  729TIP3    H223679   1.305   3.533   1.369 -0.3988 -0.3909  0.8345
  730TIP3   OH223680   3.242   1.591  13.694 -0.2111  0.0552 -0.7644
  730TIP3    H123681   3.168   1.649  13.713  0.4202  1.0444 -1.1964
  730TIP3    H223682   3.259   1.603  13.601  1.1867  0.7413 -0.4609
  731TIP3   OH223683   0.981   4.817   3.514 -0.2838 -0.1964 -0.2899
  731TIP3    H123684   1.008   4.908   3.506 -1.1183  0.0156 -0.6935
  731TIP3    H223685   0.949   4.793   3.427 -0.9007 -0.6036  0.0443
  732TIP3   OH223686   5.957   1.453   3.707 -0.0066  0.2659 -0.1187
  732TIP3    H123687   5.955   1.547   3.723 -1.7181  0.5329 -1.4792
  732TIP3    H223688   6.033   1.440   3.651  1.6141  0.4329  1.9550
  733TIP3   OH223689   2.607   4.963   5.757 -0.2030  0.1367  0.6777
  733TIP3    H123690   2.566   4.876   5.755  0.9308 -0.4567 -2.0308
  733TIP3    H223691   2.557   5.014   5.694  0.3741  0.7983  0.7426
  734TIP3   OH223692   6.580   1.725  16.319  0.4951 -0.2130  0.6557
  734TIP3    H123693   6.571   1.694  16.408 -0.1171 -1.5192  0.1611
  734TIP3    H223694   6.667   1.697  16.292  0.0922 -1.2136  0.3417
  735TIP3   OH223695   1.533   4.688  12.427 -0.1360  0.1176 -0.6878
  735TIP3    H123696   1.601   4.672  12.362 -0.2902 -0.0583 -0.8075
  735TIP3    H223697   1.579   4.688  12.511 -0.1762 -1.4176 -0.6269
  736TIP3   OH223698   2.914   5.311   3.760 -0.1450  0.6625 -0.2061
  736TIP3    H123699   2.953   5.339   3.843 -0.5007 -0.6815  0.4343
  736TIP3    H223700   2.832   5.268   3.785  0.9416 -2.0819 -0.9835
  737TIP3   OH223701   6.554   5.465  15.662 -0.1154  0.2831  0.3485
  737TIP3    H123702   6.520   5.434  15.747 -0.6110 -0.6225 -0.1629
  737TIP3    H223703   6.542   5.391  15.603  1.0974  0.5770 -0.3031
  738TIP3   OH223704   0.684   4.520   3.253  0.3394  0.1066  0.4332
  738TIP3    H123705   0.605   4.470   3.275  0.3872 -0.2202 -0.1082
  738TIP3    H223706   0.650   4.602   3.218  0.2404  0.0411  0.3729
  739TIP3   OH223707   5.973   4.297   5.753  0.3573  0.7411  0.0553
  739TIP3    H123708   5.898   4.355   5.742 -0.2789 -0.1026 -0.1191
  739TIP3    H223709   5.998   4.307   5.845 -0.4699  0.4316  0.3229
  740TIP3   OH223710   2.978   1.112   3.045 -0.0415  0.1413 -0.0791
  740TIP3    H123711   3.067   1.110   3.081  0.2949  1.3402 -0.7777
  740TIP3    H223712   2.975   1.037   2.985  0.8804  0.7040 -0.8571
  741TIP3   OH223713   4.636   1.154  11.295  0.0058 -0.3501  0.8323
  741TIP3    H123714   4.640   1.235  11.245 -0.5865 -0.6792  0.2326
  741TIP3    H223715   4.549   1.155  11.335  0.4304 -0.1488  1.7601
  742TIP3   OH223716   0.911   2.820   2.815 -0.0431  0.1735 -0.1741
  742TIP3    H123717   0.904   2.881   2.741 -1.5187 -1.1586 -1.1839
  742TIP3    H223718   0.865   2.741   2.786  1.0046 -1.0961  1.4602
  743TIP3   OH223719   1.625   0.682  13.576 -0.7023  0.7222  1.2246
  743TIP3    H123720   1.629   0.778  13.577 -0.8550  0.7189  2.2505
  743TIP3    H223721   1.637   0.656  13.667  1.0503 -0.3083  0.7574
  744TIP3   OH223722   3.645   1.530  16.361  0.1321 -0.0498 -0.4335
  744TIP3    H123723   3.614   1.441  16.346  1.7794 -0.3756 -2.2783
  744TIP3    H223724   3.565   1.580  16.378 -0.8624 -1.7858  0.3120
  745TIP3   OH223725   2.680   0.362   3.310  0.2007  0.1651  0.3391
  745TIP3    H123726   2.608   0.421   3.334 -0.7384  0.3032 -2.4368
  745TIP3    H223727   2.669   0.286   3.367 -0.6834  1.1764  1.5788
  746TIP3   OH223728   2.284   6.606   0.273  0.5196  0.2411  0.5074
  746TIP3    H123729   2.348   6.674   0.253  0.0350  0.7675  0.7169
  746TIP3    H223730   2.319   6.562   0.350  2.6080 -2.0699 -1.5681
  747TIP3   OH223731   3.218   4.650  12.843 -0.2076  0.3862  0.1261
  747TIP3    H123732   3.133   4.606  12.851  0.3568 -0.4351  2.1821
  747TIP3    H223733   3.258   4.609  12.767 -0.9935 -0.3900  0.1099
  748TIP3   OH223734   4.709   1.422  11.479  0.0707  0.1122 -0.1219
  748TIP3    H123735   4.654   1.386  11.410  0.0273  0.2824 -0.1777
  748TIP3    H223736   4.722   1.350  11.540  0.7290 -0.2576 -0.6883
  749TIP3   OH223737   6.493   2.058   3.913 -0.0575 -0.3148 -0.4496
  749TIP3    H123738   6.460   2.099   3.833  0.1745  0.7485 -0.0273
  749TIP3    H223739   6.460   1.969   3.911  1.6076 -0.9709 -2.7465
  750TIP3   OH223740   3.851   5.370   2.454 -0.4050 -0.3284 -0.3132
  750TIP3    H123741   3.797   5.444   2.426 -1.3980 -1.7587 -2.3817
  750TIP3    H223742   3.831   5.300   2.392  0.2832 -2.4604  1.7239
  751TIP3   OH223743   6.381   5.692  14.942 -0.0481 -0.1025 -0.2988
  751TIP3    H123744   6.413   5.759  15.003  0.2887 -0.5127 -0.0192
  751TIP3    H223745   6.433   5.614  14.963 -0.1187 -0.3242 -0.9264
  752TIP3   OH223746   5.447   1.516  16.832  0.3709 -0.6689  0.2542
  752TIP3    H123747   5.412   1.570  16.762  2.9165  0.0178 -0.6169
  752TIP3    H223748   5.372   1.465  16.863 -0.9779 -0.6722 -2.6306
  753TIP3   OH223749   2.831   5.947   0.382 -0.3066  0.0544  0.1750
  753TIP3    H123750   2.848   5.971   0.291  1.3784  0.4769  0.5799
  753TIP3    H223751   2.841   6.029   0.431 -3.6014  0.3908  0.5242
  754TIP3   OH223752   2.245   2.621  15.741  0.0090  0.6298  0.2085
  754TIP3    H123753   2.248   2.539  15.790 -3.0498  0.1917 -0.0815
  754TIP3    H223754   2.164   2.614  15.690  0.2871  3.3403 -0.7519
  755TIP3   OH223755   1.481   0.049  16.918 -0.0629  0.5274 -0.0904
  755TIP3    H123756   1.538  -0.019  16.881  0.5872 -0.0002  1.7940
  755TIP3    H223757   1.541   0.113  16.955 -0.7000  1.3703 -0.4882
  756TIP3   OH223758   2.379   2.123  14.980 -0.1364  0.3436  0.0022
  756TIP3    H123759   2.445   2.064  15.016 -1.2600 -0.8024  0.2185
  756TIP3    H223760   2.382   2.108  14.885 -0.6859 -0.3523  0.0916
  757TIP3   OH223761   0.662   5.306  17.109 -0.3335  0.6887  0.0350
  757TIP3    H123762   0.642   5.306  17.015  1.2872 -0.6314 -0.3486
  757TIP3    H223763   0.705   5.390  17.124  0.6390  0.3437 -0.7187
  758TIP3   OH223764   1.743   1.033   6.598 -0.6267  0.0381  0.1602
  758TIP3    H123765   1.794   0.968   6.646 -2.1787 -1.3267  0.0470
  758TIP3    H223766   1.788   1.041   6.514  0.4257  0.2310  0.7331
  759TIP3   OH223767   0.865   5.381   3.307 -0.2379 -0.2069 -0.7594
  759TIP3    H123768   0.788   5.329   3.283  0.8979 -2.1068 -0.4822
  759TIP3    H223769   0.938   5.336   3.264  0.8362  1.0371 -0.2856
  760TIP3   OH223770   1.655   4.447  11.058 -0.2113 -0.4310  0.0589
  760TIP3    H123771   1.715   4.444  11.132 -0.1090 -0.5462 -0.0285
  760TIP3    H223772   1.672   4.366  11.010  0.8937  0.3919 -1.0111
  761TIP3   OH223773   5.575   1.064   5.953 -0.2840  0.2402  0.2169
  761TIP3    H123774   5.661   1.103   5.968 -0.3868  0.3760  0.4594
  761TIP3    H223775   5.547   1.034   6.039 -0.3474 -0.0770  0.0853
  762TIP3   OH223776   3.968   2.486  13.608  0.1804 -0.0115 -0.0351
  762TIP3    H123777   3.894   2.458  13.553 -1.2384  2.5034  0.4462
  762TIP3    H223778   3.980   2.414  13.670  0.1392 -1.7910 -1.9792
  763TIP3   OH223779   0.337   3.740  14.732 -0.3892 -0.2788 -0.1969
  763TIP3    H123780   0.244   3.719  14.721 -0.0508 -0.9050 -2.5495
  763TIP3    H223781   0.379   3.656  14.745 -0.0750 -0.0665  0.1680
  764TIP3   OH223782   5.834   4.938   6.023 -0.7037 -0.2118 -0.0655
  764TIP3    H123783   5.828   4.926   6.118  0.6218  0.6705  0.1584
  764TIP3    H223784   5.749   4.909   5.990 -1.1472 -0.6609  1.3683
  765TIP3   OH223785   1.467   0.987   5.033  0.1699 -0.1239  0.2150
  765TIP3    H123786   1.429   1.073   5.051 -0.1677 -0.5015  1.4259
  765TIP3    H223787   1.471   0.982   4.938 -1.3433  0.5728  0.0756
  766TIP3   OH223788   5.270   3.415   3.708  0.1329  0.3544 -0.2892
  766TIP3    H123789   5.353   3.368   3.716 -1.0239 -1.8590 -0.3052
  766TIP3    H223790   5.204   3.346   3.707 -1.7454  2.0477 -0.0324
  767TIP3   OH223791   3.062   0.185  13.195  0.4014 -0.6196  0.6467
  767TIP3    H123792   3.004   0.135  13.137  0.9053 -1.1322  0.5773
  767TIP3    H223793   3.018   0.269  13.207 -1.1430 -1.5419  1.8375
  768TIP3   OH223794   6.137   2.650  17.296 -0.1052  0.4241 -0.0478
  768TIP3    H123795   6.198   2.601  17.242 -0.8799 -2.1016  1.2343
  768TIP3    H223796   6.108   2.588  17.363 -2.4939  2.1308  0.6406
  769TIP3   OH223797   6.001   6.315  14.602  0.1496  0.4653 -0.0705
  769TIP3    H123798   5.938   6.279  14.540  0.3397  1.2571 -0.7403
  769TIP3    H223799   5.952   6.323  14.684 -1.2259  2.8190 -1.0375
  770TIP3   OH223800   5.105   4.395  10.592  0.1133  0.4949 -0.2848
  770TIP3    H123801   5.188   4.348  10.605  1.0241  2.4678  1.5891
  770TIP3    H223802   5.131   4.486  10.582 -1.8973  1.5052  2.5885
  771TIP3   OH223803   0.154   6.133   3.351 -0.0408  0.1764 -0.3296
  771TIP3    H123804   0.226   6.131   3.414  1.1921  1.3223 -1.6693
  771TIP3    H223805   0.076   6.146   3.406  0.7935 -0.5125  1.0894
  772TIP3   OH223806   3.710   5.296  11.847  0.0385 -0.1599  0.0235
  772TIP3    H123807   3.715   5.279  11.753 -1.8986  0.3765 -0.2111
  772TIP3    H223808   3.786   5.351  11.866  0.3038 -0.0684 -1.2792
  773TIP3   OH223809   0.142   4.094  16.623 -0.1556  0.1551  0.1156
  773TIP3    H123810   0.163   4.182  16.591 -0.1918  1.3867  3.0993
  773TIP3    H223811   0.087   4.110  16.700  1.0939 -2.3881  1.6585
  774TIP3   OH223812   3.629   3.354   3.577 -0.2963 -0.0979  0.7658
  774TIP3    H123813   3.615   3.413   3.652  1.6392 -0.3060  1.3524
  774TIP3    H223814   3.709   3.306   3.600 -0.5248 -1.2550 -0.7751
  775TIP3   OH223815   1.793   4.015   2.703  0.1489  0.1570  0.0733
  775TIP3    H123816   1.734   3.994   2.631  2.0318  0.0878 -1.5300
  775TIP3    H223817   1.849   4.084   2.669  2.0734 -0.9143  0.9159
  776TIP3   OH223818   5.951   3.385   2.655 -0.4029 -0.6834 -0.1719
  776TIP3    H123819   5.882   3.414   2.716 -1.1027 -0.8478 -0.8688
  776TIP3    H223820   5.969   3.295   2.682 -0.2859 -0.5552  0.1759
  777TIP3   OH223821   1.291   5.923  17.120  0.3757 -0.1671 -0.7597
  777TIP3    H123822   1.351   5.877  17.179 -0.3155 -1.6544 -1.1789
  777TIP3    H223823   1.304   6.016  17.141  0.1836 -0.6374  1.7205
  778TIP3   OH223824   5.509   0.519   2.258  0.6536  0.5423 -0.2623
  778TIP3    H123825   5.489   0.612   2.251  1.1789  0.6220 -0.7876
  778TIP3    H223826   5.604   0.514   2.248  0.5312 -0.1316 -1.2532
  779TIP3   OH223827   1.670   2.581  16.922 -0.5610  0.0906  0.3054
  779TIP3    H123828   1.592   2.533  16.893  0.5274 -1.5081 -0.1606
  779TIP3    H223829   1.734   2.512  16.942  0.7389  1.3490  0.6551
  780TIP3   OH223830   1.096   1.645   0.624  0.0101 -0.0982  0.0276
  780TIP3    H123831   1.113   1.598   0.705 -0.6003  1.0208  0.8377
  780TIP3    H223832   1.163   1.713   0.622  0.2560 -0.3567 -0.6055
  781TIP3   OH223833   5.920   6.184   0.216  0.4341  0.2225 -0.1363
  781TIP3    H123834   5.947   6.120   0.150 -1.5349 -1.5116  0.6452
  781TIP3    H223835   5.924   6.268   0.170  0.2324 -0.7909 -2.1118
  782TIP3   OH223836   0.323   4.023  10.790 -0.6016 -0.2580 -0.4926
  782TIP3    H123837   0.413   4.047  10.767 -0.5503  0.3983  0.3108
  782TIP3    H223838   0.279   4.107  10.800 -0.8368 -0.5214  0.8576
  783TIP3   OH223839   3.631   5.962   4.301 -0.3608  0.3042 -0.0261
  783TIP3    H123840   3.652   6.019   4.375  0.5495  0.4903 -0.4153
  783TIP3    H223841   3.636   5.873   4.337 -1.0110  0.4334  0.3927
  784TIP3   OH223842   0.215   4.311  12.959  0.0245  0.2203  0.6671
  784TIP3    H123843   0.267   4.391  12.946  0.9819 -0.7732 -2.5429
  784TIP3    H223844   0.126   4.343  12.973  0.2415  1.9400 -1.3271
  785TIP3   OH223845   1.118   3.675   2.110 -0.0091  0.0050  0.5638
  785TIP3    H123846   1.044   3.619   2.135 -0.8413  1.3479  1.2035
  785TIP3    H223847   1.187   3.654   2.173 -0.0973 -0.7160  0.4287
  786TIP3   OH223848   0.629   6.467   0.500 -0.5648  0.0114 -0.2615
  786TIP3    H123849   0.722   6.477   0.477 -0.5930 -0.0657 -0.4120
  786TIP3    H223850   0.582   6.495   0.421 -0.6616 -0.4143 -0.3543
  787TIP3   OH223851   5.872   4.587   2.811  0.3073 -0.7063 -0.2632
  787TIP3    H123852   5.840   4.641   2.739  1.0274  2.1550  1.4153
  787TIP3    H223853   5.941   4.639   2.851  1.4262 -3.1515  1.2157
  788TIP3   OH223854   3.785   0.894  16.730 -0.4193  0.1993  0.6965
  788TIP3    H123855   3.830   0.820  16.690  0.9967  1.9319 -1.0867
  788TIP3    H223856   3.694   0.884  16.701 -0.1477 -0.5571  0.0479
  789TIP3   OH223857   5.518   3.301  11.024 -0.0982  0.0282  0.3818
  789TIP3    H123858   5.504   3.396  11.023  0.3858  0.1080 -0.5356
  789TIP3    H223859   5.531   3.278  10.932 -0.2622 -0.9401  0.5893
  790TIP3   OH223860   3.327   0.225   5.108  0.1882  0.7145  0.0294
  790TIP3    H123861   3.257   0.221   5.174 -0.9802 -1.7962 -1.2117
  790TIP3    H223862   3.403   0.187   5.153  0.3570  2.0251  0.9021
  791TIP3   OH223863   6.766   3.066  13.146  0.4303  0.3382 -0.2023
  791TIP3    H123864   6.675   3.085  13.167  0.4311 -1.6094  1.8999
  791TIP3    H223865   6.779   3.103  13.059 -2.5027  0.2352 -0.7646
  792TIP3   OH223866   2.839   0.934   3.678 -0.2862  0.8150  0.8151
  792TIP3    H123867   2.861   0.985   3.600  1.5016  0.6316  1.1604
  792TIP3    H223868   2.871   0.987   3.751 -2.0024  1.0186  1.4694
  793TIP3   OH223869   5.029   5.681   5.190 -0.8373 -0.2951 -0.2323
  793TIP3    H123870   4.996   5.694   5.101 -0.1226  0.2681 -0.4278
  793TIP3    H223871   4.950   5.669   5.243 -1.2860 -0.3311 -0.8900
  794TIP3   OH223872   5.108   3.694  12.024  0.4396  0.3475 -0.1700
  794TIP3    H123873   5.035   3.751  12.049  1.4421  1.4145  0.4136
  794TIP3    H223874   5.185   3.734  12.065  1.0618 -1.9780  1.1166
  795TIP3   OH223875   2.437   0.222  15.905  0.3537 -0.1478  0.2573
  795TIP3    H123876   2.397   0.135  15.913  0.5508 -0.1778  0.9468
  795TIP3    H223877   2.486   0.234  15.986  0.7965  0.3746 -0.0774
  796TIP3   OH223878   1.076   1.434   3.075 -0.2816 -0.1294 -0.3678
  796TIP3    H123879   1.094   1.471   3.161 -1.8926 -0.4591  0.1463
  796TIP3    H223880   1.132   1.357   3.069  0.6102  0.4811 -0.0586
  797TIP3   OH223881   3.728   1.413   3.026  0.0809 -0.5417 -0.0176
  797TIP3    H123882   3.812   1.456   3.047 -0.6145  1.1325 -0.4743
  797TIP3    H223883   3.736   1.390   2.934  0.2559 -0.9111  0.0896
  798TIP3   OH223884   3.107   4.900  16.669  0.4036  0.2010  0.4897
  798TIP3    H123885   3.187   4.908  16.720 -0.4779 -0.7111  2.1054
  798TIP3    H223886   3.097   4.806  16.655 -2.0115 -0.0647  3.1653
  799TIP3   OH223887   3.183   2.151  13.815  0.1697 -0.4327 -0.2650
  799TIP3    H123888   3.161   2.150  13.909 -0.1693 -0.7956 -0.3416
  799TIP3    H223889   3.100   2.128  13.772  0.6380 -1.6455 -0.5770
  800TIP3   OH223890   1.927   1.639  12.929  0.0846  0.1023  0.0422
  800TIP3    H123891   1.887   1.564  12.883  0.6492 -1.1776  1.5417
  800TIP3    H223892   1.860   1.667  12.992  0.4640 -0.1902  0.5819
  801TIP3   OH223893   3.968   0.634  14.619 -0.1819 -0.2537 -0.1754
  801TIP3    H123894   3.974   0.712  14.674 -0.4278 -0.6624  0.4532
  801TIP3    H223895   4.024   0.570  14.664  2.2713  0.3515 -2.1394
  802TIP3   OH223896   4.499   0.258   5.036 -0.2832 -0.0407  0.1251
  802TIP3    H123897   4.403   0.259   5.034 -0.2728  0.2828 -0.6391
  802TIP3    H223898   4.525   0.335   4.984  0.3873  0.4279  1.1271
  803TIP3   OH223899   1.505   6.188  15.922 -0.1245  0.5192  0.4515
  803TIP3    H123900   1.439   6.128  15.889  0.8692 -0.2939 -0.1181
  803TIP3    H223901   1.459   6.242  15.987 -1.3901  0.1651 -0.1344
  804TIP3   OH223902   5.001   5.329   2.454 -0.3932  0.4789 -0.8002
  804TIP3    H123903   5.055   5.407   2.468 -1.4704  1.2622 -0.8820
  804TIP3    H223904   5.057   5.256   2.481 -0.2305  1.4512  1.8191
  805TIP3   OH223905   6.381   4.970  13.561 -0.3319 -0.1878 -0.1975
  805TIP3    H123906   6.383   5.049  13.506 -0.0910 -1.1764 -1.6811
  805TIP3    H223907   6.289   4.947  13.567 -0.2826 -0.7887 -1.3267
  806TIP3   OH223908   0.477   5.231   0.951  0.7726 -0.2489 -0.0583
  806TIP3    H123909   0.531   5.306   0.927 -1.9335  2.3421  1.2726
  806TIP3    H223910   0.432   5.258   1.031 -0.1344 -3.4743  0.6779
  807TIP3   OH223911   1.496   2.344   4.029 -0.4067 -0.1308  0.6564
  807TIP3    H123912   1.508   2.256   3.992  0.2674 -0.1279  0.8477
  807TIP3    H223913   1.522   2.403   3.958  0.1613 -0.1111  0.8756
  808TIP3   OH223914   1.921   1.365  13.191 -0.5125 -0.4346 -0.0908
  808TIP3    H123915   1.995   1.392  13.246  0.2397 -0.4393 -1.0698
  808TIP3    H223916   1.961   1.315  13.120 -1.3003  0.8227 -1.4721
  809TIP3   OH223917   0.750   1.744   1.676  0.6233  0.5591  0.0592
  809TIP3    H123918   0.794   1.828   1.694  0.6043  0.5291  0.2465
  809TIP3    H223919   0.740   1.703   1.762 -0.0468  0.7015  0.0544
  810TIP3   OH223920   0.812   3.515  11.089 -0.3001  0.4865 -0.6345
  810TIP3    H123921   0.741   3.478  11.036 -0.8727 -0.2326  0.6141
  810TIP3    H223922   0.887   3.458  11.072 -1.2724 -1.5800  1.5735
  811TIP3   OH223923   1.139   5.942  12.272 -0.1241  0.4500  0.1640
  811TIP3    H123924   1.162   5.897  12.191 -1.8876  2.1095 -1.3621
  811TIP3    H223925   1.199   5.906  12.338  4.1607  1.7956 -2.6001
  812TIP3   OH223926   5.766   5.381  16.326 -0.3725  0.0885 -0.2439
  812TIP3    H123927   5.860   5.376  16.310 -0.4597 -0.0720 -0.7333
  812TIP3    H223928   5.726   5.361  16.241 -0.8579 -0.8363  0.1765
  813TIP3   OH223929   1.065   3.202  10.621 -0.3380  0.1362  0.4618
  813TIP3    H123930   1.146   3.224  10.668  0.1957 -0.0331 -0.3577
  813TIP3    H223931   1.057   3.269  10.553 -1.2486  0.5331  0.9335
  814TIP3   OH223932   3.923   6.160   0.869 -0.3657 -0.0994  0.0829
  814TIP3    H123933   3.927   6.112   0.951  1.1653  2.2649  1.4876
  814TIP3    H223934   4.008   6.145   0.828 -0.7482 -0.4353 -0.6131
  815TIP3   OH223935   4.666   1.944  12.102  0.6109  0.7668 -0.5239
  815TIP3    H123936   4.671   2.035  12.132 -3.0025  0.7024  0.7310
  815TIP3    H223937   4.585   1.910  12.140  1.7203 -2.9762 -1.1049
  816TIP3   OH223938   0.679   4.045  12.448  0.8407 -0.6765 -0.1649
  816TIP3    H123939   0.592   4.038  12.410  1.6659 -0.5100 -2.2330
  816TIP3    H223940   0.665   4.072  12.538 -1.2382 -0.9507 -0.3723
  817TIP3   OH223941   6.678   6.326  14.941 -0.0085  0.3521 -0.5404
  817TIP3    H123942   6.669   6.372  14.857 -0.4659  1.3798  0.0496
  817TIP3    H223943   6.622   6.249  14.933  0.9905 -0.3019 -1.6575
  818TIP3   OH223944   3.385   4.655  13.079  0.4152  0.1625  0.2011
  818TIP3    H123945   3.478   4.645  13.056  0.2776  1.1879 -0.9316
  818TIP3    H223946   3.343   4.679  12.996 -0.8622 -0.2245  0.7148
  819TIP3   OH223947   0.086   5.861  15.692 -0.5865 -0.5962 -0.0344
  819TIP3    H123948   0.040   5.931  15.646 -0.1787 -0.7372 -0.6659
  819TIP3    H223949   0.125   5.904  15.768  0.1757  0.0096 -0.7435
  820TIP3   OH223950   2.092   5.327   6.095 -0.2281 -0.0071 -0.6515
  820TIP3    H123951   2.164   5.390   6.084  0.8394 -1.1371 -0.4302
  820TIP3    H223952   2.042   5.333   6.014 -0.6217  1.6848 -0.3109
  821TIP3   OH223953   5.303   4.308   4.499  0.3439  0.0268 -0.3624
  821TIP3    H123954   5.319   4.245   4.569 -0.5447 -0.5753 -0.6806
  821TIP3    H223955   5.209   4.299   4.479 -0.0137  2.0707  0.1834
  822TIP3   OH223956   0.135   2.374  14.905 -0.3346 -0.1355 -0.3438
  822TIP3    H123957   0.230   2.364  14.915 -0.3047 -1.5247 -1.6176
  822TIP3    H223958   0.126   2.446  14.843 -0.0535 -0.7750 -1.1441
  823TIP3   OH223959   5.795   4.678   1.274 -0.0264 -0.0804  0.2707
  823TIP3    H123960   5.771   4.619   1.346  1.0908 -0.4034  0.3939
  823TIP3    H223961   5.721   4.739   1.267 -1.7618 -2.1440 -0.5984
  824TIP3   OH223962   3.476   1.080   4.445  0.4137 -0.2638  0.1960
  824TIP3    H123963   3.407   1.094   4.381  1.4912 -1.6285 -1.3687
  824TIP3    H223964   3.461   0.991   4.477  1.9642 -0.9883 -0.9370
  825TIP3   OH223965   5.191   3.263   3.009  0.1199  0.1757  0.0431
  825TIP3    H123966   5.199   3.170   2.989  0.6557  0.4701 -1.1779
  825TIP3    H223967   5.101   3.285   2.986 -1.0557 -0.6846  3.2949
  826TIP3   OH223968   6.613   4.231   3.415  0.1457  0.4870  0.0910
  826TIP3    H123969   6.533   4.281   3.401  0.0642  0.4368  0.3707
  826TIP3    H223970   6.604   4.195   3.502  0.2093 -0.0145 -0.1088
  827TIP3   OH223971   2.582   5.793  12.880 -0.1928  0.5722  0.2099
  827TIP3    H123972   2.538   5.857  12.824 -1.6198 -1.0614 -0.6345
  827TIP3    H223973   2.661   5.769  12.833  0.1048  1.3284  0.3073
  828TIP3   OH223974   5.943   0.031   2.335 -0.1050 -0.1355 -0.4330
  828TIP3    H123975   5.971   0.117   2.369  0.1179 -0.0350 -0.8605
  828TIP3    H223976   5.955  -0.028   2.409  2.4651 -0.3406 -0.9032
  829TIP3   OH223977   1.664   2.618  15.098 -0.2351 -0.7597 -0.7803
  829TIP3    H123978   1.759   2.604  15.089 -0.0460 -0.4892  0.5962
  829TIP3    H223979   1.652   2.711  15.081 -0.4305 -1.0010 -2.0861
  830TIP3   OH223980   4.078   2.513   3.058  0.2401 -0.2274 -0.0707
  830TIP3    H123981   4.148   2.455   3.026 -1.1878 -1.0008 -2.0247
  830TIP3    H223982   4.040   2.550   2.979 -0.7991  1.1031  1.0116
  831TIP3   OH223983   0.394   2.117  15.558  0.1583  0.4977  0.1139
  831TIP3    H123984   0.437   2.196  15.524  1.1508 -0.4253 -0.8625
  831TIP3    H223985   0.388   2.132  15.653  0.2501  1.7778 -0.0685
  832TIP3   OH223986   5.051   0.244   6.411  0.3934 -0.2652 -0.2898
  832TIP3    H123987   5.110   0.305   6.456  0.5599  0.1447 -1.0521
  832TIP3    H223988   4.963   0.275   6.432  0.4832  1.0729 -1.7715
  833TIP3   OH223989   4.795   4.600  12.499 -0.1943 -0.2438  0.4783
  833TIP3    H123990   4.710   4.577  12.463 -0.4508  1.2471  0.0741
  833TIP3    H223991   4.858   4.563  12.437 -0.6179  2.9270 -2.1561
  834TIP3   OH223992   1.303   6.306  16.030 -0.3565  0.0393 -0.1681
  834TIP3    H123993   1.259   6.391  16.023  0.5769  0.7293  1.7659
  834TIP3    H223994   1.283   6.276  16.119  0.7110 -0.9669 -0.2481
  835TIP3   OH223995   3.273   5.411  11.660  0.0098  0.2428 -0.3373
  835TIP3    H123996   3.345   5.382  11.605  0.5160  1.6262 -0.4650
  835TIP3    H223997   3.290   5.505  11.673 -0.0823 -0.0087  2.1538
  836TIP3   OH223998   4.698   4.438   6.104 -0.7611 -0.8886 -0.0194
  836TIP3    H123999   4.626   4.384   6.072 -1.0183 -1.4244  1.3844
  836TIP3    H224000   4.701   4.420   6.198  1.3045 -0.9912 -0.0608
  837TIP3   OH224001   5.663   5.350  12.062  0.3214  0.0565 -0.1544
  837TIP3    H124002   5.679   5.356  12.156  0.3945 -1.5850 -0.0322
  837TIP3    H224003   5.572   5.379  12.051  1.0152  2.5583  0.0657
  838TIP3   OH224004   3.148   2.005   3.561 -0.7649  0.7120 -0.1012
  838TIP3    H124005   3.211   1.939   3.533  1.8125  2.5508  1.0046
  838TIP3    H224006   3.139   2.063   3.486 -3.6112 -1.0913 -1.3534
  839TIP3   OH224007   6.568   4.175   0.237 -0.0660 -0.0658  0.1665
  839TIP3    H124008   6.559   4.082   0.257 -0.4985 -0.1971 -0.5943
  839TIP3    H224009   6.658   4.185   0.206  0.7904  0.2291  2.5190
  840TIP3   OH224010   5.783   5.027   5.680 -0.1099 -0.0210 -0.1074
  840TIP3    H124011   5.867   5.047   5.721  1.0147  0.9051 -2.6507
  840TIP3    H224012   5.803   4.959   5.616 -1.4360 -0.2547 -0.2968
  841TIP3   OH224013   0.800   2.376  10.691  0.1637  0.0873 -0.7268
  841TIP3    H124014   0.723   2.433  10.700  0.0388  0.2210 -2.3334
  841TIP3    H224015   0.782   2.302  10.749 -0.4301  0.8709  0.1328
  842TIP3   OH224016   3.701   4.219  12.556 -0.5191 -0.3726  0.6665
  842TIP3    H124017   3.745   4.214  12.471  0.1962  0.9328  0.9327
  842TIP3    H224018   3.751   4.158  12.612 -0.1597 -0.2380  0.4966
  843TIP3   OH224019   5.354   6.639   1.099 -0.5365  0.2196  0.1579
  843TIP3    H124020   5.379   6.678   1.016 -2.5954  1.3528 -0.0015
  843TIP3    H224021   5.285   6.577   1.076 -0.7067  0.1061  0.9526
  844TIP3   OH224022   4.689   3.523  15.955 -0.0043  0.6451 -0.1550
  844TIP3    H124023   4.681   3.549  16.047 -0.7972 -0.7769  0.2185
  844TIP3    H224024   4.725   3.435  15.959 -2.2004 -0.3739 -1.0576
  845TIP3   OH224025   3.311   1.817   0.781 -0.3164  0.5071 -0.3623
  845TIP3    H124026   3.233   1.851   0.737 -0.5731 -0.1480 -0.4231
  845TIP3    H224027   3.372   1.797   0.709 -1.2886 -1.9689 -0.5837
  846TIP3   OH224028   4.831   0.473  13.867  0.0646  0.1043 -0.4510
  846TIP3    H124029   4.735   0.471  13.877  0.1762  0.0505  0.7108
  846TIP3    H224030   4.861   0.531  13.937  0.9844 -1.1200  0.2060
  847TIP3   OH224031   0.091   0.627   3.280  0.3431  0.1195  0.0702
  847TIP3    H124032   0.182   0.629   3.311  0.1476  0.1638  0.6646
  847TIP3    H224033   0.077   0.538   3.250  0.5185  0.0549  0.1793
  848TIP3   OH224034   2.519   1.023  10.935  0.0846  0.1723  0.2371
  848TIP3    H124035   2.537   0.929  10.924 -2.0704  0.0353 -4.8457
  848TIP3    H224036   2.586   1.067  10.883 -1.4015  1.0769 -0.9916
  849TIP3   OH224037   0.312   2.881   1.998 -0.0160 -0.1005 -0.4019
  849TIP3    H124038   0.316   2.960   2.052  1.4323  0.0832 -0.7293
  849TIP3    H224039   0.223   2.880   1.963 -1.2530 -0.6379  2.5247
  850TIP3   OH224040   2.773   6.264  11.341 -0.1589  0.3910  0.7716
  850TIP3    H124041   2.795   6.280  11.250  1.3414 -1.1236  0.8230
  850TIP3    H224042   2.680   6.286  11.348 -1.1458 -2.3253 -1.8704
  851TIP3   OH224043   6.070   6.655   5.053  0.7768 -0.2884 -0.0972
  851TIP3    H124044   6.095   6.679   5.142  0.8973 -1.0956  0.0929
  851TIP3    H224045   6.131   6.586   5.028  0.1723 -0.7081 -0.4637
  852TIP3   OH224046   5.870   5.186   5.397  0.1566 -0.5463  0.1725
  852TIP3    H124047   5.834   5.125   5.461 -0.1931  2.1309  2.7268
  852TIP3    H224048   5.946   5.225   5.440  1.0816  0.0202 -1.8346
  853TIP3   OH224049   1.401   0.555  12.076  0.3061 -1.0181 -0.0942
  853TIP3    H124050   1.439   0.510  12.000  0.2959 -1.2523  0.0394
  853TIP3    H224051   1.340   0.491  12.113 -0.7244 -0.4179 -0.6955
  854TIP3   OH224052   2.293   0.722  13.043 -0.2213 -0.5321  0.3505
  854TIP3    H124053   2.258   0.671  12.970 -0.1946  0.0265 -0.0518
  854TIP3    H224054   2.235   0.798  13.050 -0.6127 -0.9078  1.3270
  855TIP3   OH224055   3.630   0.369   0.334 -0.4133 -0.8783  0.0324
  855TIP3    H124056   3.702   0.307   0.321 -0.6236 -1.0126 -0.5231
  855TIP3    H224057   3.608   0.399   0.246  0.0356  0.3917  0.3330
  856TIP3   OH224058   3.769   0.026   6.604 -0.3871 -0.1668  0.0097
  856TIP3    H124059   3.782   0.092   6.672 -2.1564 -1.8532  2.1350
  856TIP3    H224060   3.853  -0.020   6.599 -0.9498 -1.9196  3.3599
  857TIP3   OH224061   2.075   5.730   4.097 -0.0055  0.3670 -0.1561
  857TIP3    H124062   2.142   5.691   4.042 -1.5947 -0.8233 -1.3421
  857TIP3    H224063   2.105   5.716   4.187  0.9888 -0.7359 -0.6489
  858TIP3   OH224064   6.122   2.238   2.475  0.3895 -0.0560  0.2516
  858TIP3    H124065   6.155   2.192   2.397 -0.6305 -0.6488  0.1467
  858TIP3    H224066   6.071   2.311   2.440  0.2185 -0.1179  0.3718
  859TIP3   OH224067   1.252   2.675   0.701  0.2489  0.3456 -0.1771
  859TIP3    H124068   1.299   2.757   0.690 -0.0116  0.4076 -0.8695
  859TIP3    H224069   1.313   2.619   0.750 -0.2702  1.5473  1.9798
  860TIP3   OH224070   3.959   2.223   4.329  0.0969  0.2286 -0.1948
  860TIP3    H124071   3.896   2.207   4.400  0.9622 -0.4942  0.4410
  860TIP3    H224072   3.938   2.157   4.263 -0.6702  0.8615 -0.5973
  861TIP3   OH224073   0.643   0.613  11.099  0.6828  0.1296 -0.2076
  861TIP3    H124074   0.678   0.647  11.016  1.2975  2.8207  1.0534
  861TIP3    H224075   0.712   0.555  11.132  1.3573  0.6885 -0.5977
  862TIP3   OH224076   6.587   3.136   1.074 -0.2872 -0.6273 -0.8434
  862TIP3    H124077   6.626   3.216   1.040  0.8355 -1.0543 -0.5921
  862TIP3    H224078   6.547   3.095   0.998 -2.4832  1.0260 -0.6927
  863TIP3   OH224079   1.041   2.758   0.513  0.2007  0.2588 -0.4913
  863TIP3    H124080   1.034   2.666   0.488  0.2881  0.0005  0.3888
  863TIP3    H224081   1.109   2.760   0.581 -1.6430  0.5284  1.4556
  864TIP3   OH224082   4.933   3.226   0.566  0.1901  0.3549  0.5268
  864TIP3    H124083   4.974   3.147   0.530 -0.2582  0.5222 -0.3845
  864TIP3    H224084   4.858   3.194   0.616  0.7109  0.1304  1.1764
  865TIP3   OH224085   0.397   4.262  16.834  0.4498 -0.0404  0.6661
  865TIP3    H124086   0.368   4.172  16.816  2.0458 -0.3297 -0.6539
  865TIP3    H224087   0.323   4.317  16.809 -0.6866 -0.9657  1.8259
  866TIP3   OH224088   4.245   4.732  12.818  0.5590 -0.2590  0.3961
  866TIP3    H124089   4.267   4.781  12.739  1.6547 -1.0445  0.1936
  866TIP3    H224090   4.171   4.780  12.855  0.9052  0.9275 -0.3585
  867TIP3   OH224091   0.989   0.232   4.835 -0.1803 -0.1985  0.3526
  867TIP3    H124092   1.060   0.172   4.859 -0.2297 -0.8577 -1.0461
  867TIP3    H224093   0.910   0.179   4.841 -0.2482 -0.2406 -0.6641
  868TIP3   OH224094   4.107   3.053   3.950 -0.6211  0.0417  0.0693
  868TIP3    H124095   4.110   3.134   4.000  1.1512 -0.0855  0.2461
  868TIP3    H224096   4.171   3.067   3.879  1.0868 -1.7867  1.1317
  869TIP3   OH224097   2.951   6.198   2.325  0.2224 -0.6409  0.1899
  869TIP3    H124098   3.046   6.194   2.327  0.3380  1.2645  0.6951
  869TIP3    H224099   2.931   6.291   2.335 -1.7058 -1.0516  0.5191
  870TIP3   OH224100   2.246   0.106  12.229  0.4008  0.3441 -0.2461
  870TIP3    H124101   2.194   0.054  12.290  0.9712  0.3352  0.2374
  870TIP3    H224102   2.198   0.101  12.146  0.4749 -1.0330 -0.2381
  871TIP3   OH224103   5.186   0.843   3.473 -0.4033  0.5337  0.2284
  871TIP3    H124104   5.126   0.908   3.509  0.5639  2.3246 -1.1664
  871TIP3    H224105   5.254   0.895   3.430  0.9765 -1.4212 -0.1136
  872TIP3   OH224106   2.946   0.372  15.226  0.8431  0.3851  0.2667
  872TIP3    H124107   2.874   0.414  15.179  1.0509  1.4241  0.8448
  872TIP3    H224108   2.933   0.279  15.211 -0.0055  0.6159 -0.5248
  873TIP3   OH224109   4.308   5.949   5.134 -0.3588 -0.4018  0.1828
  873TIP3    H124110   4.395   5.982   5.156 -0.5233  0.5310 -0.4584
  873TIP3    H224111   4.280   5.901   5.211 -0.3698  1.5865  1.5116
  874TIP3   OH224112   1.470   6.469  13.392 -0.4446  0.0255 -0.2784
  874TIP3    H124113   1.555   6.433  13.418 -0.2396  0.9815  0.4324
  874TIP3    H224114   1.484   6.501  13.302  0.1520  0.8082  0.0856
  875TIP3   OH224115   0.951   0.853  14.065 -0.8318 -0.9130 -0.9524
  875TIP3    H124116   1.039   0.885  14.083 -0.9513 -1.2438  0.3119
  875TIP3    H224117   0.903   0.870  14.146 -2.3494  0.6045 -2.0843
  876TIP3   OH224118   2.093   6.597   2.505 -0.2038  0.5567 -0.4992
  876TIP3    H124119   2.138   6.540   2.567 -0.0214 -0.9511 -1.9530
  876TIP3    H224120   2.051   6.664   2.560  0.6715 -0.1952  1.1547
  877TIP3   OH224121   4.475   6.464   4.329  0.6053 -0.4831 -0.0572
  877TIP3    H124122   4.499   6.376   4.301 -2.5645 -2.0420  1.5327
  877TIP3    H224123   4.540   6.487   4.395  2.1189 -1.0825 -1.2598
  878TIP3   OH224124   6.795   0.719  16.883 -0.0104  0.3444 -0.0001
  878TIP3    H124125   6.832   0.662  16.950 -0.1861 -0.3077 -0.4479
  878TIP3    H224126   6.867   0.735  16.822 -1.1463 -3.8875 -2.9102
  879TIP3   OH224127   5.242   3.413  15.085  0.4245 -0.1201  0.4318
  879TIP3    H124128   5.288   3.482  15.133 -1.0404  0.2670  1.3266
  879TIP3    H224129   5.310   3.347  15.068  2.1078  1.9207 -1.3363
  880TIP3   OH224130   4.276   5.815   3.164 -0.4605  0.0224 -0.0334
  880TIP3    H124131   4.299   5.785   3.252 -0.3234  1.1574  0.3416
  880TIP3    H224132   4.188   5.852   3.173 -0.3737  0.3062 -0.3283
  881TIP3   OH224133   2.764   0.864   0.242 -0.0832  0.1102  0.7571
  881TIP3    H124134   2.791   0.911   0.321 -1.6124  1.7111  0.3859
  881TIP3    H224135   2.764   0.931   0.174  0.4154 -1.0784 -0.4417
  882TIP3   OH224136   6.526   1.167  11.517  0.0695 -0.6912 -0.1908
  882TIP3    H124137   6.446   1.208  11.484  0.2773 -0.9546 -1.0579
  882TIP3    H224138   6.572   1.237  11.563  0.0035 -0.1682 -0.8995
  883TIP3   OH224139   2.212   3.675  15.477 -0.3348 -0.0294 -0.0100
  883TIP3    H124140   2.120   3.655  15.494  0.1189 -1.3800  1.0167
  883TIP3    H224141   2.230   3.636  15.391 -0.3647 -1.0737  0.4400
  884TIP3   OH224142   2.550   3.370   1.375  0.4192  0.1966  0.4078
  884TIP3    H124143   2.645   3.379   1.376  0.3808  0.6031  0.5236
  884TIP3    H224144   2.525   3.392   1.286  0.2473  2.1525  0.8986
  885TIP3   OH224145   5.560   6.739  12.949 -0.5761 -0.1586  0.6502
  885TIP3    H124146   5.534   6.818  12.998  0.7640  0.2648  0.7124
  885TIP3    H224147   5.613   6.772  12.877 -1.6522 -0.8746 -0.5060
  886TIP3   OH224148   2.245   2.978   5.676  0.1398 -0.1092 -0.5168
  886TIP3    H124149   2.332   2.963   5.640  0.1309 -0.6038 -0.3414
  886TIP3    H224150   2.186   2.969   5.602 -0.0349 -2.6846 -0.1633
  887TIP3   OH224151   1.138   1.761   6.320 -0.3574  0.2332  0.0931
  887TIP3    H124152   1.137   1.802   6.234  0.6203 -0.1379 -0.1185
  887TIP3    H224153   1.085   1.818   6.375 -1.2000  0.3379 -0.8132
  888TIP3   OH224154   1.041   4.870   5.829  0.1246 -0.0951  0.0972
  888TIP3    H124155   1.027   4.876   5.735 -0.6345 -0.1479  0.2024
  888TIP3    H224156   0.953   4.866   5.867  0.4151  0.1113  0.8218
  889TIP3   OH224157   5.770   0.634   1.917  0.2263  0.5401  0.4915
  889TIP3    H124158   5.713   0.697   1.873  1.8556  0.9810 -1.0716
  889TIP3    H224159   5.825   0.598   1.847  0.4988 -1.3851  1.6130
  890TIP3   OH224160   1.644   4.081  14.597 -0.4877  0.1359 -0.2174
  890TIP3    H124161   1.737   4.089  14.621 -0.1326  1.3356 -1.7785
  890TIP3    H224162   1.636   3.994  14.559  0.8836  1.1623 -3.2136
  891TIP3   OH224163   6.634   2.992  14.954  0.6606  0.1397  0.6843
  891TIP3    H124164   6.725   2.992  14.922 -0.6429  0.9427 -3.6709
  891TIP3    H224165   6.609   3.084  14.954 -0.1972 -0.0768  1.8640
  892TIP3   OH224166   0.259   3.900  14.204 -0.0272  0.8652  0.4730
  892TIP3    H124167   0.346   3.927  14.173  0.2447 -0.4543 -0.0224
  892TIP3    H224168   0.275   3.863  14.291 -0.1730  1.1107  0.6029
  893TIP3   OH224169   2.928   2.781  15.076 -0.2278  0.4808 -0.2807
  893TIP3    H124170   2.856   2.813  15.022 -0.5361 -0.2528 -0.3193
  893TIP3    H224171   2.987   2.856  15.086 -1.0048  1.0908 -0.2361
  894TIP3   OH224172   2.016   2.322  15.357  0.3623 -0.0061 -0.2793
  894TIP3    H124173   2.063   2.241  15.338 -0.6927 -0.8298  0.5342
  894TIP3    H224174   1.924   2.302  15.342  0.1853  1.4993 -1.5365
  895TIP3   OH224175   3.135   0.534  13.743 -0.4272 -0.4163 -0.1723
  895TIP3    H124176   3.170   0.544  13.655  0.2203  1.3476  0.2549
  895TIP3    H224177   3.179   0.601  13.795 -2.0020 -0.3255  1.1329
  896TIP3   OH224178   4.489   6.563   2.858 -0.4972  0.5050 -0.2720
  896TIP3    H124179   4.530   6.479   2.839 -1.2751  0.2657 -0.9138
  896TIP3    H224180   4.493   6.611   2.775 -1.8206  0.3456 -0.4401
  897TIP3   OH224181   4.058   5.249  16.153 -0.7808  0.6275 -0.1117
  897TIP3    H124182   4.084   5.320  16.211  1.4600 -0.4703  0.3563
  897TIP3    H224183   4.007   5.190  16.208  1.3894 -0.4431  0.8927
  898TIP3   OH224184   2.479   3.294   2.441  0.5807  0.2841 -0.1068
  898TIP3    H124185   2.434   3.327   2.518  0.8124  0.5875 -0.0997
  898TIP3    H224186   2.571   3.292   2.466  0.5193 -0.8344  0.0612
  899TIP3   OH224187   1.499   1.309   5.032 -0.4574 -0.1604 -0.6231
  899TIP3    H124188   1.526   1.378   5.093 -0.4676  0.7856 -1.6618
  899TIP3    H224189   1.577   1.291   4.980 -1.2244  1.2753 -2.3993
  900TIP3   OH224190   0.338   5.852   2.241 -0.1672 -0.0323  0.3412
  900TIP3    H124191   0.243   5.864   2.249 -0.1590 -0.4055  1.0496
  900TIP3    H224192   0.367   5.833   2.330  0.5148 -0.3660  0.0504
  901TIP3   OH224193   2.931   4.165  15.451  0.1133  0.1600  0.4895
  901TIP3    H124194   2.845   4.124  15.447 -0.2806  1.0540 -0.4938
  901TIP3    H224195   2.927   4.221  15.528  0.2868 -0.7876  1.2108
  902TIP3   OH224196   1.580   2.539  14.301  0.0709  0.3211 -0.2872
  902TIP3    H124197   1.613   2.464  14.351 -1.5098 -0.3939 -0.2605
  902TIP3    H224198   1.637   2.544  14.224 -0.4071 -1.5562 -0.8037
  903TIP3   OH224199   0.612   2.417   1.970  0.1334  0.6671 -0.3852
  903TIP3    H124200   0.656   2.373   2.042 -1.8544  0.3018  0.6739
  903TIP3    H224201   0.660   2.499   1.959  0.6781  0.5797  1.1348
  904TIP3   OH224202   1.057   5.894  10.964 -0.0749 -0.0543 -0.6487
  904TIP3    H124203   0.972   5.851  10.961  0.4450 -1.0752 -1.0298
  904TIP3    H224204   1.049   5.957  11.035 -0.9411 -0.5832 -0.2630
  905TIP3   OH224205   5.052   5.828  11.912 -0.1004 -0.1276 -0.2104
  905TIP3    H124206   5.047   5.907  11.858 -1.8853  0.4175  0.6523
  905TIP3    H224207   5.088   5.761  11.854  0.0557  0.9615 -1.4090
  906TIP3   OH224208   1.323   6.017  15.832 -0.0723 -0.1913  0.4619
  906TIP3    H124209   1.238   6.010  15.874 -0.5023 -1.0757 -0.5061
  906TIP3    H224210   1.324   5.945  15.768  1.6575 -0.6111  0.9160
  907TIP3   OH224211   1.115   6.637  10.735  0.0399 -0.1112 -0.2655
  907TIP3    H124212   1.120   6.549  10.699  0.4864  0.4706 -1.6994
  907TIP3    H224213   1.206   6.662  10.752 -0.1758 -0.5225  1.7394
  908TIP3   OH224214   0.682   6.565   1.533 -0.2016 -0.5085  0.2196
  908TIP3    H124215   0.656   6.657   1.533 -1.7864 -0.9073 -0.1644
  908TIP3    H224216   0.770   6.564   1.568  0.0604  1.2156 -0.3024
  909TIP3   OH224217   4.455   2.622   0.279  0.0236 -0.2146  0.1897
  909TIP3    H124218   4.409   2.600   0.198  1.3488  0.3560 -0.7579
  909TIP3    H224219   4.510   2.546   0.297 -1.9905 -1.3760  1.9353
  910TIP3   OH224220   4.459   5.011   2.848  0.3907  0.1022 -0.6389
  910TIP3    H124221   4.378   4.978   2.810 -0.0267  0.5622 -0.1659
  910TIP3    H224222   4.488   5.080   2.788 -1.4780  2.4381  0.9451
  911TIP3   OH224223   2.371   3.900   2.171  0.0807 -0.0921  0.7153
  911TIP3    H124224   2.383   3.864   2.083 -1.8168 -0.0513  0.4121
  911TIP3    H224225   2.405   3.989   2.165  0.6115 -0.3200  0.2258
  912TIP3   OH224226   5.749   3.768   5.178 -0.2449  0.0782  0.6155
  912TIP3    H124227   5.799   3.849   5.171 -0.9733  0.4042 -1.4876
  912TIP3    H224228   5.796   3.706   5.122 -1.0683 -0.1997  0.2173
  913TIP3   OH224229   5.635   4.379  16.189  0.4679 -0.1009 -0.5560
  913TIP3    H124230   5.570   4.354  16.255 -1.1295 -1.6312 -2.5837
  913TIP3    H224231   5.717   4.341  16.220 -0.0372  0.0143  0.9930
  914TIP3   OH224232   4.245   6.357  13.899 -0.5182 -0.0307  0.3321
  914TIP3    H124233   4.293   6.354  13.817 -1.6541  0.6186 -0.3888
  914TIP3    H224234   4.156   6.381  13.874 -0.9467 -0.0371  1.7344
  915TIP3   OH224235   5.067   6.741  11.182 -0.0563 -0.2831  0.0561
  915TIP3    H124236   5.113   6.825  11.190  1.3301 -0.9093 -0.8265
  915TIP3    H224237   5.099   6.705  11.099  1.3521 -2.8252  1.5823
  916TIP3   OH224238   4.835   5.246   6.159  0.0442  0.3424  0.9110
  916TIP3    H124239   4.753   5.263   6.206 -0.6185  1.2839 -0.5073
  916TIP3    H224240   4.903   5.284   6.215 -0.2657 -1.6921  2.8079
  917TIP3   OH224241   5.821   3.722  11.259 -0.3336 -0.1893  0.3809
  917TIP3    H124242   5.910   3.751  11.278 -1.0386  1.2322  1.6656
  917TIP3    H224243   5.832   3.657  11.190  2.0225 -2.5645  2.7404
  918TIP3   OH224244   1.585   1.415   5.875 -0.1058  0.0264  0.6767
  918TIP3    H124245   1.536   1.370   5.944  0.5421 -0.1964  1.0072
  918TIP3    H224246   1.655   1.461   5.922 -0.4822  1.0057  0.2953
  919TIP3   OH224247   3.984   4.998  11.421  0.1114 -0.1507 -0.4554
  919TIP3    H124248   4.012   4.973  11.333 -0.5048  0.3106 -0.7821
  919TIP3    H224249   3.893   4.969  11.427 -0.3134  1.1208 -0.4988
  920TIP3   OH224250   5.702   1.669  15.184  0.0372  0.2150 -0.2031
  920TIP3    H124251   5.761   1.616  15.237  0.5614  1.0071  0.0289
  920TIP3    H224252   5.675   1.612  15.112 -0.5706 -0.8267  0.8220
  921TIP3   OH224253   5.802   6.728  15.828  0.4452 -0.2547  0.2545
  921TIP3    H124254   5.850   6.736  15.910 -0.6650 -0.2874  0.9183
  921TIP3    H224255   5.728   6.670  15.848  1.8960 -3.0005 -1.5503
  922TIP3   OH224256   3.977   6.145   5.362  0.0815  0.6817 -0.0627
  922TIP3    H124257   4.053   6.133   5.305  0.3862  1.0751  0.2554
  922TIP3    H224258   3.954   6.056   5.389  1.5017  0.6704  1.2122
  923TIP3   OH224259   3.955   3.745  13.516 -0.1688  0.3631  0.4933
  923TIP3    H124260   3.928   3.654  13.533 -0.2164  0.5671  1.6124
  923TIP3    H224261   3.913   3.795  13.586 -1.4556  1.5007 -1.0231
  924TIP3   OH224262   1.643   1.542  15.389 -0.3841  0.7990  0.1745
  924TIP3    H124263   1.566   1.590  15.359 -1.3780 -0.5403  0.4606
  924TIP3    H224264   1.620   1.512  15.477  0.4735  0.4184  0.2798
  925TIP3   OH224265   3.522   5.624   5.662  0.1256  0.2083 -0.1377
  925TIP3    H124266   3.540   5.570   5.739  1.3268  0.5153 -0.1852
  925TIP3    H224267   3.497   5.709   5.699 -0.0564  0.1322 -0.0835
  926TIP3   OH224268   1.173   0.389  12.183  0.0209  0.0620  0.4953
  926TIP3    H124269   1.190   0.320  12.119 -0.0577  0.1568  0.3719
  926TIP3    H224270   1.078   0.401  12.180  0.2167  1.4674 -0.8128
  927TIP3   OH224271   6.412   2.686  11.570 -0.0434 -0.1971 -0.2329
  927TIP3    H124272   6.442   2.664  11.658 -0.4571  1.6510  0.4208
  927TIP3    H224273   6.428   2.607  11.518  1.6621 -0.7937  1.1185
  928TIP3   OH224274   5.018   4.709   2.341 -0.4490 -0.2023 -0.2603
  928TIP3    H124275   4.939   4.697   2.393 -0.1710 -2.2510 -0.2473
  928TIP3    H224276   5.077   4.758   2.398 -0.7207 -1.0412  0.7621
  929TIP3   OH224277   4.887   1.959  16.056  0.2596 -0.1218 -0.8196
  929TIP3    H124278   4.935   1.909  16.122  0.1635  0.9932  0.1311
  929TIP3    H224279   4.798   1.923  16.059  0.3975 -0.4607 -0.7543
  930TIP3   OH224280   6.533   4.652   1.305  0.1612  0.0793  0.0494
  930TIP3    H124281   6.589   4.728   1.292 -0.4700  0.3564 -1.1680
  930TIP3    H224282   6.476   4.650   1.228  0.6329 -2.0408 -0.3108
  931TIP3   OH224283   6.395   4.570  13.071 -0.2142  0.1332  0.2435
  931TIP3    H124284   6.335   4.640  13.096  0.5726  0.9776 -0.1699
  931TIP3    H224285   6.435   4.601  12.990  0.4596 -0.6076  0.2820
  932TIP3   OH224286   2.592   3.527   1.117 -0.3894  0.2452  0.1146
  932TIP3    H124287   2.663   3.489   1.066 -1.1129 -2.0493  0.6965
  932TIP3    H224288   2.626   3.612   1.146  1.4635 -0.0793 -0.9376
  933TIP3   OH224289   5.545   3.534   3.511  0.2268  0.1545 -0.0861
  933TIP3    H124290   5.522   3.446   3.541  1.4867  0.4859  2.0608
  933TIP3    H224291   5.505   3.592   3.575 -0.3176  1.1611 -1.3023
  934TIP3   OH224292   0.143   5.418  14.527  0.1516  0.6864 -0.2295
  934TIP3    H124293   0.179   5.349  14.471  0.4835  0.3925  0.3353
  934TIP3    H224294   0.209   5.488  14.525  0.2722  0.5789 -0.0202
  935TIP3   OH224295   6.318   3.323  16.300  0.2591 -0.1301 -0.2132
  935TIP3    H124296   6.222   3.328  16.306  0.1915 -2.0691  1.7116
  935TIP3    H224297   6.347   3.414  16.302 -1.5413  0.5068 -1.0597
  936TIP3   OH224298   3.606   4.320  15.011 -0.1234  0.5289 -0.4401
  936TIP3    H124299   3.552   4.294  14.937 -0.7760  1.5968 -0.3619
  936TIP3    H224300   3.575   4.408  15.035  0.5984  0.5339  0.5954
  937TIP3   OH224301   3.395   3.811   2.066 -0.3873  0.0397 -0.0351
  937TIP3    H124302   3.460   3.797   1.997 -1.7330 -0.7219 -1.2096
  937TIP3    H224303   3.311   3.803   2.022 -1.3074  1.1155  1.4159
  938TIP3   OH224304   0.775   4.686  16.087  0.3878  0.5407  0.0195
  938TIP3    H124305   0.811   4.643  16.009 -1.0019  0.5944 -0.6943
  938TIP3    H224306   0.681   4.688  16.071  0.3018  2.9194  0.5019
  939TIP3   OH224307   2.010   1.170   0.898  0.1755 -0.6412  0.0474
  939TIP3    H124308   2.037   1.201   0.984  0.6268 -1.3483  0.1704
  939TIP3    H224309   2.075   1.104   0.875 -0.4205 -1.0600 -0.4671
  940TIP3   OH224310   4.041   3.068   5.853 -0.1031 -0.1051 -0.3107
  940TIP3    H124311   4.002   3.000   5.798  0.5411 -0.0690 -0.8196
  940TIP3    H224312   4.001   3.055   5.939  2.1729 -3.0797  0.4479
  941TIP3   OH224313   0.467   5.210   1.452  0.3135 -0.5033 -0.3607
  941TIP3    H124314   0.438   5.230   1.541 -1.0712 -0.4238 -0.8086
  941TIP3    H224315   0.545   5.264   1.440 -0.0844  0.2861  0.4428
  942TIP3   OH224316   0.674   5.240   3.565 -0.2734  0.1516  0.0774
  942TIP3    H124317   0.747   5.274   3.514 -0.2757  3.5399  2.0307
  942TIP3    H224318   0.692   5.146   3.573  3.1573  0.6151 -0.6496
  943TIP3   OH224319   0.160   2.583  13.006  0.2361 -0.2848  0.3245
  943TIP3    H124320   0.181   2.513  12.943 -1.4995  0.3810 -1.1006
  943TIP3    H224321   0.235   2.642  13.002  0.8211 -1.0224  0.0258
  944TIP3   OH224322   4.943   0.996  12.298 -0.5515 -0.1404  0.0466
  944TIP3    H124323   4.967   0.977  12.207 -0.2902  0.5676 -0.0423
  944TIP3    H224324   4.987   1.079  12.317 -1.2307  0.1144  0.5655
  945TIP3   OH224325   1.463   6.080  12.432  0.1179 -0.5268  0.1881
  945TIP3    H124326   1.404   6.135  12.484  0.6294  0.0774  0.1418
  945TIP3    H224327   1.474   6.129  12.350 -0.7967 -1.5343 -0.5691
  946TIP3   OH224328   4.945   2.230  15.560 -0.0161 -1.1443 -0.7784
  946TIP3    H124329   5.009   2.170  15.599  0.6408 -0.2400 -0.4550
  946TIP3    H224330   4.971   2.317  15.590 -0.0216 -0.5066 -2.5202
  947TIP3   OH224331   0.170   0.601   1.856  0.3170 -0.1522 -0.6128
  947TIP3    H124332   0.235   0.557   1.910 -0.3730  0.7711  1.0362
  947TIP3    H224333   0.215   0.619   1.774  1.9531 -0.0447  0.2770
  948TIP3   OH224334   0.090   4.701  14.855  0.1038  0.1386  1.1420
  948TIP3    H124335   0.183   4.685  14.871  0.3054  0.5671  0.3937
  948TIP3    H224336   0.050   4.613  14.858  0.4722 -0.0134  1.7809
  949TIP3   OH224337   2.205   0.899   6.237 -0.0175 -0.0778  0.1335
  949TIP3    H124338   2.127   0.898   6.182  0.8244 -1.8003 -1.1620
  949TIP3    H224339   2.175   0.867   6.322 -0.7189 -0.7816 -0.3625
  950TIP3   OH224340   4.086   6.321  14.215  0.0360  0.6316 -0.0635
  950TIP3    H124341   4.091   6.237  14.169 -0.8701  0.8145 -0.5150
  950TIP3    H224342   4.169   6.365  14.195  1.6940 -1.1479  2.2112
  951TIP3   OH224343   3.281   0.594   0.237 -0.6039  0.2630 -0.2769
  951TIP3    H124344   3.368   0.625   0.212 -0.3114 -0.8563 -0.7310
  951TIP3    H224345   3.290   0.570   0.330  0.6146 -3.0484 -1.0917
  952TIP3   OH224346   0.087   2.171   6.094  0.7922  0.2201 -0.5296
  952TIP3    H124347   0.067   2.264   6.081 -0.1671 -0.0523 -1.0865
  952TIP3    H224348   0.081   2.158   6.189 -0.4909  0.4375 -0.5595
  953TIP3   OH224349   1.872   2.802   1.667 -0.5420 -0.2872  0.0686
  953TIP3    H124350   1.922   2.741   1.721 -0.9184 -2.1128 -1.5345
  953TIP3    H224351   1.785   2.802   1.706 -0.2408  0.1661  0.7674
  954TIP3   OH224352   1.822   0.993   5.414 -0.5319  0.0149  0.2797
  954TIP3    H124353   1.769   1.051   5.360 -1.0696  2.3384  3.1177
  954TIP3    H224354   1.910   1.000   5.376 -0.9670  1.1940 -0.5710
  955TIP3   OH224355   0.023   1.688   0.326 -0.3021  0.0831 -0.3675
  955TIP3    H124356  -0.044   1.638   0.279 -0.1841 -1.1703  0.7359
  955TIP3    H224357   0.105   1.666   0.282 -0.6358  2.1264 -2.1354
  956TIP3   OH224358   6.070   2.004  11.637 -0.2822  0.0999  0.2900
  956TIP3    H124359   6.090   2.065  11.708  2.1097  2.1167 -1.9036
  956TIP3    H224360   5.989   2.038  11.598 -0.6416  0.0104  0.9386
  957TIP3   OH224361   3.103   2.961   4.342  0.0338  0.2010  0.2928
  957TIP3    H124362   3.110   3.038   4.399 -1.6067  0.4494  0.2165
  957TIP3    H224363   3.186   2.915   4.353  1.5573  2.6105 -0.5976
  958TIP3   OH224364   0.742   1.842   0.808 -0.5686  0.3086  0.8891
  958TIP3    H124365   0.649   1.822   0.821 -0.6308 -1.3348 -1.4180
  958TIP3    H224366   0.788   1.765   0.841 -0.2208  0.0069 -0.2492
  959TIP3   OH224367   0.300   6.618  11.673  0.0613  0.4124  0.6675
  959TIP3    H124368   0.340   6.555  11.613  1.6567  1.4347  0.6105
  959TIP3    H224369   0.242   6.565  11.728  0.1159 -0.8432 -0.4363
  960TIP3   OH224370   6.069   2.410   4.783  0.0425 -0.1309 -0.2346
  960TIP3    H124371   6.141   2.457   4.825  0.0065  1.3112 -1.6994
  960TIP3    H224372   6.081   2.319   4.810  1.2943  0.3800  1.0741
  961TIP3   OH224373   3.047   5.361   1.046  0.1489 -0.2506  0.1824
  961TIP3    H124374   3.078   5.283   1.091  0.1890 -1.0089 -1.1040
  961TIP3    H224375   2.956   5.342   1.023 -0.6991  1.1450  2.1228
  962TIP3   OH224376   2.258   1.710  14.446  0.4098 -0.1613 -0.0444
  962TIP3    H124377   2.322   1.750  14.505  1.9119 -1.0703 -1.0008
  962TIP3    H224378   2.301   1.632  14.412 -0.6716 -0.0721 -1.7881
  963TIP3   OH224379   2.100   0.977  16.439  0.3462  0.1982 -0.0108
  963TIP3    H124380   2.078   0.969  16.346 -2.0776  0.7264  0.4634
  963TIP3    H224381   2.128   1.069  16.449  1.1772 -0.0133 -0.2965
  964TIP3   OH224382   6.242   4.414   2.626 -0.1033 -0.3335  0.5164
  964TIP3    H124383   6.160   4.406   2.674  0.3541 -1.1038  1.1768
  964TIP3    H224384   6.279   4.497   2.656 -0.5077 -0.0991  0.3911
  965TIP3   OH224385   0.054   3.513  16.009 -0.1905 -0.4819 -0.3413
  965TIP3    H124386   0.070   3.424  15.979 -0.6940  0.1769 -2.7999
  965TIP3    H224387  -0.037   3.513  16.038 -0.1250 -0.8056 -0.1321
  966TIP3   OH224388   1.340   5.516  17.241  0.3340  0.1519  0.0458
  966TIP3    H124389   1.315   5.506  17.149  1.4579 -2.0251 -0.0854
  966TIP3    H224390   1.264   5.486  17.291 -0.1051  0.8943 -0.1646
  967TIP3   OH224391   5.656   3.320   3.020  0.0975 -0.3338  0.3843
  967TIP3    H124392   5.608   3.359   3.094  2.6639  3.2018  0.4204
  967TIP3    H224393   5.723   3.266   3.062  0.0959 -0.2216  0.5332
  968TIP3   OH224394   1.502   4.904  14.762 -0.0736 -0.0288 -0.4046
  968TIP3    H124395   1.579   4.939  14.807  0.7264 -1.9926 -0.1645
  968TIP3    H224396   1.510   4.809  14.771 -2.3775 -0.2861 -0.6573
  969TIP3   OH224397   6.050   6.269  15.363  0.2533 -0.3499 -0.0158
  969TIP3    H124398   6.136   6.306  15.340  0.4087 -0.8694 -0.2946
  969TIP3    H224399   6.071   6.190  15.414 -0.0431 -0.7343 -0.4732
  970TIP3   OH224400   5.095   4.665  11.594 -0.5522  0.4605  0.2681
  970TIP3    H124401   5.010   4.682  11.635 -0.7924 -2.4134  1.2007
  970TIP3    H224402   5.091   4.573  11.568  2.2526  0.2317  0.3308
  971TIP3   OH224403   0.523   2.890   3.132  0.0272 -0.5055  0.3682
  971TIP3    H124404   0.593   2.826   3.143  0.8890  0.7489  3.0592
  971TIP3    H224405   0.567   2.971   3.107 -0.6483 -0.1014  0.4518
  972TIP3   OH224406   2.213   0.587  11.526  0.7944 -0.5579 -0.6881
  972TIP3    H124407   2.154   0.512  11.539  0.8055 -0.4459  0.0182
  972TIP3    H224408   2.172   0.636  11.455 -0.8181  0.3203  0.7636
  973TIP3   OH224409   2.100   1.648  15.391 -0.1223 -0.6063 -0.1856
  973TIP3    H124410   2.140   1.611  15.312 -2.7992 -0.2539 -1.8636
  973TIP3    H224411   2.136   1.737  15.396  0.8237 -0.9663 -0.4179
  974TIP3   OH224412   4.585   5.412  15.383 -0.3299 -0.4234  0.0765
  974TIP3    H124413   4.580   5.347  15.313 -0.4657 -1.3009  0.8822
  974TIP3    H224414   4.498   5.452  15.385 -0.3297 -0.4078 -0.2438
  975TIP3   OH224415   6.085   1.447  10.567  0.0500  0.7239 -0.2857
  975TIP3    H124416   6.124   1.533  10.582  0.9942  0.4048 -0.8271
  975TIP3    H224417   6.121   1.418  10.483 -0.3964 -0.1187 -0.1980
  976TIP3   OH224418   4.628   6.469  10.565  0.4377  0.5549  0.3132
  976TIP3    H124419   4.613   6.400  10.629  0.3304  0.6991  0.4463
  976TIP3    H224420   4.541   6.502  10.544  0.5137  0.9605  0.6012
  977TIP3   OH224421   4.073   1.036   1.315  0.4443  0.6622 -0.9256
  977TIP3    H124422   4.075   1.122   1.357  1.4151 -0.2432  1.0467
  977TIP3    H224423   4.165   1.009   1.312 -0.0062 -1.7822  1.9500
  978TIP3   OH224424   6.504   0.651   2.519  0.5697 -0.2505 -0.0769
  978TIP3    H124425   6.482   0.663   2.612 -0.1910 -0.2441 -0.2566
  978TIP3    H224426   6.591   0.611   2.521  1.3661  1.4030  0.6094
  979TIP3   OH224427   0.036   4.080   3.001 -0.1589  0.2069 -0.3029
  979TIP3    H124428   0.036   4.123   2.915 -0.9359 -2.1378 -1.5909
  979TIP3    H224429   0.122   4.036   3.005  0.5324  1.6022  0.8792
  980TIP3   OH224430   3.944   4.009   4.675  0.0549  0.3868  0.5213
  980TIP3    H124431   3.896   4.059   4.609  0.3251  1.0086  0.7877
  980TIP3    H224432   3.915   4.046   4.759  3.5424  3.3160  0.6814
  981TIP3   OH224433   5.393   6.592   5.009 -0.4879  0.6577  0.0378
  981TIP3    H124434   5.433   6.633   5.086 -2.1948  0.2248  1.1996
  981TIP3    H224435   5.359   6.666   4.958  2.5576  1.1449 -1.5521
  982TIP3   OH224436   3.303   1.857  14.439  0.7954 -0.1273 -0.2382
  982TIP3    H124437   3.300   1.806  14.520  0.4772 -0.0828 -0.2204
  982TIP3    H224438   3.335   1.796  14.373 -2.5186 -1.3400 -0.9350
  983TIP3   OH224439   6.594   4.749  13.753 -0.4915 -0.0259  0.0157
  983TIP3    H124440   6.574   4.693  13.678  0.3767 -0.5661  0.1732
  983TIP3    H224441   6.512   4.751  13.803 -0.8699 -0.2212 -0.5875
  984TIP3   OH224442   2.371   1.946   0.065 -0.2415 -0.1629  0.6445
  984TIP3    H124443   2.356   1.995   0.146 -0.4424  1.4884 -0.3410
  984TIP3    H224444   2.295   1.888   0.058 -1.4110  1.3265  0.4972
  985TIP3   OH224445   5.065   0.433  16.861  0.1413 -0.0106 -0.4251
  985TIP3    H124446   5.081   0.358  16.803  0.6716 -0.2200 -0.0184
  985TIP3    H224447   5.122   0.502  16.827  0.3192 -0.0766 -0.2604
  986TIP3   OH224448   0.034   4.990   0.322  0.2110 -0.6412 -0.2079
  986TIP3    H124449  -0.022   5.067   0.313  0.4013 -0.5733 -0.8600
  986TIP3    H224450   0.024   4.943   0.239  2.6484  0.3898 -1.1632
  987TIP3   OH224451   2.314   6.639  14.116  0.3795  0.1138  0.0317
  987TIP3    H124452   2.309   6.726  14.155  0.0680 -0.1621  0.6234
  987TIP3    H224453   2.228   6.625  14.077  0.5873  0.2623 -0.4867
  988TIP3   OH224454   0.543   1.863  14.691  0.0267  0.0956 -0.0803
  988TIP3    H124455   0.463   1.851  14.640 -0.3302  3.9900 -0.7147
  988TIP3    H224456   0.525   1.819  14.774 -2.8307  0.8504 -0.1992
  989TIP3   OH224457   4.754   2.804   4.981 -0.0574 -0.5042  0.6065
  989TIP3    H124458   4.799   2.849   4.910  2.1127  1.1867  2.8656
  989TIP3    H224459   4.661   2.814   4.960  0.4870  0.5710 -1.5918
  990TIP3   OH224460   0.734   0.457  11.575 -0.1065  0.3447  0.6332
  990TIP3    H124461   0.802   0.517  11.606 -1.4891  1.5158  1.5127
  990TIP3    H224462   0.757   0.373  11.613  1.4086  0.4723  0.0691
  991TIP3   OH224463   4.585   0.284   4.642  0.4853  0.6413 -0.7584
  991TIP3    H124464   4.625   0.328   4.716 -2.1064 -0.1305  1.2396
  991TIP3    H224465   4.557   0.355   4.584 -0.0022  1.4095  0.4042
  992TIP3   OH224466   2.193   5.924  14.539  0.1281 -0.1046 -0.1196
  992TIP3    H124467   2.190   6.004  14.488  0.7962  0.5259  0.7990
  992TIP3    H224468   2.101   5.905  14.559  0.0527  2.2783  2.4034
  993TIP3   OH224469   5.363   1.825   1.107 -0.0804 -0.0673  0.1490
  993TIP3    H124470   5.401   1.825   1.195  0.2197  0.1612  0.0208
  993TIP3    H224471   5.276   1.865   1.118 -0.5557 -1.1810  0.5550
  994TIP3   OH224472   4.238   6.624   3.492 -0.0239  0.1331  0.5383
  994TIP3    H124473   4.155   6.663   3.464  0.2277 -0.5304 -1.2877
  994TIP3    H224474   4.227   6.607   3.586 -0.7602  2.9408  1.0468
  995TIP3   OH224475   1.473   3.341  11.999 -0.5453 -0.3760 -0.8249
  995TIP3    H124476   1.462   3.249  12.022 -0.5923 -0.1434  0.1332
  995TIP3    H224477   1.430   3.350  11.914 -1.5429 -0.9975 -0.4086
  996TIP3   OH224478   4.221   4.310  14.047  0.6967  0.2092 -0.2980
  996TIP3    H124479   4.257   4.266  14.124 -0.0851  0.2481  0.0889
  996TIP3    H224480   4.126   4.305  14.058  0.5830  1.5258 -0.5109
  997TIP3   OH224481   0.370   4.629  11.889  0.5415  0.1283  0.3611
  997TIP3    H124482   0.465   4.623  11.874  0.2675  0.4369 -1.7245
  997TIP3    H224483   0.345   4.713  11.850 -0.4748  0.5148  1.7531
  998TIP3   OH224484   5.931   4.158  11.494 -0.1418 -0.2683 -0.0068
  998TIP3    H124485   5.882   4.240  11.505 -2.1381 -1.3728 -0.1731
  998TIP3    H224486   5.975   4.145  11.578  0.0506  0.8687  0.0865
  999TIP3   OH224487   2.435   3.144   3.441 -0.1231  0.2755  0.1397
  999TIP3    H124488   2.474   3.231   3.438 -1.3924  0.8480 -0.3994
  999TIP3    H224489   2.361   3.153   3.502 -2.1456  0.4221 -2.1760
 1000TIP3   OH224490   4.165   3.639  15.363 -0.2716 -0.3929 -0.6129
 1000TIP3    H124491   4.095   3.611  15.304 -0.2637  1.7135 -1.7255
 1000TIP3    H224492   4.131   3.718  15.405 -0.2705 -1.8256  2.3101
 1001TIP3   OH224493   2.853   5.514  15.139 -0.0762 -0.0230 -0.0275
 1001TIP3    H124494   2.906   5.552  15.209 -0.1813 -1.0096  0.6143
 1001TIP3    H224495   2.915   5.498  15.068  0.2360  0.0407  0.2299
 1002TIP3   OH224496   6.741   2.099  13.161 -0.3195 -0.3545 -0.0531
 1002TIP3    H124497   6.784   2.181  13.139 -0.5903 -0.4635 -1.0246
 1002TIP3    H224498   6.805   2.052  13.215  0.7642 -0.4684 -1.3797
 1003TIP3   OH224499   5.623   6.320  11.267 -0.0415  0.1939 -0.4529
 1003TIP3    H124500   5.666   6.264  11.203 -0.8648  1.1596 -1.9133
 1003TIP3    H224501   5.532   6.325  11.237 -1.2472 -1.6682  2.4273
 1004TIP3   OH224502   6.706   4.886  14.597  0.2093  0.1448  0.3268
 1004TIP3    H124503   6.691   4.896  14.692 -1.1144 -0.6550  0.2278
 1004TIP3    H224504   6.652   4.811  14.572  0.8466  0.1055 -1.0069
 1005TIP3   OH224505   2.755   3.350   2.453 -0.4862  0.2830 -0.5717
 1005TIP3    H124506   2.790   3.262   2.465  0.1853  0.8007  1.8595
 1005TIP3    H224507   2.831   3.404   2.431 -0.4846  0.6286  0.2355
 1006TIP3   OH224508   4.022   4.017   0.472  0.1435 -0.3190 -0.3628
 1006TIP3    H124509   3.970   3.945   0.506  1.4727 -1.6317 -0.9969
 1006TIP3    H224510   3.975   4.046   0.394 -0.9296  0.2141  0.4514
 1007TIP3   OH224511   3.585   3.756   4.824  0.1703  0.8507 -0.0120
 1007TIP3    H124512   3.651   3.735   4.890 -1.4572 -1.2125  1.1080
 1007TIP3    H224513   3.541   3.834   4.858 -0.6502 -0.1884  1.4474
 1008TIP3   OH224514   5.978   0.550  15.101 -0.0615  0.3057  0.0292
 1008TIP3    H124515   6.055   0.500  15.129 -1.7429 -0.3280  4.4039
 1008TIP3    H224516   5.910   0.524  15.163 -3.1829  2.5925 -2.1596
 1009TIP3   OH224517   1.943   0.120   5.475 -0.2916 -0.0579 -0.2136
 1009TIP3    H124518   1.993   0.038   5.479  0.6987  0.5613  0.7153
 1009TIP3    H224519   1.912   0.125   5.385 -0.9331 -1.7721 -0.1123
 1010TIP3   OH224520   3.069   4.780   5.811 -0.4105  0.3267  0.4629
 1010TIP3    H124521   3.143   4.839   5.823  0.6583 -0.7167 -0.7190
 1010TIP3    H224522   2.992   4.837   5.818  0.5618  1.7969 -0.3108
 1011TIP3   OH224523   5.361   3.445   6.870  0.3280  0.0100  0.0269
 1011TIP3    H124524   5.450   3.482   6.869  0.4584 -0.3011 -0.1233
 1011TIP3    H224525   5.312   3.498   6.808  0.0390  1.0692  1.1294
 1012TIP3   OH224526   5.464   2.602   3.392  0.3067 -0.2563  0.3524
 1012TIP3    H124527   5.426   2.629   3.475 -0.3418  0.3976 -0.1489
 1012TIP3    H224528   5.405   2.638   3.325  0.8345 -0.7406 -0.3927
 1013TIP3   OH224529   4.243   3.505   5.526  0.2145 -0.5898  0.1769
 1013TIP3    H124530   4.308   3.557   5.478  0.3117 -0.2272  0.6862
 1013TIP3    H224531   4.167   3.502   5.469 -0.2723  1.2227  0.6497
 1014TIP3   OH224532   4.499   1.027   4.788 -0.7636 -0.2889 -0.1483
 1014TIP3    H124533   4.521   1.018   4.695  0.0272  0.3548 -0.0312
 1014TIP3    H224534   4.519   1.118   4.809  2.6374 -1.2370  1.5121
 1015TIP3   OH224535   2.788   4.978  14.827  0.2723  0.1337  0.1475
 1015TIP3    H124536   2.715   4.981  14.765 -0.3192  0.3903  0.8232
 1015TIP3    H224537   2.864   5.004  14.777 -0.3036  0.9423 -0.3342
 1016TIP3   OH224538   6.173   0.596  15.698 -0.4392  0.1428  0.3950
 1016TIP3    H124539   6.267   0.615  15.703 -0.1479  0.2917 -2.9560
 1016TIP3    H224540   6.133   0.654  15.763  1.7084  0.6302  1.3631
 1017TIP3   OH224541   5.924   3.939  14.083  0.5316 -0.3622  0.3661
 1017TIP3    H124542   5.984   4.001  14.124 -0.6887  0.5742  0.7845
 1017TIP3    H224543   5.973   3.905  14.008  1.4039  0.7790  0.3856
 1018TIP3   OH224544   4.211   6.415   4.473 -0.1095  0.2874  0.6443
 1018TIP3    H124545   4.306   6.415   4.459 -0.2962 -0.9726 -0.8052
 1018TIP3    H224546   4.174   6.399   4.387 -1.5485 -2.4828  1.6598
 1019TIP3   OH224547   6.279   1.866   0.965  0.0437 -0.0996 -0.0185
 1019TIP3    H124548   6.368   1.842   0.942 -0.2809 -1.5625  0.1515
 1019TIP3    H224549   6.248   1.919   0.892  0.0273 -2.1826 -1.6099
 1020TIP3   OH224550   1.865   2.085  15.204  0.4169 -0.3384 -0.6390
 1020TIP3    H124551   1.831   2.065  15.118  1.0622 -1.9359 -0.5479
 1020TIP3    H224552   1.838   2.012  15.259  0.8282  0.1858  0.2877
 1021TIP3   OH224553   0.706   0.994   4.807 -0.7456 -0.1122  0.2352
 1021TIP3    H124554   0.796   1.013   4.833  0.1123 -1.3468 -1.6198
 1021TIP3    H224555   0.664   0.964   4.888 -0.2156  2.6169  1.6696
 1022TIP3   OH224556   5.409   5.531   1.054  0.1386  0.1470 -0.7559
 1022TIP3    H124557   5.447   5.578   0.979 -2.7729  0.7528 -2.0285
 1022TIP3    H224558   5.402   5.597   1.122 -0.1852  0.5063 -1.1263
 1023TIP3   OH224559   5.095   5.570  13.998 -0.0711 -0.1833 -0.3234
 1023TIP3    H124560   5.003   5.550  14.016 -0.4608  0.1248 -1.7715
 1023TIP3    H224561   5.137   5.485  13.988 -0.1299 -0.3280  0.6396
 1024TIP3   OH224562   5.546   2.796  12.991  0.1021 -0.9682 -0.5046
 1024TIP3    H124563   5.489   2.863  13.027 -1.0179 -1.7407 -0.7986
 1024TIP3    H224564   5.526   2.717  13.040  3.2964 -0.6139  1.7040
 1025TIP3   OH224565   5.990   5.818  14.741 -0.5501 -0.0601  0.2738
 1025TIP3    H124566   5.997   5.730  14.704  0.4834  0.2899 -0.4047
 1025TIP3    H224567   5.932   5.808  14.816  1.3313 -1.7592  1.6068
 1026TIP3   OH224568   4.134   4.381  16.779 -0.0724  0.0480 -0.5144
 1026TIP3    H124569   4.229   4.373  16.785 -0.1244 -0.1253  0.2143
 1026TIP3    H224570   4.105   4.391  16.870 -0.5975  2.0797 -0.8521
 1027TIP3   OH224571   5.130   3.213   3.640  0.1229 -0.1560 -0.0728
 1027TIP3    H124572   5.070   3.154   3.685  0.2007  0.6172  1.0721
 1027TIP3    H224573   5.087   3.233   3.557 -1.2326  0.4104  0.7409
 1028TIP3   OH224574   6.764   0.939  13.434  0.4794 -0.7268 -0.7545
 1028TIP3    H124575   6.797   0.856  13.469  0.6094  0.2467  1.6370
 1028TIP3    H224576   6.809   1.006  13.485 -1.0253  0.7847 -1.3098
 1029TIP3   OH224577   2.093   0.160  13.427 -0.7179  0.2099  0.1949
 1029TIP3    H124578   2.007   0.119  13.422 -0.5879 -0.2354  1.1977
 1029TIP3    H224579   2.089   0.234  13.366 -2.0906  0.6911  0.8292
 1030TIP3   OH224580   6.013   4.420   3.639 -0.6044  0.3888 -0.3794
 1030TIP3    H124581   6.089   4.475   3.657 -0.5007  0.1130  0.0398
 1030TIP3    H224582   6.051   4.336   3.610 -0.7388  0.1020  0.2629
 1031TIP3   OH224583   5.802   4.123  14.414  0.1759 -0.7436  0.0684
 1031TIP3    H124584   5.818   4.204  14.366 -1.4396 -0.0149  0.6998
 1031TIP3    H224585   5.864   4.126  14.487 -0.2509  0.2086  0.4072
 1032TIP3   OH224586   1.409   4.603   4.629 -0.1932  0.2292  0.4457
 1032TIP3    H124587   1.367   4.526   4.667  0.2325 -0.4544 -0.4445
 1032TIP3    H224588   1.421   4.581   4.537  0.4256  1.1587  0.2898
 1033TIP3   OH224589   0.489   0.413   0.189  0.9316 -0.1099  0.4839
 1033TIP3    H124590   0.534   0.451   0.265  1.1513 -0.3605  0.4839
 1033TIP3    H224591   0.484   0.319   0.210 -1.9795  0.2142  1.7252
 1034TIP3   OH224592   5.362   2.797  14.596  0.4154  0.7016  0.3989
 1034TIP3    H124593   5.341   2.841  14.514  1.1556  0.5469  0.1278
 1034TIP3    H224594   5.349   2.865  14.663  0.5773  1.0451  0.0820
 1035TIP3   OH224595   3.334   0.253  15.146 -0.5200 -0.0324 -0.7763
 1035TIP3    H124596   3.427   0.237  15.131 -0.5393 -1.6882  0.5133
 1035TIP3    H224597   3.306   0.178  15.198 -2.1919  1.3252  0.3646
 1036TIP3   OH224598   6.117   1.629   2.978 -0.1519 -0.3716  0.2756
 1036TIP3    H124599   6.096   1.713   3.020 -1.6378 -1.0606  0.9790
 1036TIP3    H224600   6.116   1.649   2.884  1.2922  0.7637  0.4567
 1037TIP3   OH224601   5.918   0.069   3.071  0.1517  0.3225 -0.8360
 1037TIP3    H124602   6.006   0.096   3.043 -0.1406  1.8640 -0.3845
 1037TIP3    H224603   5.896  -0.004   3.014  1.7662 -0.1619 -0.8911
 1038TIP3   OH224604   2.860   4.950   5.914  0.3386 -0.2268  0.6301
 1038TIP3    H124605   2.889   5.040   5.897  2.0464 -0.4682  1.9297
 1038TIP3    H224606   2.772   4.946   5.878  1.1940  1.1586 -1.8532
 1039TIP3   OH224607   1.893   1.865  12.755  0.2911  0.1736 -0.5752
 1039TIP3    H124608   1.938   1.781  12.756 -0.2098 -0.0999  0.1270
 1039TIP3    H224609   1.938   1.918  12.820 -0.0680  0.0668 -0.2297
 1040TIP3   OH224610   6.000   0.102  11.176  0.2393 -0.5288  0.0890
 1040TIP3    H124611   5.980   0.123  11.267  0.7323  0.1171  0.0601
 1040TIP3    H224612   5.945   0.026  11.156 -1.6446  0.7377  0.2046
 1041TIP3   OH224613   2.123   1.387   4.552  0.2738 -0.0539  0.0346
 1041TIP3    H124614   2.209   1.426   4.540  0.8814 -1.6752 -1.1832
 1041TIP3    H224615   2.140   1.306   4.601 -0.7744  0.4122  1.2329
 1042TIP3   OH224616   1.577   2.270  12.136 -0.6086 -0.2720 -0.0234
 1042TIP3    H124617   1.550   2.189  12.180 -0.7904 -1.3379 -1.9890
 1042TIP3    H224618   1.497   2.301  12.092 -0.1644  0.1026 -0.5855
 1043TIP3   OH224619   3.857   2.073   4.852  0.1416 -0.4376  0.3895
 1043TIP3    H124620   3.930   2.072   4.913 -0.7987  0.5933  1.5922
 1043TIP3    H224621   3.813   2.157   4.868 -0.0033 -0.0237 -1.8875
 1044TIP3   OH224622   0.213   1.495  12.713  0.2847 -0.0358  0.1164
 1044TIP3    H124623   0.241   1.520  12.625  2.4110 -2.8457 -0.1515
 1044TIP3    H224624   0.158   1.568  12.742  1.4789  2.1357 -2.5595
 1045TIP3   OH224625   2.741   3.830  17.157 -0.0329 -0.0845  0.3630
 1045TIP3    H124626   2.659   3.844  17.205 -1.2401 -1.0695 -1.3235
 1045TIP3    H224627   2.801   3.895  17.193 -1.9539  1.5845  0.7299
 1046TIP3   OH224628   4.828   1.784   4.077 -0.0442 -0.4659 -0.1755
 1046TIP3    H124629   4.740   1.811   4.103 -0.1922  0.5081 -1.5304
 1046TIP3    H224630   4.872   1.759   4.158 -0.5773  2.0034  0.9372
 1047TIP3   OH224631   4.340   4.147   3.247  0.1610 -0.4556 -0.0546
 1047TIP3    H124632   4.434   4.144   3.230  0.7517  0.5604  2.5993
 1047TIP3    H224633   4.303   4.187   3.168  1.8562 -1.3422 -1.3576
 1048TIP3   OH224634   4.704   0.646  12.049 -0.2110 -0.3345  0.3194
 1048TIP3    H124635   4.786   0.624  12.095  0.2216  0.5985  0.0234
 1048TIP3    H224636   4.638   0.590  12.090  0.7195 -1.7152 -0.0040
 1049TIP3   OH224637   1.617   0.006  14.041  0.7919 -0.2765  0.2694
 1049TIP3    H124638   1.628  -0.048  14.120 -0.8480 -0.6754  0.2582
 1049TIP3    H224639   1.705   0.039  14.023  0.8921  1.7701  3.6306
 1050TIP3   OH224640   5.918   3.459   3.816  0.1233  0.3842  0.0426
 1050TIP3    H124641   5.949   3.515   3.744  0.3250 -0.1331 -0.2718
 1050TIP3    H224642   5.822   3.467   3.811  0.1034 -0.1707 -0.7123
 1051TIP3   OH224643   2.575   1.623  16.825 -0.5820 -0.1041 -0.0867
 1051TIP3    H124644   2.542   1.591  16.741  1.2707  0.1814 -0.9698
 1051TIP3    H224645   2.507   1.599  16.888 -2.6103  0.7459 -1.8211
 1052TIP3   OH224646   3.810   0.805   3.073  0.4558  0.1264  0.5646
 1052TIP3    H124647   3.727   0.853   3.067  0.2165 -0.4038 -0.6429
 1052TIP3    H224648   3.785   0.717   3.101  0.7432  0.3088  1.3973
 1053TIP3   OH224649   2.872   3.025   0.101  0.4835 -0.0149  0.1121
 1053TIP3    H124650   2.963   3.026   0.071  0.8404 -0.4050  1.1324
 1053TIP3    H224651   2.847   2.933   0.097  0.3079  0.0234  0.3172
 1054TIP3   OH224652   2.596   1.084   3.463  0.4415 -0.5716  0.2426
 1054TIP3    H124653   2.668   1.125   3.414  0.3168 -1.9228 -1.1158
 1054TIP3    H224654   2.518   1.108   3.414  0.1065 -0.4228  0.8394
 1055TIP3   OH224655   2.281   3.459   6.551 -1.1023 -0.2097  0.2957
 1055TIP3    H124656   2.234   3.539   6.526 -1.8872 -0.4481  0.9588
 1055TIP3    H224657   2.253   3.394   6.487  0.3053  0.2782 -0.8506
 1056TIP3   OH224658   0.165   0.375   0.226 -0.1560 -0.0788 -0.3825
 1056TIP3    H124659   0.086   0.349   0.179  0.7944 -0.8717 -1.5967
 1056TIP3    H224660   0.216   0.424   0.162  0.4754  0.1585  0.2923
 1057TIP3   OH224661   3.023   0.211   5.712 -0.1555  0.0164 -0.1560
 1057TIP3    H124662   3.050   0.244   5.798  1.8106 -0.8076 -0.4191
 1057TIP3    H224663   2.977   0.284   5.672  0.2956  0.9463  0.9648
 1058TIP3   OH224664   0.529   0.638   5.682 -0.4741  0.6636  0.0315
 1058TIP3    H124665   0.451   0.647   5.736  0.0117 -0.2009  0.9098
 1058TIP3    H224666   0.601   0.666   5.738 -0.2812  3.3802 -1.3923
 1059TIP3   OH224667   5.480   0.003  14.351 -0.0602  0.3425  0.3483
 1059TIP3    H124668   5.475  -0.071  14.291 -1.4426  0.5079  0.2460
 1059TIP3    H224669   5.485  -0.037  14.438 -0.6136  0.1264  0.2822
 1060TIP3   OH224670   0.829   6.410   0.183  0.5832 -0.6699  0.1829
 1060TIP3    H124671   0.742   6.421   0.143 -0.0924 -2.0679  1.2232
 1060TIP3    H224672   0.827   6.465   0.261  0.6617 -0.6668  0.1834
 1061TIP3   OH224673   3.776   5.408   0.272 -0.0393  0.0403 -0.2674
 1061TIP3    H124674   3.850   5.375   0.322  0.2827  0.0977 -0.6919
 1061TIP3    H224675   3.699   5.382   0.321  0.2953  1.0227  0.8152
 1062TIP3   OH224676   3.732   0.858  11.001  0.6240 -0.0915 -0.3184
 1062TIP3    H124677   3.743   0.831  10.910 -0.4119 -0.7742 -0.2521
 1062TIP3    H224678   3.653   0.813  11.031  0.8862  0.2032  0.8908
 1063TIP3   OH224679   2.699   4.521  14.362 -0.1127 -0.3004  0.3436
 1063TIP3    H124680   2.689   4.514  14.457 -0.5978 -0.7646  0.2639
 1063TIP3    H224681   2.627   4.469  14.326 -1.4690  1.8608 -0.2889
 1064TIP3   OH224682   3.917   5.550  13.916  0.5690 -0.1157 -0.0019
 1064TIP3    H124683   3.835   5.581  13.955  0.0418 -1.8137  0.3121
 1064TIP3    H224684   3.984   5.577  13.979  0.1179  0.2152  0.3502
 1065TIP3   OH224685   2.937   0.221  16.981  0.3462  0.0936  0.2224
 1065TIP3    H124686   2.952   0.213  16.887 -0.5999  1.1940 -0.0540
 1065TIP3    H224687   2.842   0.222  16.990  0.4142  1.1771  1.0563
 1066TIP3   OH224688   5.260   0.824   0.347  0.1831  0.2159  0.3945
 1066TIP3    H124689   5.301   0.784   0.423  0.8975  0.2107  0.0183
 1066TIP3    H224690   5.242   0.914   0.373 -2.0629 -0.4783  1.4862
 1067TIP3   OH224691   1.755   3.361  14.318 -0.2809 -0.6682 -0.2661
 1067TIP3    H124692   1.715   3.365  14.231  0.9137  2.0988 -0.8361
 1067TIP3    H224693   1.796   3.447  14.329  1.1218 -1.5395  2.3344
 1068TIP3   OH224694   3.522   2.598  12.882 -0.3710  0.1187 -0.0414
 1068TIP3    H124695   3.448   2.618  12.823 -0.0051 -2.0892 -1.3342
 1068TIP3    H224696   3.505   2.509  12.913  1.2300 -0.0268  0.4847
 1069TIP3   OH224697   1.118   0.001   5.444  0.5068 -0.1604  0.0925
 1069TIP3    H124698   1.060  -0.045   5.505 -0.5594  1.3139  0.2245
 1069TIP3    H224699   1.190   0.032   5.499  0.1448  0.1571  0.3947
 1070TIP3   OH224700   6.154   3.311  15.733  0.4890 -0.3838 -0.3597
 1070TIP3    H124701   6.144   3.276  15.821  1.4166  1.3454  0.4697
 1070TIP3    H224702   6.199   3.241  15.685  0.4714 -1.1238  0.6641
 1071TIP3   OH224703   6.698   1.437   1.748 -0.7153  0.0552  0.3087
 1071TIP3    H124704   6.776   1.386   1.724 -0.9010 -1.3301  2.4346
 1071TIP3    H224705   6.722   1.527   1.731  0.5918 -0.5127 -1.0573
 1072TIP3   OH224706   4.524   6.537  11.829 -0.2015 -0.2742  0.4519
 1072TIP3    H124707   4.470   6.616  11.840 -2.5275 -1.9810  2.3639
 1072TIP3    H224708   4.538   6.531  11.735 -1.4651  1.4801  0.0841
 1073TIP3   OH224709   1.935   0.452  15.668 -1.0899  0.0871 -0.0690
 1073TIP3    H124710   2.004   0.393  15.640 -0.5881 -0.2603  1.7689
 1073TIP3    H224711   1.961   0.538  15.635  0.4323  0.0294  0.9130
 1074TIP3   OH224712   2.597   2.563   0.628 -0.4961  0.0899  0.5711
 1074TIP3    H124713   2.543   2.641   0.642  1.3679  1.3079  1.4732
 1074TIP3    H224714   2.599   2.519   0.713  0.3609  0.3729  0.7080
 1075TIP3   OH224715   4.556   6.452   1.746 -0.0597 -0.1517  0.0884
 1075TIP3    H124716   4.565   6.453   1.651  0.7232  0.0658  0.1551
 1075TIP3    H224717   4.625   6.511   1.777 -0.6137  0.1562  0.7671
 1076TIP3   OH224718   2.667   4.221   3.879  0.7431 -0.3803 -0.0431
 1076TIP3    H124719   2.762   4.232   3.891  0.3813  0.0731  3.4201
 1076TIP3    H224720   2.642   4.291   3.819  2.4911 -0.1582 -0.5685
 1077TIP3   OH224721   4.171   3.197  12.210 -0.0145 -0.2416 -0.1015
 1077TIP3    H124722   4.139   3.146  12.135  1.2834 -1.5834  0.2016
 1077TIP3    H224723   4.220   3.269  12.171 -0.9650  0.2080 -0.5259
 1078TIP3   OH224724   5.124   4.205  15.282  0.1982  0.0169  0.2912
 1078TIP3    H124725   5.173   4.179  15.360  0.2136  1.9588  0.9813
 1078TIP3    H224726   5.037   4.168  15.295  1.0469 -2.4396 -0.3781
 1079TIP3   OH224727   4.134   1.193  13.741  0.8168 -0.1787 -0.1005
 1079TIP3    H124728   4.196   1.171  13.811 -0.0399 -1.2210  0.3486
 1079TIP3    H224729   4.091   1.273  13.771  0.1346 -0.8615  0.8031
 1080TIP3   OH224730   3.160   0.942   3.666  0.3103 -0.0031 -0.0432
 1080TIP3    H124731   3.167   1.031   3.632  1.2203 -0.0819 -0.0837
 1080TIP3    H224732   3.089   0.947   3.731 -0.0748  0.5965 -0.4956
 1081TIP3   OH224733   4.275   4.125   2.978  0.0444  0.4632  0.5827
 1081TIP3    H124734   4.325   4.045   2.994  0.1597  0.3771 -0.1754
 1081TIP3    H224735   4.271   4.131   2.882  1.1928  2.0820  0.6015
 1082TIP3   OH224736   0.782   3.945   5.300 -0.0249 -0.2794 -0.3140
 1082TIP3    H124737   0.840   3.877   5.334  0.3511  0.3372  0.3019
 1082TIP3    H224738   0.730   3.973   5.375 -0.1344  0.1587 -0.5491
 1083TIP3   OH224739   0.739   1.034  11.922 -0.7876  0.0298  0.0061
 1083TIP3    H124740   0.829   1.064  11.937 -0.9252  0.2209  0.4854
 1083TIP3    H224741   0.723   0.972  11.994 -0.8070 -0.5278 -0.4715
 1084TIP3   OH224742   6.483   0.081   4.394  0.0445  0.0843  0.5238
 1084TIP3    H124743   6.516   0.093   4.483  2.5181  2.0762 -0.5023
 1084TIP3    H224744   6.518  -0.004   4.367 -0.6160 -0.4748  1.3588
 1085TIP3   OH224745   3.096   3.260   2.913  0.0176 -0.1852  0.0123
 1085TIP3    H124746   3.155   3.272   2.987 -0.5356  2.6481  0.1147
 1085TIP3    H224747   3.010   3.248   2.953  0.1439 -1.9955 -0.1773
 1086TIP3   OH224748   5.116   3.338   1.933  0.1739 -0.5715 -0.0054
 1086TIP3    H124749   5.048   3.395   1.896 -0.5377 -0.8912  0.7829
 1086TIP3    H224750   5.087   3.322   2.023  2.6302  1.5013  1.2931
 1087TIP3   OH224751   3.122   4.469   0.846  0.2841 -0.0819  0.0144
 1087TIP3    H124752   3.085   4.501   0.764 -1.9486  0.6994  1.2232
 1087TIP3    H224753   3.171   4.544   0.881 -1.1261  0.5747  0.6752
 1088TIP3   OH224754   5.803   2.441   1.335 -0.4752 -0.0363  0.0506
 1088TIP3    H124755   5.839   2.515   1.384 -1.6144 -0.8127  2.2104
 1088TIP3    H224756   5.760   2.481   1.259 -0.2705  1.4183  0.6636
 1089TIP3   OH224757   5.013   6.278   5.972 -0.7860  0.0427 -0.4846
 1089TIP3    H124758   4.951   6.221   5.926 -2.5772  2.4576 -1.2967
 1089TIP3    H224759   5.049   6.224   6.041 -2.2761 -2.0915 -1.2760
 1090TIP3   OH224760   1.734   4.162   5.987  0.1439 -0.0216  0.3475
 1090TIP3    H124761   1.667   4.216   6.030 -0.3139 -0.6973  0.5049
 1090TIP3    H224762   1.768   4.217   5.916  0.1282  0.6980  0.8833
 1091TIP3   OH224763   3.362   2.521  12.684  0.3867 -0.4442 -0.2547
 1091TIP3    H124764   3.290   2.478  12.639  0.2795  2.0665 -2.7983
 1091TIP3    H224765   3.439   2.469  12.663 -0.4396 -2.6672  1.7820
 1092TIP3   OH224766   5.533   3.736  16.132  0.1173 -0.6870 -0.2786
 1092TIP3    H124767   5.577   3.745  16.217 -1.0938 -0.5245  0.3556
 1092TIP3    H224768   5.443   3.711  16.155 -0.4778  0.2792 -1.4815
 1093TIP3   OH224769   1.875   6.654  14.925 -0.2930 -0.5190 -0.1977
 1093TIP3    H124770   1.861   6.626  14.834  0.2690  2.2332 -1.2197
 1093TIP3    H224771   1.966   6.681  14.928 -0.4937  0.0696  1.0078
 1094TIP3   OH224772   1.739   3.125   2.067 -0.8157 -0.5858  0.1347
 1094TIP3    H124773   1.762   3.169   2.149 -1.9216  0.2243  0.0334
 1094TIP3    H224774   1.760   3.033   2.082 -0.4892 -0.3611  1.1264
 1095TIP3   OH224775   4.014   2.931   0.576  0.2323  0.0068 -0.1880
 1095TIP3    H124776   4.050   3.013   0.543  3.7361 -1.7752 -1.2709
 1095TIP3    H224777   3.977   2.888   0.499 -0.9697  0.1888  0.2552
 1096TIP3   OH224778   1.049   3.679  15.881 -0.5547 -0.2087  0.5364
 1096TIP3    H124779   1.103   3.670  15.802 -1.8110 -2.9080 -0.1018
 1096TIP3    H224780   0.959   3.680  15.849 -1.0519  2.0051  1.7640
 1097TIP3   OH224781   0.991   3.674  16.479  0.1797  0.3919  0.3197
 1097TIP3    H124782   0.899   3.657  16.457  0.7238 -1.2995 -0.8575
 1097TIP3    H224783   0.991   3.765  16.509 -1.7296  0.7649 -0.5855
 1098TIP3   OH224784   3.979   5.316   4.070 -0.3378 -0.4056 -0.2170
 1098TIP3    H124785   3.939   5.353   4.149 -0.3413 -0.1192 -0.3499
 1098TIP3    H224786   3.905   5.284   4.018 -0.2366 -2.2462  0.6944
 1099TIP3   OH224787   5.782   1.698  11.879 -0.0614  0.3592  0.7323
 1099TIP3    H124788   5.862   1.750  11.884  0.1247  0.1921 -0.3013
 1099TIP3    H224789   5.775   1.656  11.965  1.0631  0.2138  0.7678
 1100TIP3   OH224790   1.054   0.299  12.434 -0.4566  0.1843  0.3308
 1100TIP3    H124791   1.127   0.334  12.383 -0.6903  1.2093  0.6815
 1100TIP3    H224792   1.059   0.205  12.421  2.0394  0.0427  1.8073
 1101TIP3   OH224793   6.416   2.500  13.827 -0.5213 -0.8940  0.4841
 1101TIP3    H124794   6.512   2.497  13.818 -0.4822 -0.2335  0.5947
 1101TIP3    H224795   6.392   2.413  13.857  0.0822 -0.9664  0.7764
 1102TIP3   OH224796   5.625   3.305   1.146  0.2184  0.1607 -0.3888
 1102TIP3    H124797   5.720   3.297   1.150  0.2110 -0.6673 -1.3170
 1102TIP3    H224798   5.598   3.239   1.082 -1.3318 -2.4654  2.6703
 1103TIP3   OH224799   3.825   6.275  16.425 -0.4088 -0.4065 -0.1739
 1103TIP3    H124800   3.792   6.331  16.355  2.0038  0.1931 -0.9552
 1103TIP3    H224801   3.844   6.335  16.497  1.4369 -0.2680 -0.7252
 1104TIP3   OH224802   5.935   1.241  11.180 -0.2082 -0.0803 -0.0703
 1104TIP3    H124803   6.008   1.231  11.242  0.7700 -3.1488 -1.5556
 1104TIP3    H224804   5.970   1.298  11.112 -0.6063  1.6510  1.1059
 1105TIP3   OH224805   0.595   2.702  13.388  0.0576 -0.1559 -0.0314
 1105TIP3    H124806   0.501   2.699  13.371 -0.0642 -1.0408  0.7283
 1105TIP3    H224807   0.634   2.657  13.313 -0.3365 -2.1692  0.8998
 1106TIP3   OH224808   4.984   2.242   6.178 -0.0383 -0.0110  0.1514
 1106TIP3    H124809   5.044   2.261   6.106 -0.4216  0.4093 -0.0616
 1106TIP3    H224810   5.041   2.214   6.250  0.5172  1.3933  0.2971
 1107TIP3   OH224811   4.786   5.236   5.060 -0.3122  0.6288  0.8825
 1107TIP3    H124812   4.759   5.256   5.150 -1.8809 -0.6120  0.7244
 1107TIP3    H224813   4.827   5.150   5.066 -2.2050 -0.3819  0.1656
 1108TIP3   OH224814   3.964   0.812  12.530  0.1144  0.7323 -0.0977
 1108TIP3    H124815   3.977   0.778  12.619 -1.1216  1.4944  0.4025
 1108TIP3    H224816   3.944   0.905  12.543 -2.2544  0.4151 -0.9635
 1109TIP3   OH224817   2.663   5.993  13.088  0.0499  0.1376  0.8893
 1109TIP3    H124818   2.714   5.935  13.031 -0.9858  0.5208 -0.5048
 1109TIP3    H224819   2.631   5.935  13.158  1.5145 -0.3074  1.2219
 1110TIP3   OH224820   4.571   1.891  16.613 -0.5764 -0.2519  0.0420
 1110TIP3    H124821   4.556   1.801  16.585  1.6292 -0.2306 -1.4992
 1110TIP3    H224822   4.524   1.945  16.550 -0.6418 -0.3016  0.0489
 1111TIP3   OH224823   2.510   4.347  14.274  0.2191  0.3762 -0.4020
 1111TIP3    H124824   2.588   4.293  14.258  1.4396  2.3923 -1.6066
 1111TIP3    H224825   2.448   4.320  14.205  0.6327  0.2040 -0.7079
 1112TIP3   OH224826   4.736   4.602  15.985  0.5672 -0.3563 -0.2496
 1112TIP3    H124827   4.674   4.540  15.946  0.9605 -1.2012  0.4225
 1112TIP3    H224828   4.818   4.585  15.939  0.8626 -0.8785  0.4514
 1113TIP3   OH224829   5.359   3.990   1.938 -0.0913  0.1546  0.4609
 1113TIP3    H124830   5.315   4.013   1.856 -1.2144 -1.9326  0.4250
 1113TIP3    H224831   5.428   3.929   1.912  0.6640  0.7948  0.9119
 1114TIP3   OH224832   5.859   5.293  13.242  0.5108  0.0087 -0.2357
 1114TIP3    H124833   5.914   5.234  13.190  1.0091 -0.7558  1.1269
 1114TIP3    H224834   5.859   5.256  13.330  1.1150  2.2249  0.7725
 1115TIP3   OH224835   4.936   6.742  14.409  0.3051  0.1177 -0.4076
 1115TIP3    H124836   4.883   6.680  14.359 -1.4382  0.4237  0.9681
 1115TIP3    H224837   4.966   6.692  14.485  2.2300 -0.1047 -1.2476
 1116TIP3   OH224838   1.815   5.725   1.371  0.2805 -0.4475 -0.1467
 1116TIP3    H124839   1.875   5.769   1.310  0.3751 -0.5628 -0.1360
 1116TIP3    H224840   1.863   5.722   1.454  0.5379 -1.1609 -0.3118
 1117TIP3   OH224841   1.901   1.062   6.387 -0.3948 -0.4132  0.4425
 1117TIP3    H124842   1.961   1.089   6.317 -0.3758 -1.4659  0.0283
 1117TIP3    H224843   1.827   1.122   6.379  1.4360  2.3491  2.3294
 1118TIP3   OH224844   3.229   3.269  12.630  0.2872 -0.2372 -0.0125
 1118TIP3    H124845   3.240   3.361  12.607  1.5427  0.2244  2.1033
 1118TIP3    H224846   3.149   3.266  12.682  0.7708 -0.1513  0.7456
 1119TIP3   OH224847   6.580   3.337  14.723 -0.1048  0.4916  0.2486
 1119TIP3    H124848   6.496   3.360  14.762  0.3684  1.3146  0.8098
 1119TIP3    H224849   6.631   3.302  14.796  0.3918  0.9608  0.1308
 1120TIP3   OH224850   4.728   2.940   3.860 -0.1679  0.1283 -0.3190
 1120TIP3    H124851   4.757   3.003   3.926  0.0688 -0.6358  0.3374
 1120TIP3    H224852   4.653   2.896   3.901 -1.3683  1.1010 -1.4270
 1121TIP3   OH224853   6.106   0.805   3.460  0.3752  0.0217 -0.2874
 1121TIP3    H124854   6.148   0.817   3.545  0.2361  1.2341 -0.3759
 1121TIP3    H224855   6.050   0.882   3.449 -1.6950 -1.4159 -0.3009
 1122TIP3   OH224856   0.222   6.259  15.082  0.1480 -0.1942  0.2122
 1122TIP3    H124857   0.179   6.304  15.009 -0.2940 -1.7368 -0.5218
 1122TIP3    H224858   0.174   6.287  15.160 -1.7350 -1.2632 -0.5071
 1123TIP3   OH224859   3.400   5.913   0.529 -0.0476  0.2065 -0.2809
 1123TIP3    H124860   3.409   6.002   0.562  0.4250 -0.0426  0.2696
 1123TIP3    H224861   3.325   5.877   0.576  1.3721 -0.5681  1.5161
 1124TIP3   OH224862   2.320   5.872  13.565  0.1132 -0.0335  0.1205
 1124TIP3    H124863   2.319   5.809  13.493 -0.5990  1.0195 -0.8372
 1124TIP3    H224864   2.228   5.896  13.577  0.3769  0.8603  0.4149
 1125TIP3   OH224865   1.215   5.026  16.904  0.3597 -0.1607  0.0117
 1125TIP3    H124866   1.184   5.112  16.932  1.4992  0.0897  0.5813
 1125TIP3    H224867   1.222   4.976  16.985 -2.0086 -1.4108 -0.4910
 1126TIP3   OH224868   3.888   0.208  13.503 -0.4873  0.0399 -0.7255
 1126TIP3    H124869   3.808   0.252  13.530  0.2534  0.8750  0.1898
 1126TIP3    H224870   3.958   0.254  13.550  0.3261 -2.1747  0.3657
 1127TIP3   OH224871   5.266   3.916  16.803 -0.1988 -0.1004 -0.0653
 1127TIP3    H124872   5.185   3.934  16.754  0.1981  0.3500 -0.5721
 1127TIP3    H224873   5.275   3.990  16.863 -0.3530 -0.3369  0.2533
 1128TIP3   OH224874   0.324   5.534   0.793 -0.0474 -0.2295  0.2371
 1128TIP3    H124875   0.312   5.520   0.887 -0.2707  2.3587  0.6693
 1128TIP3    H224876   0.417   5.516   0.777  0.6270  1.7937  1.5243
 1129TIP3   OH224877   5.744   6.643   3.544 -0.3381  0.0488 -0.2396
 1129TIP3    H124878   5.807   6.664   3.613  0.0549 -1.7922 -0.0013
 1129TIP3    H224879   5.705   6.728   3.521  1.2734  1.0503  0.5104
 1130TIP3   OH224880   2.648   4.616  17.154 -0.3181 -0.1862 -0.5942
 1130TIP3    H124881   2.696   4.650  17.078  2.6679 -0.2050  1.1387
 1130TIP3    H224882   2.685   4.529  17.169 -0.1823  0.1841  1.3881
 1131TIP3   OH224883   2.010   4.657   2.266 -0.4644 -0.1190 -0.4510
 1131TIP3    H124884   2.067   4.734   2.270  1.4485 -1.1641 -3.7279
 1131TIP3    H224885   1.977   4.656   2.176 -2.7804 -1.6103  0.3212
 1132TIP3   OH224886   4.256   3.745  11.906  0.7859 -0.3147  0.4882
 1132TIP3    H124887   4.257   3.763  11.812  1.0013  1.6943  0.8307
 1132TIP3    H224888   4.323   3.678  11.918 -0.2419 -1.6635 -0.9446
 1133TIP3   OH224889   4.994   5.088  17.204 -0.0827 -0.4263 -0.1793
 1133TIP3    H124890   4.911   5.114  17.243  0.5022  0.0714  0.7577
 1133TIP3    H224891   4.981   5.102  17.110 -0.4517  1.4687  0.1040
 1134TIP3   OH224892   3.755   4.496   3.962 -0.3719  0.2794  0.3308
 1134TIP3    H124893   3.713   4.439   4.027  0.6315  0.1871  0.9141
 1134TIP3    H224894   3.814   4.439   3.914  0.3393  0.7441  0.6441
 1135TIP3   OH224895   0.438   2.444  13.722  0.0908  0.0615  0.5030
 1135TIP3    H124896   0.373   2.460  13.654 -0.6712  1.4010  1.4875
 1135TIP3    H224897   0.400   2.372  13.774 -0.3548  0.4802  0.7628
 1136TIP3   OH224898   1.876   1.327  11.815 -0.0287 -0.5536 -0.1374
 1136TIP3    H124899   1.800   1.313  11.758  0.7972 -0.0090 -1.4243
 1136TIP3    H224900   1.949   1.291  11.765  0.9649  1.3834 -0.1644
 1137TIP3   OH224901   1.749   4.149  15.940  0.4558 -1.0742  0.0923
 1137TIP3    H124902   1.734   4.055  15.951 -1.4621 -0.9525 -1.0772
 1137TIP3    H224903   1.763   4.181  16.029  3.8064 -2.7856  0.3451
 1138TIP3   OH224904   3.540   6.027   0.113  0.2184  0.0928 -0.6565
 1138TIP3    H124905   3.602   5.957   0.136 -1.4361 -0.5111  2.4942
 1138TIP3    H224906   3.580   6.107   0.147  1.1273  0.4336 -2.3956
 1139TIP3   OH224907   4.213   3.788   3.235  0.3675  0.0760 -0.1063
 1139TIP3    H124908   4.126   3.822   3.213 -0.5274 -1.4145  0.9677
 1139TIP3    H224909   4.222   3.709   3.181  1.6829  0.9726 -1.2660
 1140TIP3   OH224910   4.424   2.134  11.941 -0.9582 -0.8118  0.0781
 1140TIP3    H124911   4.420   2.098  12.030  0.1510  0.2840  0.6158
 1140TIP3    H224912   4.478   2.071  11.892 -0.9306 -1.0351  0.3912
 1141TIP3   OH224913   1.256   3.769   1.669  0.2372 -0.0024 -0.3949
 1141TIP3    H124914   1.296   3.685   1.693 -0.9574 -0.2846  0.8073
 1141TIP3    H224915   1.231   3.808   1.753  0.3591  1.3614 -0.9661
 1142TIP3   OH224916   2.278   1.722  11.321  0.5531  0.6035 -0.0464
 1142TIP3    H124917   2.319   1.648  11.275  1.1949 -0.0000  1.4466
 1142TIP3    H224918   2.334   1.797  11.301 -0.4363  0.8681 -2.0727
 1143TIP3   OH224919   4.000   5.624   3.738 -0.8812  0.6694 -0.4465
 1143TIP3    H124920   3.956   5.541   3.719 -3.2229  1.6244  0.4171
 1143TIP3    H224921   4.019   5.620   3.832  1.0443  0.2546 -0.8115
 1144TIP3   OH224922   5.599   0.717  15.165  0.1531  0.4064 -0.0748
 1144TIP3    H124923   5.507   0.689  15.167 -0.0524  1.0309 -0.5479
 1144TIP3    H224924   5.607   0.768  15.085  0.9287  0.3194 -0.0594
 1145TIP3   OH224925   3.201   3.746  13.147 -0.2983 -0.0551 -0.0754
 1145TIP3    H124926   3.279   3.691  13.148 -0.9968 -1.1274  2.3754
 1145TIP3    H224927   3.136   3.695  13.098  0.4402  0.7904 -2.0204
 1146TIP3   OH224928   0.409   3.904   2.268 -0.2765  0.1980 -0.0755
 1146TIP3    H124929   0.427   3.993   2.238 -0.9933 -0.1509 -1.7022
 1146TIP3    H224930   0.385   3.913   2.360  0.3153  1.5952 -0.0424
 1147TIP3   OH224931   3.554   2.686  15.673 -0.4311  0.3599  0.2943
 1147TIP3    H124932   3.634   2.725  15.709 -1.5784  2.0053  1.1929
 1147TIP3    H224933   3.549   2.719  15.584  0.5179 -0.7554 -0.1865
 1148TIP3   OH224934   4.257   5.152  16.621 -0.3018 -0.1586 -0.3786
 1148TIP3    H124935   4.191   5.107  16.674  0.1752  1.6173  1.8906
 1148TIP3    H224936   4.305   5.206  16.684  2.7666 -0.7026 -2.0759
 1149TIP3   OH224937   4.601   1.350   3.208 -0.2747  0.0813 -0.4086
 1149TIP3    H124938   4.662   1.351   3.135  0.6355 -0.4251  0.3324
 1149TIP3    H224939   4.652   1.380   3.284 -1.4186  1.4343 -0.1183
 1150TIP3   OH224940   3.721   2.233  13.850  0.9690 -0.1772 -0.2972
 1150TIP3    H124941   3.792   2.280  13.894  0.2867  0.0176  0.6358
 1150TIP3    H224942   3.691   2.293  13.782  0.1165  0.7820  0.8721
 1151TIP3   OH224943   6.593   3.600   0.046 -0.1302 -0.1922  0.4358
 1151TIP3    H124944   6.613   3.612  -0.047  0.1418 -0.7192  0.4220
 1151TIP3    H224945   6.626   3.679   0.088 -2.1147  1.0345 -0.1680
 1152TIP3   OH224946   5.437   5.828  11.239 -0.5416  0.4396 -0.5190
 1152TIP3    H124947   5.491   5.754  11.267 -0.5798  0.1298 -1.2638
 1152TIP3    H224948   5.463   5.900  11.297  0.7689  0.3341 -0.9633
 1153TIP3   OH224949   0.554   2.390  15.584 -0.3581  0.2042 -0.2593
 1153TIP3    H124950   0.496   2.370  15.657 -0.3509  0.4700 -0.1802
 1153TIP3    H224951   0.614   2.457  15.618 -0.2644  0.2260 -0.4644
 1154TIP3   OH224952   4.224   5.851   1.399  0.1357 -0.1287  0.1350
 1154TIP3    H124953   4.154   5.788   1.385  1.2150 -1.4342  0.4020
 1154TIP3    H224954   4.198   5.927   1.347 -1.0962 -0.8607 -0.3685
 1155TIP3   OH224955   4.471   4.465  15.205 -0.1537 -0.0495  0.5971
 1155TIP3    H124956   4.536   4.467  15.135 -0.4149 -1.0861  0.3130
 1155TIP3    H224957   4.413   4.392  15.183 -2.1141  1.5234  0.2200
 1156TIP3   OH224958   2.743   5.864   2.333  0.2523  0.0421  0.3929
 1156TIP3    H124959   2.796   5.938   2.305 -0.2335  0.9237  1.7504
 1156TIP3    H224960   2.698   5.835   2.253 -0.0565  1.6228 -0.0249
 1157TIP3   OH224961   3.742   3.147   3.035  0.0186  0.1193  0.2031
 1157TIP3    H124962   3.699   3.224   3.071  2.1432  0.5066  2.1119
 1157TIP3    H224963   3.796   3.181   2.964  0.0241  0.2019  0.2465
 1158TIP3   OH224964   5.913   2.785   5.850 -0.7518 -0.2691  0.2726
 1158TIP3    H124965   5.890   2.768   5.759 -0.0972 -1.4124  0.2918
 1158TIP3    H224966   5.926   2.698   5.888  0.3751  0.2200  1.0751
 1159TIP3   OH224967   5.011   4.286   6.338 -0.8675 -0.3373  0.6344
 1159TIP3    H124968   5.064   4.248   6.409  1.2014  1.1298 -0.0464
 1159TIP3    H224969   4.957   4.351   6.382 -2.9193 -2.4556  1.4822
 1160TIP3   OH224970   3.000   3.566   5.623 -0.0990  0.9563  0.0671
 1160TIP3    H124971   2.926   3.508   5.612 -0.7501  1.8014 -0.1148
 1160TIP3    H224972   2.979   3.644   5.571 -0.5957  2.5695  2.4886
 1161TIP3   OH224973   2.808   5.584   1.913  0.1049  0.4544  0.4024
 1161TIP3    H124974   2.865   5.658   1.896  0.2475  0.1585 -0.4540
 1161TIP3    H224975   2.818   5.527   1.837 -0.0098 -0.4451  1.0403
 1162TIP3   OH224976   4.268   2.275  11.767 -0.1862 -0.1158  0.4743
 1162TIP3    H124977   4.337   2.315  11.715 -0.9945 -1.7910 -2.0729
 1162TIP3    H224978   4.315   2.222  11.832  0.8489  1.8977  1.4374
 1163TIP3   OH224979   2.949   6.006  11.974  0.3442 -0.0262  0.4513
 1163TIP3    H124980   3.033   6.048  11.992  1.0204 -1.5130  0.9200
 1163TIP3    H224981   2.971   5.915  11.956 -1.2565 -0.7270  1.7188
 1164TIP3   OH224982   0.638   2.801  16.153 -0.1663 -0.3664 -0.2021
 1164TIP3    H124983   0.720   2.781  16.108  0.2448 -2.1107  1.2164
 1164TIP3    H224984   0.663   2.862  16.223 -0.0120 -1.0619  0.3630
 1165TIP3   OH224985   1.474   0.763   5.926 -0.2817  0.2138 -0.2514
 1165TIP3    H124986   1.496   0.689   5.984  0.5630  0.9860  0.4518
 1165TIP3    H224987   1.470   0.839   5.984  0.0784  0.9285 -1.1306
 1166TIP3   OH224988   4.767   1.531   5.765  0.5552 -0.8001  0.2166
 1166TIP3    H124989   4.700   1.566   5.823 -0.4371 -0.8613 -0.8441
 1166TIP3    H224990   4.718   1.490   5.694  1.6087  2.2911 -2.5648
 1167TIP3   OH224991   6.518   4.753   2.883  0.0880 -0.5054  0.2809
 1167TIP3    H124992   6.540   4.814   2.812  0.4104 -1.3308 -0.3477
 1167TIP3    H224993   6.523   4.667   2.843  0.0585 -0.9806  1.2666
 1168TIP3   OH224994   1.223   2.516   4.933 -0.2025 -0.2765 -0.4123
 1168TIP3    H124995   1.196   2.427   4.910  0.3386 -0.6862  0.4797
 1168TIP3    H224996   1.296   2.504   4.994  0.1071  0.7847 -0.5466
 1169TIP3   OH224997   1.882   3.992  15.565 -0.3213 -0.6130  0.2017
 1169TIP3    H124998   1.841   4.063  15.613  1.2789  1.0992 -0.8181
 1169TIP3    H224999   1.915   3.932  15.632  0.4587  0.8883  1.2067
 1170TIP3   OH225000   6.076   3.094   0.215  0.3410  0.2260  0.1979
 1170TIP3    H125001   6.101   3.070   0.304 -0.2616  0.6649  0.4900
 1170TIP3    H225002   5.992   3.050   0.202  0.2667  0.4389 -0.0369
 1171TIP3   OH225003   4.801   3.618   5.103 -0.4969 -0.2565  0.0312
 1171TIP3    H125004   4.789   3.609   5.198  0.4489  1.2853  0.3453
 1171TIP3    H225005   4.840   3.536   5.075  0.4924 -0.2264  1.2412
 1172TIP3   OH225006   3.135   5.911   2.079  0.6561  0.0505 -0.2822
 1172TIP3    H125007   3.137   5.885   2.171 -1.3052 -0.9897 -0.4848
 1172TIP3    H225008   3.125   5.829   2.031 -0.9272  0.7615 -1.2418
 1173TIP3   OH225009   3.476   0.009  17.209  0.2421  0.1868  0.3676
 1173TIP3    H125010   3.467  -0.060  17.144  0.2124 -0.4480  1.0276
 1173TIP3    H225011   3.515  -0.034  17.285  1.4318  1.1800  0.3519
 1174TIP3   OH225012   3.051   1.611   1.415  0.1382  0.1994  0.1968
 1174TIP3    H125013   3.023   1.662   1.339  0.8969 -1.0091 -0.9279
 1174TIP3    H225014   3.128   1.658   1.448  1.1536 -0.4738 -1.1494
 1175TIP3   OH225015   2.417   4.984  14.229 -0.7289  0.1842  0.8557
 1175TIP3    H125016   2.505   4.944  14.231 -0.5987  0.3745 -0.2757
 1175TIP3    H225017   2.416   5.042  14.305 -0.5516 -1.1817  1.9543
 1176TIP3   OH225018   2.320   6.119   2.466 -0.3403  0.6355 -0.3677
 1176TIP3    H125019   2.381   6.153   2.530 -0.2749 -0.1050 -0.0354
 1176TIP3    H225020   2.374   6.092   2.392  0.1592 -3.0350  1.1678
 1177TIP3   OH225021   1.934   5.220   0.492  0.2086  0.2032  0.0777
 1177TIP3    H125022   1.956   5.301   0.445  1.3016  0.5585  1.1682
 1177TIP3    H225023   1.864   5.181   0.439 -0.4402  1.9175 -0.4169
 1178TIP3   OH225024   4.479   1.617   5.770 -0.3160 -0.4646  0.1264
 1178TIP3    H125025   4.503   1.531   5.737  1.0844 -0.1488  0.2841
 1178TIP3    H225026   4.461   1.669   5.692 -0.8237 -0.7869  0.0209
 1179TIP3   OH225027   6.676   0.502  15.693  0.1763 -0.5380  0.3694
 1179TIP3    H125028   6.640   0.436  15.634 -0.2023  0.4121 -0.5116
 1179TIP3    H225029   6.667   0.464  15.780 -1.3344 -1.0787  0.0170
 1180TIP3   OH225030   6.701   1.532  14.547 -0.3789  0.1382 -0.0387
 1180TIP3    H125031   6.700   1.598  14.477 -0.7228  0.7394  0.5143
 1180TIP3    H225032   6.791   1.532  14.578 -0.7812  1.7937  1.2599
 1181TIP3   OH225033   5.703   6.289  13.110  0.3076  0.3599 -0.4153
 1181TIP3    H125034   5.768   6.359  13.107 -0.2751  0.9395  0.1853
 1181TIP3    H225035   5.649   6.304  13.032 -0.5845  1.3589  0.3630
 1182TIP3   OH225036   2.468   4.727   5.753 -0.4408  0.2888  0.0939
 1182TIP3    H125037   2.499   4.665   5.687 -0.8336 -0.1748  0.3431
 1182TIP3    H225038   2.433   4.673   5.823 -0.2336  0.7803  0.5891
 1183TIP3   OH225039   3.319   3.100   2.067 -0.6196  0.1780  0.1982
 1183TIP3    H125040   3.270   3.160   2.011  0.8771  1.4956  0.2327
 1183TIP3    H225041   3.301   3.013   2.030  0.1789  0.9745 -2.2681
 1184TIP3   OH225042   1.774   0.868  14.858 -0.0439  0.1706  0.1801
 1184TIP3    H125043   1.792   0.782  14.896 -0.2819  0.3407  0.6863
 1184TIP3    H225044   1.849   0.885  14.801 -0.6352 -0.9647 -0.9842
 1185TIP3   OH225045   6.730   5.857  12.024 -0.3472 -0.0733 -0.3899
 1185TIP3    H125046   6.667   5.904  11.970 -2.4860 -1.3011  0.8881
 1185TIP3    H225047   6.689   5.852  12.110  1.0418 -1.8200  0.2419
 1186TIP3   OH225048   6.326   0.328   1.224  0.3402  0.4822  0.5692
 1186TIP3    H125049   6.388   0.392   1.189  0.9350  0.6184  1.8441
 1186TIP3    H225050   6.249   0.381   1.248  0.4402  0.5638  0.7035
 1187TIP3   OH225051   5.084   0.357   4.023  0.1738 -0.5269 -0.1356
 1187TIP3    H125052   5.159   0.339   4.080 -0.2553 -0.9614  0.3045
 1187TIP3    H225053   5.011   0.312   4.066 -0.3561 -0.0298 -0.5095
 1188TIP3   OH225054   6.512   1.581  12.782 -0.9085 -0.5905 -0.7283
 1188TIP3    H125055   6.496   1.580  12.877 -1.2645  1.0523 -0.7373
 1188TIP3    H225056   6.597   1.538  12.772  0.6669  1.9159  0.7153
 1189TIP3   OH225057   0.229   6.510   3.139 -0.1683  0.4489 -0.6870
 1189TIP3    H125058   0.280   6.451   3.083  0.4246  0.0747  0.2213
 1189TIP3    H225059   0.273   6.594   3.131 -0.1061  0.4059 -0.8080
 1190TIP3   OH225060   1.960   0.829   0.401 -0.1315 -0.1337 -0.3702
 1190TIP3    H125061   2.034   0.797   0.453 -0.6184 -1.8250 -0.6807
 1190TIP3    H225062   1.955   0.923   0.422  2.2685  0.0958 -0.5793
 1191TIP3   OH225063   1.600   3.854   3.899 -0.0759  0.4432 -0.0881
 1191TIP3    H125064   1.573   3.906   3.824  0.4515  1.5552  0.4679
 1191TIP3    H225065   1.650   3.915   3.954 -1.2942 -0.0587  1.6719
 1192TIP3   OH225066   2.769   5.969   1.555 -0.1269  0.9859 -0.2326
 1192TIP3    H125067   2.746   5.939   1.467 -1.5684 -1.5568  0.9077
 1192TIP3    H225068   2.864   5.958   1.560 -0.2378 -0.6321 -0.9113
 1193TIP3   OH225069   1.936   0.834  16.623 -0.0845 -0.4331  0.0707
 1193TIP3    H125070   1.855   0.884  16.631  0.0664 -0.3404  1.1437
 1193TIP3    H225071   1.986   0.879  16.555 -0.7654 -0.2735 -0.3357
 1194TIP3   OH225072   1.984   6.305   0.373 -0.0727 -0.4152 -0.3502
 1194TIP3    H125073   2.077   6.289   0.389  0.3066  2.5340  1.2229
 1194TIP3    H225074   1.939   6.233   0.416  1.4381 -1.5391 -0.5618
 1195TIP3   OH225075   0.616   2.916   6.131  0.6536  0.6780 -0.2553
 1195TIP3    H125076   0.619   2.979   6.058  2.4464  0.5975 -0.3127
 1195TIP3    H225077   0.705   2.881   6.135  0.1099 -0.6513  0.8410
 1196TIP3   OH225078   2.755   1.508   3.431 -0.2279 -0.8068 -0.0337
 1196TIP3    H125079   2.720   1.455   3.360 -0.0861  2.0611 -2.4251
 1196TIP3    H225080   2.717   1.595   3.418  0.8216  0.1699  2.6716
 1197TIP3   OH225081   4.772   4.902   5.004  0.7024  0.2034  0.7286
 1197TIP3    H125082   4.798   4.842   5.073  3.0675  0.2133 -0.0688
 1197TIP3    H225083   4.830   4.881   4.931 -1.8892 -0.0306 -1.4149
 1198TIP3   OH225084   4.875   0.219   3.574 -0.3341  0.3546  0.5681
 1198TIP3    H125085   4.933   0.187   3.643 -0.5403 -0.6406  0.2963
 1198TIP3    H225086   4.821   0.143   3.551 -0.4512  0.7454 -0.4969
 1199TIP3   OH225087   5.200   3.453   0.829  0.3240  0.2103  0.1094
 1199TIP3    H125088   5.258   3.431   0.902  0.8417 -0.1294 -0.3959
 1199TIP3    H225089   5.143   3.521   0.863  0.1889 -0.3341  1.0110
 1200TIP3   OH225090   2.490   3.225   4.565  0.8875 -0.0558 -0.2735
 1200TIP3    H125091   2.566   3.258   4.613 -0.0230  0.5114  0.7908
 1200TIP3    H225092   2.465   3.297   4.507  1.2445 -0.3049 -0.7503
 1201TIP3   OH225093   6.276   5.505  14.208  0.3762 -0.1285  0.0438
 1201TIP3    H125094   6.340   5.551  14.261  0.5069 -0.4332  0.1538
 1201TIP3    H225095   6.309   5.415  14.203 -0.1657 -0.3509  0.3157
 1202TIP3   OH225096   0.249   4.554  14.469 -0.2294 -0.5920 -0.4085
 1202TIP3    H125097   0.286   4.480  14.517 -1.3708 -0.6163  0.4659
 1202TIP3    H225098   0.319   4.581  14.410  0.2780 -2.2524 -0.6253
 1203TIP3   OH225099   1.830   6.756  16.274  0.0121  0.2018 -0.2409
 1203TIP3    H125100   1.785   6.672  16.280 -0.4656  0.5419  1.7073
 1203TIP3    H225101   1.827   6.779  16.182 -0.6144 -1.5017 -0.6755
 1204TIP3   OH225102   3.475   6.267   5.433 -0.1758  0.3857 -0.0894
 1204TIP3    H125103   3.547   6.266   5.496  1.2280 -0.4969 -1.6381
 1204TIP3    H225104   3.438   6.179   5.438  0.3772  0.0942 -0.9493
 1205TIP3   OH225105   6.490   5.437  11.196 -0.4495 -0.3144 -0.1043
 1205TIP3    H125106   6.397   5.457  11.196 -0.0262  2.0371  2.2398
 1205TIP3    H225107   6.495   5.349  11.235 -1.6917 -0.9006 -1.1703
 1206TIP3   OH225108   0.967   3.464  13.015 -0.6895 -0.1803  0.5019
 1206TIP3    H125109   0.879   3.500  13.002 -0.4507  0.4751  0.6627
 1206TIP3    H225110   0.952   3.384  13.065 -1.1140  0.4968  1.4865
 1207TIP3   OH225111   5.348   2.189   3.143 -0.1662  0.2113  0.5212
 1207TIP3    H125112   5.403   2.249   3.193  0.1173  0.4181 -0.0386
 1207TIP3    H225113   5.407   2.149   3.079 -0.3699 -0.5951  0.8245
 1208TIP3   OH225114   5.162   5.823   6.126  0.0190 -0.4975 -0.0799
 1208TIP3    H125115   5.226   5.787   6.188 -0.7013  0.1878  1.0956
 1208TIP3    H225116   5.092   5.858   6.181 -1.6614 -1.7209 -1.3265
 1209TIP3   OH225117   1.370   1.689  11.701 -0.0341  0.2139  0.0081
 1209TIP3    H125118   1.447   1.645  11.737 -0.4946  0.6372  1.5961
 1209TIP3    H225119   1.394   1.708  11.610  0.7407 -1.9251 -0.2887
 1210TIP3   OH225120   0.717   5.055   4.266 -0.5964  0.0083 -0.5073
 1210TIP3    H125121   0.758   5.041   4.181  0.1645  0.1981 -0.1787
 1210TIP3    H225122   0.626   5.076   4.245  0.2444  3.1508 -1.4984
 1211TIP3   OH225123   0.729   0.283  12.779 -0.0323  0.5403 -0.2253
 1211TIP3    H125124   0.762   0.371  12.796  0.2808  1.0804 -3.0648
 1211TIP3    H225125   0.768   0.259  12.695 -0.4667 -2.1530  0.2575
 1212TIP3   OH225126   6.034   5.762  11.673  0.3716  0.8848 -0.9326
 1212TIP3    H125127   6.077   5.831  11.724 -0.4523  0.8349 -0.1451
 1212TIP3    H225128   6.058   5.681  11.717  1.2442  0.6562 -1.7905
 1213TIP3   OH225129   1.113   4.335  11.148 -0.2789  0.1127 -0.2276
 1213TIP3    H125130   1.133   4.380  11.066  0.7117  0.1693  0.0269
 1213TIP3    H225131   1.183   4.270  11.158  0.1753  0.7508  1.0258
 1214TIP3   OH225132   5.491   1.603   0.109 -0.0033  0.1330  0.0485
 1214TIP3    H125133   5.560   1.536   0.107  0.8694  0.9211  1.7625
 1214TIP3    H225134   5.410   1.555   0.095  0.5515 -1.3673  1.6929
 1215TIP3   OH225135   1.174   3.598  13.846  0.2820 -0.3870  0.1640
 1215TIP3    H125136   1.123   3.528  13.888 -0.5361 -0.7033 -1.3166
 1215TIP3    H225137   1.147   3.678  13.891  1.6293 -1.0181  2.2688
 1216TIP3   OH225138   5.164   4.486  15.366 -0.3252 -0.1264  0.5538
 1216TIP3    H125139   5.134   4.399  15.341 -0.3337  0.4496 -1.6494
 1216TIP3    H225140   5.194   4.526  15.284  1.0765  1.4151  1.7340
 1217TIP3   OH225141   6.029   4.861   2.166  0.0234 -0.4229 -0.0460
 1217TIP3    H125142   6.053   4.903   2.249 -0.9198 -1.5889  0.8450
 1217TIP3    H225143   5.940   4.830   2.180  0.3152 -1.7945 -1.0261
 1218TIP3   OH225144   3.197   2.145   5.915 -0.7781 -0.2297  0.3534
 1218TIP3    H125145   3.156   2.078   5.969 -2.3370  1.0975  0.9241
 1218TIP3    H225146   3.154   2.227   5.942  1.3156  1.0649 -0.0172
 1219TIP3   OH225147   2.723   5.144  12.870 -0.1375 -0.1917 -0.6918
 1219TIP3    H125148   2.675   5.125  12.951 -0.5127 -1.7067 -1.2270
 1219TIP3    H225149   2.779   5.067  12.856 -0.2645 -0.0811 -1.9898
 1220TIP3   OH225150   2.315   0.132  12.742 -0.5811  0.2902 -0.5139
 1220TIP3    H125151   2.367   0.054  12.762  0.1855  0.1504 -2.7305
 1220TIP3    H225152   2.379   0.204  12.740 -0.5905  0.2864 -2.2761
 1221TIP3   OH225153   1.512   0.009  11.237  0.1935 -0.3115 -0.0311
 1221TIP3    H125154   1.539   0.008  11.329 -1.8751 -0.2388  0.6293
 1221TIP3    H225155   1.489  -0.083  11.219 -1.7637  0.0638  0.3282
 1222TIP3   OH225156   2.342   2.881  15.811 -0.0799  0.2672 -0.4550
 1222TIP3    H125157   2.303   2.799  15.782 -1.1235  0.6229 -0.0763
 1222TIP3    H225158   2.346   2.935  15.731 -0.0664  0.1160 -0.5561
 1223TIP3   OH225159   5.034   2.851  12.391 -0.2375 -0.0873 -0.0373
 1223TIP3    H125160   4.983   2.886  12.464  0.5806  1.9052 -0.3481
 1223TIP3    H225161   5.105   2.803  12.432 -1.5695 -1.8050  0.4044
 1224TIP3   OH225162   6.527   5.991   0.181  0.1488  0.1965  0.3349
 1224TIP3    H125163   6.575   5.961   0.104 -1.1117 -3.2716  0.7545
 1224TIP3    H225164   6.594   6.003   0.248  0.7721 -2.6176  0.3341
 1225TIP3   OH225165   2.346   5.949   0.643  0.2557 -0.2365 -0.4093
 1225TIP3    H125166   2.311   6.023   0.594  0.2120 -0.3275 -0.5147
 1225TIP3    H225167   2.327   5.872   0.589 -1.2201 -0.5342  0.4549
 1226TIP3   OH225168   1.820   5.366  16.120  0.2768 -0.9351 -0.4899
 1226TIP3    H125169   1.790   5.310  16.191 -0.1574 -0.0402  0.0465
 1226TIP3    H225170   1.911   5.387  16.143 -0.0395 -0.1783  0.1241
 1227TIP3   OH225171   0.674   3.201   0.070  0.2598  0.3311 -0.0815
 1227TIP3    H125172   0.616   3.230  -0.000  0.6802  0.3333 -0.4328
 1227TIP3    H225173   0.730   3.277   0.087  2.5441 -0.7330 -2.2030
 1228TIP3   OH225174   3.919   1.724   6.756  0.0333  0.4551  0.0729
 1228TIP3    H125175   3.851   1.676   6.709 -0.0197  1.2257 -0.6696
 1228TIP3    H225176   4.000   1.680   6.733 -0.1127  0.1118  0.2034
 1229TIP3   OH225177   6.065   2.392  13.145  0.2519  0.0192  0.0337
 1229TIP3    H125178   6.089   2.484  13.159  0.5571 -0.1942  0.9578
 1229TIP3    H225179   6.148   2.345  13.147  0.0103 -0.3913  0.4800
 1230TIP3   OH225180   3.936   6.495  15.687 -0.1056  0.8949 -0.6340
 1230TIP3    H125181   3.993   6.471  15.760 -1.6618 -1.4233 -0.1100
 1230TIP3    H225182   3.862   6.540  15.728 -1.2554 -0.8978 -0.6491
 1231TIP3   OH225183   2.075   0.369   4.181 -0.2800  0.1064  0.5293
 1231TIP3    H125184   2.090   0.296   4.120  0.3138  0.9903 -0.4102
 1231TIP3    H225185   2.077   0.447   4.126 -0.3582  0.8823  1.6015
 1232TIP3   OH225186   2.134   1.517  16.107  0.3994  0.1451  0.9442
 1232TIP3    H125187   2.187   1.483  16.035  0.3287  0.6250  0.6611
 1232TIP3    H225188   2.117   1.608  16.084  0.2060  0.2494  1.4719
 1233TIP3   OH225189   5.799   6.797  12.301 -0.2129 -0.2341 -0.2080
 1233TIP3    H125190   5.771   6.780  12.390 -0.7253  0.1632 -0.2857
 1233TIP3    H225191   5.804   6.893  12.295 -0.0253 -0.2624 -0.5518
 1234TIP3   OH225192   6.466   6.015  13.040 -0.2896 -0.0925 -0.5981
 1234TIP3    H125193   6.483   6.084  13.103  0.5736  0.0966 -1.0243
 1234TIP3    H225194   6.371   6.001  13.044 -0.1248 -1.0065  1.6798
 1235TIP3   OH225195   2.165   2.628   3.250 -0.4355 -0.0195  0.5371
 1235TIP3    H125196   2.131   2.677   3.325  3.4409 -1.0517  3.2867
 1235TIP3    H225197   2.210   2.694   3.198  2.3386  0.0098  2.7233
 1236TIP3   OH225198   6.748   0.054  13.596  0.5905 -0.2333  0.0815
 1236TIP3    H125199   6.768   0.128  13.654  0.2280 -0.3608  0.3703
 1236TIP3    H225200   6.716   0.095  13.515  0.0388 -0.0804  0.3744
 1237TIP3   OH225201   4.738   6.443   4.165 -0.2331  0.5102  0.5282
 1237TIP3    H125202   4.748   6.355   4.131  1.4746  0.6795  0.4940
 1237TIP3    H225203   4.714   6.430   4.257 -0.3663  0.0179  0.4273
 1238TIP3   OH225204   2.313   4.520   4.632  0.5133 -0.0556  0.0811
 1238TIP3    H125205   2.391   4.487   4.588  0.8043  0.0828  0.4894
 1238TIP3    H225206   2.287   4.448   4.690  1.7585  0.7778  1.7609
 1239TIP3   OH225207   0.268   3.149   0.761 -0.4755  0.6340 -0.4233
 1239TIP3    H125208   0.342   3.120   0.815  0.0599 -1.1283 -1.9941
 1239TIP3    H225209   0.306   3.214   0.702 -0.4583  0.6247 -0.4226
 1240TIP3   OH225210   4.890   3.342  16.892  0.1145  0.0691  0.8806
 1240TIP3    H125211   4.859   3.251  16.890 -0.6731  0.3330  0.5453
 1240TIP3    H225212   4.977   3.338  16.854  0.2673 -0.6130  1.2749
 1241TIP3   OH225213   2.252   3.110   3.808 -0.1311  0.0398 -0.0246
 1241TIP3    H125214   2.338   3.089   3.844 -0.6675 -0.3127  1.1128
 1241TIP3    H225215   2.270   3.162   3.729  1.1304 -0.9654 -0.4219
 1242TIP3   OH225216   1.687   3.380   1.390 -0.0448 -0.3726  0.2967
 1242TIP3    H125217   1.641   3.335   1.319 -0.0856 -1.0198  0.7322
 1242TIP3    H225218   1.760   3.323   1.412 -0.1549 -0.2801  0.9240
 1243TIP3   OH225219   4.303   5.683   1.658  0.7182 -0.1619  0.0113
 1243TIP3    H125220   4.263   5.770   1.646 -0.9825 -0.9771 -0.5071
 1243TIP3    H225221   4.270   5.653   1.742 -0.0405 -0.9818 -0.5675
 1244TIP3   OH225222   0.852   4.288  13.436 -0.2150  0.1520 -0.5986
 1244TIP3    H125223   0.862   4.329  13.350  0.7606 -2.3476 -1.7699
 1244TIP3    H225224   0.930   4.316  13.485  0.0004  0.3708 -1.0615
 1245TIP3   OH225225   5.926   2.186   2.810  0.4740  0.0722 -0.1077
 1245TIP3    H125226   5.997   2.242   2.840 -0.0427  0.1834  0.9440
 1245TIP3    H225227   5.953   2.098   2.833 -0.5876  0.2773  2.1760
 1246TIP3   OH225228   6.412   5.770  12.167 -0.6223  0.5382 -0.4355
 1246TIP3    H125229   6.400   5.865  12.162 -0.3488  0.6542  0.8050
 1246TIP3    H225230   6.413   5.751  12.261 -1.0005 -0.7399 -0.6728
 1247TIP3   OH225231   2.478   1.292   2.374 -0.2067 -0.1933 -0.4664
 1247TIP3    H125232   2.532   1.246   2.310  2.7618  1.9854  0.2734
 1247TIP3    H225233   2.523   1.279   2.457 -0.1840  2.5102  0.0298
 1248TIP3   OH225234   2.532   1.911  13.098  0.0788  0.7649  0.3946
 1248TIP3    H125235   2.580   1.887  13.177  1.4468 -1.1946 -0.9293
 1248TIP3    H225236   2.599   1.919  13.030 -1.2152  0.4211 -0.9974
 1249TIP3   OH225237   0.402   3.505  12.599  0.5613  0.0178  0.7458
 1249TIP3    H125238   0.434   3.421  12.565 -0.8960 -0.4957  0.5421
 1249TIP3    H225239   0.480   3.551  12.627  1.4289 -1.2886  0.5742
 1250TIP3   OH225240   4.984   1.530  15.219  0.4535  0.0243  0.5265
 1250TIP3    H125241   4.998   1.608  15.165  1.3460 -1.2117 -1.1228
 1250TIP3    H225242   4.931   1.473  15.165  0.4247 -0.8156  1.4135
 1251TIP3   OH225243   3.689   0.012  14.415 -0.2609  0.1473 -0.0442
 1251TIP3    H125244   3.598   0.004  14.441 -0.1647  1.7637  0.8791
 1251TIP3    H225245   3.700   0.104  14.391  0.7208 -0.3681 -1.8129
 1252TIP3   OH225246   3.904   4.120  12.370  0.0677 -0.3734 -0.3100
 1252TIP3    H125247   3.891   4.197  12.316  3.0284  1.6876  1.6438
 1252TIP3    H225248   3.971   4.145  12.433  0.9511 -4.4524  0.6837
 1253TIP3   OH225249   1.578   0.321  13.556  0.5513 -0.3475  0.2008
 1253TIP3    H125250   1.632   0.372  13.495  0.3783  0.0759  0.3934
 1253TIP3    H225251   1.641   0.277  13.612  0.7891  2.3344  2.2724
 1254TIP3   OH225252   3.021   3.883  13.771  0.1109  0.6155 -0.3211
 1254TIP3    H125253   2.971   3.946  13.720 -1.2278 -0.1058  0.0285
 1254TIP3    H225254   3.104   3.875  13.726  1.1452  4.0692  0.7001
 1255TIP3   OH225255   5.715   1.320   3.038 -0.8853  0.3515 -0.0305
 1255TIP3    H125256   5.630   1.309   2.996 -0.4893  0.5825 -0.9435
 1255TIP3    H225257   5.698   1.370   3.117 -1.6306  0.1447 -0.0572
 1256TIP3   OH225258   1.618   3.219   5.795 -0.0976 -0.0768 -0.2766
 1256TIP3    H125259   1.713   3.205   5.797 -0.2602 -1.1899  0.4205
 1256TIP3    H225260   1.585   3.151   5.735 -0.3406  1.2014 -1.6628
 1257TIP3   OH225261   3.019   3.650   3.566  0.5709 -0.7087  0.2045
 1257TIP3    H125262   3.112   3.629   3.574  0.8158 -0.1270 -0.8436
 1257TIP3    H225263   2.973   3.571   3.594  1.3991 -1.2517  0.0637
 1258TIP3   OH225264   3.983   5.176   1.252 -0.1204 -0.1575 -0.9913
 1258TIP3    H125265   4.017   5.161   1.164 -0.5734  0.7105 -1.3236
 1258TIP3    H225266   3.891   5.198   1.239  0.5264  3.2096 -0.6127
 1259TIP3   OH225267   1.872   2.723  16.694  0.1469  0.5905  0.2109
 1259TIP3    H125268   1.937   2.793  16.702 -0.6906  1.4087  0.1629
 1259TIP3    H225269   1.910   2.649  16.741  0.8792  1.2203  0.6397
 1260TIP3   OH225270   5.343   4.158  16.679 -0.1426 -0.0991 -0.1600
 1260TIP3    H125271   5.366   4.069  16.655 -0.2388  0.4180 -2.3760
 1260TIP3    H225272   5.259   4.150  16.725 -1.4194 -0.9802 -2.5150
 1261TIP3   OH225273   3.763   0.297  14.673 -0.1658  0.7747 -0.2163
 1261TIP3    H125274   3.807   0.221  14.636 -1.6906 -1.4861  2.2403
 1261TIP3    H225275   3.674   0.291  14.639 -0.0291  2.1414 -0.8562
 1262TIP3   OH225276   3.406   4.371   0.251  0.2272  0.4466  0.2705
 1262TIP3    H125277   3.383   4.312   0.179  3.9002  0.8233 -1.4445
 1262TIP3    H225278   3.377   4.326   0.330 -2.1038 -0.9500 -1.2672
 1263TIP3   OH225279   0.737   5.083  12.794  0.4376  0.1109 -0.3897
 1263TIP3    H125280   0.802   5.109  12.728  2.3455  1.7736  1.9417
 1263TIP3    H225281   0.755   5.142  12.868 -1.1602 -2.0482  1.8359
 1264TIP3   OH225282   0.069   3.550   3.463 -0.5648  0.1061  0.6652
 1264TIP3    H125283   0.057   3.642   3.441 -0.4672 -0.1843 -0.6643
 1264TIP3    H225284   0.033   3.542   3.551 -2.1747  1.0739  0.1467
 1265TIP3   OH225285   6.384   6.123  14.572 -0.1247  0.0579  0.4855
 1265TIP3    H125286   6.337   6.059  14.626 -1.5921 -0.3011 -1.1522
 1265TIP3    H225287   6.332   6.203  14.578  0.5392  0.4786  0.7929
 1266TIP3   OH225288   5.391   6.128  12.913  0.0963 -0.2089 -0.4058
 1266TIP3    H125289   5.329   6.200  12.923 -0.0938 -0.6475  2.3758
 1266TIP3    H225290   5.477   6.170  12.917 -0.0096  0.0958 -1.2414
 1267TIP3   OH225291   4.965   5.796  16.219  0.5840 -0.6879 -0.0507
 1267TIP3    H125292   4.957   5.887  16.247 -0.6298 -0.1182 -2.0196
 1267TIP3    H225293   5.003   5.750  16.294 -1.4100  0.8955  2.0450
 1268TIP3   OH225294   1.637   6.476   3.282  0.0563  0.3359  0.0445
 1268TIP3    H125295   1.646   6.494   3.188  1.5004  1.5964  0.3695
 1268TIP3    H225296   1.727   6.458   3.311 -0.6018 -1.8872  0.8651
 1269TIP3   OH225297   1.277   2.826  13.600 -0.1282  0.0216  0.6166
 1269TIP3    H125298   1.218   2.868  13.663 -0.1948 -2.2276  2.1407
 1269TIP3    H225299   1.348   2.791  13.653  0.6421 -0.5779 -0.7670
 1270TIP3   OH225300   0.188   5.210   2.042  0.0370  0.0125  0.4355
 1270TIP3    H125301   0.137   5.195   2.122 -2.9118  3.4501 -0.5158
 1270TIP3    H225302   0.260   5.266   2.069  0.9767 -1.5030  1.1477
 1271TIP3   OH225303   6.517   6.059  14.938 -0.4720  0.2190  0.0287
 1271TIP3    H125304   6.564   5.994  14.886 -1.2270 -0.2564 -0.0758
 1271TIP3    H225305   6.486   6.010  15.015 -0.1780  0.6959  0.4586
 1272TIP3   OH225306   4.342   0.702   3.142 -0.1331 -0.8227  0.3389
 1272TIP3    H125307   4.345   0.607   3.155 -0.4277 -0.8999 -0.1264
 1272TIP3    H225308   4.249   0.722   3.135 -0.0696 -0.4992  0.4208
 1273TIP3   OH225309   4.442   6.246  11.192  0.7428  0.0509 -0.1361
 1273TIP3    H125310   4.419   6.314  11.130 -0.3828 -0.0078  0.1905
 1273TIP3    H225311   4.405   6.166  11.155  3.1204 -0.6672 -1.1526
 1274TIP3   OH225312   2.357   2.908   5.311 -0.1390 -0.6924 -0.2388
 1274TIP3    H125313   2.347   2.824   5.356 -0.4016 -1.3996 -1.5733
 1274TIP3    H225314   2.426   2.892   5.246  1.9696  0.9756  1.4069
 1275TIP3   OH225315   6.428   2.427   2.542  0.0542 -0.4961 -0.5972
 1275TIP3    H125316   6.468   2.345   2.572  0.4807  0.5881  2.1033
 1275TIP3    H225317   6.500   2.475   2.503  0.2896 -0.5701 -0.2626
 1276TIP3   OH225318   2.863   3.122   4.417  0.8150  0.3507 -0.9762
 1276TIP3    H125319   2.919   3.198   4.432  2.1811 -0.6714 -0.7521
 1276TIP3    H225320   2.867   3.073   4.499  1.0168 -0.6454 -1.5761
 1277TIP3   OH225321   1.493   2.949   5.676  0.4807  0.0031  0.1362
 1277TIP3    H125322   1.400   2.929   5.685  0.4160  1.0679  2.2819
 1277TIP3    H225323   1.501   2.988   5.589 -1.0623 -0.1496 -0.0900
 1278TIP3   OH225324   0.034   6.496  14.333 -0.6985 -0.2093 -0.5537
 1278TIP3    H125325  -0.057   6.515  14.308 -0.0427  2.4626 -1.2122
 1278TIP3    H225326   0.075   6.467  14.253 -0.2456  1.7358 -1.0753
 1279TIP3   OH225327   1.225   4.454  13.330 -0.3309 -0.0518  1.0912
 1279TIP3    H125328   1.154   4.499  13.376 -0.5343 -0.3032  1.0273
 1279TIP3    H225329   1.278   4.525  13.294  0.6683  0.1867  2.9323
 1280TIP3   OH225330   5.735   0.179   2.175 -0.0601  0.3335 -0.0362
 1280TIP3    H125331   5.799   0.248   2.193  1.4671 -0.7015 -1.1367
 1280TIP3    H225332   5.777   0.099   2.207 -0.7138 -0.3995 -0.9513
 1281TIP3   OH225333   4.038   3.865  15.467 -0.1290 -1.0044  0.5405
 1281TIP3    H125334   4.019   3.951  15.430 -1.8397 -2.1003 -1.3110
 1281TIP3    H225335   3.960   3.843  15.518  0.2563 -1.5072  0.9229
 1282TIP3   OH225336   6.018   2.961  14.674  0.7722 -0.0848  0.1943
 1282TIP3    H125337   6.057   2.999  14.752 -1.0972  0.5981  0.8630
 1282TIP3    H225338   6.053   2.872  14.670  1.7414  0.2355  1.1736
 1283TIP3   OH225339   2.486   2.886   3.393  0.1642 -0.2780  0.3522
 1283TIP3    H125340   2.470   2.981   3.389  2.4619  0.1348 -0.6027
 1283TIP3    H225341   2.495   2.868   3.487  0.6462  0.6431  0.5015
 1284TIP3   OH225342   3.508   6.642   0.747 -0.0266  0.6374  0.5095
 1284TIP3    H125343   3.597   6.619   0.771 -0.0196 -0.6818 -0.6838
 1284TIP3    H225344   3.516   6.724   0.698  0.6725 -0.0551 -0.5664
 1285TIP3   OH225345   3.589   6.164  16.033  0.0507  0.5513 -0.1292
 1285TIP3    H125346   3.601   6.166  15.938 -0.3996  0.8432 -0.1778
 1285TIP3    H225347   3.498   6.187  16.047  0.0315  0.2001  0.3629
 1286TIP3   OH225348   3.294   5.731  12.181  0.0231 -0.5498 -0.0320
 1286TIP3    H125349   3.357   5.802  12.172 -0.2356 -0.4056 -0.7894
 1286TIP3    H225350   3.283   5.720  12.275 -0.9782  1.3818  0.1347
 1287TIP3   OH225351   4.450   2.589  12.410  0.0740  0.3760 -0.5043
 1287TIP3    H125352   4.371   2.639  12.431  0.6312  0.7367  0.9121
 1287TIP3    H225353   4.437   2.558  12.321 -1.9954 -0.2299 -0.0288
 1288TIP3   OH225354   3.217   0.978  13.353  0.4530 -0.2266 -0.3645
 1288TIP3    H125355   3.259   1.060  13.377  1.7535 -0.6868 -0.9634
 1288TIP3    H225356   3.285   0.929  13.306 -0.0718 -1.9433  0.5968
 1289TIP3   OH225357   0.398   5.771   6.026  0.2529  0.8119 -0.1208
 1289TIP3    H125358   0.446   5.769   6.109  0.2300 -0.5002 -0.1132
 1289TIP3    H225359   0.312   5.734   6.046  0.1446  0.7523 -0.6581
 1290TIP3   OH225360   2.712   1.418   0.288 -0.7318 -0.1163 -0.4871
 1290TIP3    H125361   2.693   1.328   0.315 -0.9370 -0.0740 -0.4902
 1290TIP3    H225362   2.646   1.471   0.332 -0.3458  0.0846 -0.1406
 1291TIP3   OH225363   1.125   4.589  12.155 -0.0532 -0.0057 -0.5900
 1291TIP3    H125364   1.109   4.662  12.096  1.5138 -0.2688 -1.3814
 1291TIP3    H225365   1.207   4.610  12.199 -1.2930  0.3165  1.7708
 1292TIP3   OH225366   0.741   3.541   3.558  0.2071  0.1542 -0.1050
 1292TIP3    H125367   0.796   3.617   3.541  0.4773 -0.2013 -0.8780
 1292TIP3    H225368   0.652   3.571   3.543  0.2232  0.6095  0.6881
 1293TIP3   OH225369   6.353   0.134   1.427  0.4204 -0.1204 -0.5525
 1293TIP3    H125370   6.322   0.063   1.371  1.3223 -0.5316 -0.5468
 1293TIP3    H225371   6.347   0.212   1.373 -0.5011 -0.2114 -0.5866
 1294TIP3   OH225372   6.511   3.414  15.667  0.1797 -0.4676  0.3021
 1294TIP3    H125373   6.421   3.384  15.652  0.0534  0.4559 -0.9053
 1294TIP3    H225374   6.504   3.476  15.740 -0.5458  1.2662 -1.1765
 1295TIP3   OH225375   5.507   3.676   1.462 -0.0860  0.6798  0.5972
 1295TIP3    H125376   5.599   3.653   1.476 -0.7692 -0.9051  3.1824
 1295TIP3    H225377   5.476   3.611   1.399 -0.1020 -0.7161  1.9832
 1296TIP3   OH225378   4.890   4.307  12.208  0.3534  0.3510  0.0375
 1296TIP3    H125379   4.916   4.374  12.270 -0.8728 -2.4342  3.9608
 1296TIP3    H225380   4.794   4.314  12.204 -0.1312 -2.5261  2.6544
 1297TIP3   OH225381   3.568   6.497  11.631  0.3918 -0.1179  1.0168
 1297TIP3    H125382   3.653   6.534  11.607  0.8398 -0.9606  1.2529
 1297TIP3    H225383   3.546   6.538  11.714  0.2042  0.6616  0.5900
 1298TIP3   OH225384   5.142   2.655  12.205 -0.2378  0.2259  0.0070
 1298TIP3    H125385   5.170   2.700  12.125 -0.3472 -0.1940 -0.2752
 1298TIP3    H225386   5.084   2.716  12.249 -1.0937  0.0243 -0.8180
 1299TIP3   OH225387   0.915   4.645   5.022  0.7954  0.1472  0.0148
 1299TIP3    H125388   0.880   4.733   5.005 -0.6179 -0.2926  0.4718
 1299TIP3    H225389   0.974   4.656   5.096 -0.5359  0.4886  1.0586
 1300TIP3   OH225390   2.638   4.560  14.617 -0.2800  0.1657  0.7387
 1300TIP3    H125391   2.643   4.506  14.696  0.0429  1.3486  1.5609
 1300TIP3    H225392   2.603   4.644  14.648 -0.9147  0.3942 -0.5254
 1301TIP3   OH225393   0.871   0.965  12.289  0.1421  0.0407 -0.0331
 1301TIP3    H125394   0.825   0.916  12.358  0.8558  0.6864  0.9266
 1301TIP3    H225395   0.943   0.908  12.263  1.4599  0.8400  1.6554
 1302TIP3   OH225396   2.471   6.345   1.262 -0.0650 -0.2989 -0.1556
 1302TIP3    H125397   2.518   6.287   1.321  0.2963 -0.7827 -0.9067
 1302TIP3    H225398   2.478   6.303   1.176  2.8705  2.2863 -1.3958
 1303TIP3   OH225399   0.160   4.995  10.821 -0.0396 -0.0110 -0.2969
 1303TIP3    H125400   0.074   5.036  10.827  0.0474 -0.0206  2.3203
 1303TIP3    H225401   0.143   4.902  10.836  0.3810 -0.0411  0.0195
 1304TIP3   OH225402   6.761   1.565  12.484  0.0350 -0.6916 -0.2975
 1304TIP3    H125403   6.680   1.616  12.482 -0.1648 -1.0289 -1.1314
 1304TIP3    H225404   6.735   1.478  12.454  0.9914 -0.3974 -2.0965
 1305TIP3   OH225405   3.904   6.688   5.364  0.5170 -0.1272  0.2803
 1305TIP3    H125406   3.871   6.753   5.302 -0.0495 -0.7887 -0.1196
 1305TIP3    H225407   3.826   6.644   5.396  0.3473  2.2569  3.8908
 1306TIP3   OH225408   2.991   6.235  13.996 -0.5141  0.1024 -0.4450
 1306TIP3    H125409   3.034   6.173  14.055 -0.9247  1.3965  1.2953
 1306TIP3    H225410   2.907   6.193  13.976 -0.0797 -0.6714 -0.6889
 1307TIP3   OH225411   6.763   1.432   4.175 -0.1712 -0.4563 -0.1826
 1307TIP3    H125412   6.775   1.526   4.193 -0.9403 -0.6038  1.2491
 1307TIP3    H225413   6.668   1.419   4.182 -0.0921 -1.3055 -0.6018
 1308TIP3   OH225414   4.393   0.547   2.229  0.1830 -0.6331 -0.0080
 1308TIP3    H125415   4.476   0.591   2.211 -1.0923  1.0968 -2.1435
 1308TIP3    H225416   4.377   0.494   2.152  0.6104 -3.2789  1.6152
 1309TIP3   OH225417   2.983   0.715   0.068  0.1776  0.1338 -0.7706
 1309TIP3    H125418   2.918   0.683   0.130  0.3002  1.0116 -0.1670
 1309TIP3    H225419   2.939   0.786   0.021  0.0581 -0.5776 -1.7622
 1310TIP3   OH225420   6.575   1.402   5.641 -0.2855  0.3796  1.0526
 1310TIP3    H125421   6.515   1.465   5.602  0.2560  1.0305  1.2505
 1310TIP3    H225422   6.556   1.320   5.596 -0.1495  0.9569 -0.0941
 1311TIP3   OH225423   4.064   1.609   3.803  0.0399  0.6257  0.0257
 1311TIP3    H125424   4.105   1.640   3.723  0.8368  1.5830  0.7714
 1311TIP3    H225425   3.989   1.557   3.774  0.8366  0.2099 -1.3382
 1312TIP3   OH225426   5.991   3.062   6.462 -0.3413  0.0274 -0.1270
 1312TIP3    H125427   6.007   3.095   6.551  0.0434  0.3109 -0.3007
 1312TIP3    H225428   6.028   3.128   6.404 -1.4159  0.2888 -0.5309
 1313TIP3   OH225429   3.960   5.629   4.410  0.5173 -0.2227 -0.1794
 1313TIP3    H125430   3.911   5.662   4.335 -0.1427  1.2170  0.8282
 1313TIP3    H225431   3.969   5.535   4.394 -2.9830 -0.7027 -0.2457
 1314TIP3   OH225432   2.358   4.087   5.203  0.1504  0.1524 -0.0819
 1314TIP3    H125433   2.437   4.141   5.212 -0.0810  0.5182 -0.2453
 1314TIP3    H225434   2.291   4.147   5.172 -1.0613  0.6165  3.0892
 1315TIP3   OH225435   6.151   5.288  15.674 -0.3603  0.0830  0.2004
 1315TIP3    H125436   6.107   5.373  15.679  1.1049  1.0275 -1.5887
 1315TIP3    H225437   6.169   5.276  15.581  0.8754 -1.4308  0.5962
 1316TIP3   OH225438   3.287   5.224   5.909  0.0639  0.3280 -0.2611
 1316TIP3    H125439   3.358   5.207   5.971 -1.3274  1.0115  1.6457
 1316TIP3    H225440   3.261   5.137   5.878  0.3465 -0.1023  0.6631
 1317TIP3   OH225441   2.921   3.452  12.283  0.5553 -0.2124  0.3488
 1317TIP3    H125442   3.008   3.480  12.310  0.9146  0.0529 -1.0557
 1317TIP3    H225443   2.936   3.381  12.221 -0.2317 -0.2390  0.1704
 1318TIP3   OH225444   4.317   3.004   2.367 -0.0990  0.6271  0.1434
 1318TIP3    H125445   4.314   2.960   2.283 -0.0389  1.5184 -0.3370
 1318TIP3    H225446   4.237   3.057   2.369 -0.3180  0.2898  0.8332
 1319TIP3   OH225447   5.095   5.562   3.967 -0.2148  0.0641  0.2726
 1319TIP3    H125448   5.054   5.488   3.923  0.1489  2.0158 -3.8580
 1319TIP3    H225449   5.188   5.541   3.968 -0.2587 -0.1242  0.3909
 1320TIP3   OH225450   2.739   5.172   4.253 -1.0385 -0.3423  0.2255
 1320TIP3    H125451   2.742   5.216   4.338 -1.2857 -3.0830  1.7474
 1320TIP3    H225452   2.649   5.138   4.247 -0.4373 -1.9225 -0.1737
 1321TIP3   OH225453   5.874   4.076   0.911  0.2423  0.3989 -0.0631
 1321TIP3    H125454   5.902   4.048   0.998 -1.5931  0.7379  0.6799
 1321TIP3    H225455   5.954   4.076   0.859  1.3208 -0.1659  1.5228
 1322TIP3   OH225456   5.543   4.995  16.246  0.4767 -0.2161  0.0315
 1322TIP3    H125457   5.512   4.910  16.217 -1.2461  0.7168 -0.9913
 1322TIP3    H225458   5.578   5.036  16.167  0.8278  0.2443  0.4163
 1323TIP3   OH225459   4.887   6.446  10.541 -0.2667 -0.2784 -0.3505
 1323TIP3    H125460   4.898   6.372  10.481  0.0219  1.2000 -2.1787
 1323TIP3    H225461   4.792   6.456  10.549 -0.3295 -1.3221  0.5884
 1324TIP3   OH225462   2.147   4.190   0.402 -0.2647 -0.3809 -0.6114
 1324TIP3    H125463   2.150   4.140   0.320  1.0838 -0.0989 -0.7566
 1324TIP3    H225464   2.145   4.282   0.374 -3.7840 -0.2402 -0.3775
 1325TIP3   OH225465   4.124   2.690   1.902  0.1732  0.5296  0.8550
 1325TIP3    H125466   4.181   2.761   1.874 -1.3927  0.8260 -1.8803
 1325TIP3    H225467   4.040   2.732   1.921 -1.0206 -0.5510 -1.5609
 1326TIP3   OH225468   5.136   4.904   5.054  0.3298  0.3317 -0.6594
 1326TIP3    H125469   5.166   4.838   5.117  0.2950  0.5705 -0.3937
 1326TIP3    H225470   5.082   4.963   5.105 -0.4937 -0.0198 -1.1102
 1327TIP3   OH225471   1.165   0.588  13.874 -0.1629 -0.5351  0.2468
 1327TIP3    H125472   1.073   0.564  13.886 -0.2185 -0.1800  0.5573
 1327TIP3    H225473   1.191   0.543  13.794 -0.8580  0.0663 -0.3310
 1328TIP3   OH225474   5.176   5.603   1.559  0.3167  0.2264 -0.5326
 1328TIP3    H125475   5.181   5.581   1.466 -2.2131 -0.7067 -0.5093
 1328TIP3    H225476   5.084   5.624   1.575  1.1406  3.2577  1.1911
 1329TIP3   OH225477   1.642   3.356   3.590 -0.8039 -0.4323  0.2928
 1329TIP3    H125478   1.635   3.292   3.661 -0.4060 -1.1444 -0.2926
 1329TIP3    H225479   1.558   3.351   3.545 -0.6558 -0.7895  0.0509
 1330TIP3   OH225480   2.917   5.763   6.276 -0.9732  0.2427  0.5278
 1330TIP3    H125481   2.985   5.797   6.335  1.9722 -0.8273 -1.9655
 1330TIP3    H225482   2.871   5.841   6.245  0.3651  1.2289  0.9082
 1331TIP3   OH225483   2.428   0.861   2.880 -0.2787  0.1970  0.4018
 1331TIP3    H125484   2.524   0.865   2.885 -0.2595  0.6981 -0.2832
 1331TIP3    H225485   2.409   0.771   2.854 -0.0953 -0.4895  2.4039
 1332TIP3   OH225486   1.289   5.683  15.136 -0.7838  0.3031  0.2818
 1332TIP3    H125487   1.229   5.647  15.201 -0.8504 -0.3901 -0.1587
 1332TIP3    H225488   1.262   5.775  15.127 -0.9522  0.3303  1.0186
 1333TIP3   OH225489   2.307   1.271   3.606 -1.2402 -0.2440 -0.2297
 1333TIP3    H125490   2.381   1.330   3.590 -1.2229  0.0853  0.9868
 1333TIP3    H225491   2.272   1.253   3.519 -0.1596  0.1602 -0.7630
 1334TIP3   OH225492   0.804   1.181  14.717  0.0386 -0.7047 -0.6607
 1334TIP3    H125493   0.715   1.147  14.730 -0.5094  1.0901  0.6268
 1334TIP3    H225494   0.829   1.148  14.630 -2.8456  0.6608 -2.1640
 1335TIP3   OH225495   5.587   5.839   4.240 -0.0560  0.0760  0.3190
 1335TIP3    H125496   5.509   5.842   4.295 -1.1860  0.7287 -1.2309
 1335TIP3    H225497   5.568   5.901   4.169  0.5878 -1.8826 -1.6999
 1336TIP3   OH225498   6.402   5.165   4.904 -0.0957 -0.0576 -0.1608
 1336TIP3    H125499   6.382   5.134   4.992 -1.3211  0.7886 -0.1125
 1336TIP3    H225500   6.478   5.114   4.876  0.9452  0.3612  1.7603
 1337TIP3   OH225501   2.345   0.576   2.779 -1.4157  0.1907 -0.0769
 1337TIP3    H125502   2.292   0.531   2.845 -1.8685  1.2760  0.3278
 1337TIP3    H225503   2.433   0.577   2.815 -1.4724 -0.0751  0.0700
 1338TIP3   OH225504   2.650   5.246  14.048  0.9242 -0.1178 -0.1971
 1338TIP3    H125505   2.651   5.328  13.998 -1.6608 -0.6063 -1.2145
 1338TIP3    H225506   2.667   5.179  13.982  1.6135 -0.5129  0.3734
 1339TIP3   OH225507   0.726   4.236   5.456 -0.7843  0.5548 -0.0023
 1339TIP3    H125508   0.636   4.211   5.472 -0.4760 -0.9198 -0.3963
 1339TIP3    H225509   0.778   4.169   5.500  0.1632  2.2294  1.5311
 1340TIP3   OH225510   3.581   2.301   5.700  0.6396 -0.5208  0.0102
 1340TIP3    H125511   3.555   2.391   5.722  2.6985 -0.2573  1.6176
 1340TIP3    H225512   3.669   2.310   5.665  0.3189 -1.8041 -1.1898
 1341TIP3   OH225513   4.639   1.324  15.058  0.4608 -0.2572 -0.5449
 1341TIP3    H125514   4.735   1.324  15.060  0.4577  0.1185  1.1301
 1341TIP3    H225515   4.614   1.412  15.086 -0.3614 -0.7378  0.3285
 1342TIP3   OH225516   3.520   4.029  16.697  0.6296  0.7684 -0.3706
 1342TIP3    H125517   3.517   3.950  16.642 -2.1163  0.6018 -0.1137
 1342TIP3    H225518   3.576   4.089  16.648  1.3863 -0.7107 -1.4292
 1343TIP3   OH225519   1.774   4.260   5.611  0.2039  0.0317 -0.3704
 1343TIP3    H125520   1.834   4.237   5.682 -0.8243  0.4072  0.6486
 1343TIP3    H225521   1.822   4.238   5.531  1.0715 -1.1925  0.4483
 1344TIP3   OH225522   6.209   0.488  12.924 -0.2001 -0.1134  0.4003
 1344TIP3    H125523   6.246   0.412  12.881 -0.8120 -0.1120 -0.1411
 1344TIP3    H225524   6.169   0.454  13.004  0.4467 -0.1943  0.7016
 1345TIP3   OH225525   4.233   6.716   5.580 -0.3891  0.3990  0.1459
 1345TIP3    H125526   4.317   6.733   5.622 -0.2735  0.8806 -0.2791
 1345TIP3    H225527   4.240   6.756   5.494 -0.7338 -0.3230 -0.2294
 1346TIP3   OH225528   0.566   1.810   2.012  0.2038 -0.3519  0.6579
 1346TIP3    H125529   0.532   1.761   2.087 -1.8586  0.0772  0.0425
 1346TIP3    H225530   0.660   1.790   2.012 -0.2562 -2.8911  1.4774
 1347TIP3   OH225531   2.924   5.097   4.750  0.0062 -0.6966  0.1804
 1347TIP3    H125532   2.973   5.075   4.671  0.6164 -0.8011  0.5862
 1347TIP3    H225533   2.843   5.046   4.743  0.2696 -1.0722 -0.1398
 1348TIP3   OH225534   6.208   5.600  12.003  0.4140  0.3066 -0.1178
 1348TIP3    H125535   6.257   5.606  12.086 -0.4534  0.3292  0.4055
 1348TIP3    H225536   6.156   5.680  12.000 -0.6801 -0.3845  0.0465
 1349TIP3   OH225537   3.473   5.618  16.557  0.1870 -0.2289 -0.0099
 1349TIP3    H125538   3.419   5.539  16.553 -1.2912  0.8067 -1.6902
 1349TIP3    H225539   3.513   5.615  16.644 -1.9126 -1.4820  0.9990
 1350TIP3   OH225540   0.045   3.353   4.943 -0.4708 -0.2965  0.1895
 1350TIP3    H125541  -0.024   3.384   5.002  0.4380  0.9868  0.6130
 1350TIP3    H225542   0.125   3.355   4.996  0.3591  0.8488 -1.0562
 1351TIP3   OH225543   3.148   3.221  15.264 -0.5217 -0.4792 -0.3704
 1351TIP3    H125544   3.239   3.212  15.235 -0.3177 -1.5169  0.5096
 1351TIP3    H225545   3.106   3.273  15.195  0.3745 -1.2574 -1.5594
 1352TIP3   OH225546   0.248   0.505  11.367 -0.0332  0.4407 -0.5573
 1352TIP3    H125547   0.283   0.502  11.278  1.8128  0.5026  0.1230
 1352TIP3    H225548   0.320   0.542  11.419 -0.9485  0.0568  1.0158
 1353TIP3   OH225549   1.265   3.198   4.177 -0.0488 -0.2454  0.3490
 1353TIP3    H125550   1.266   3.105   4.197  1.7759 -1.0880 -2.9283
 1353TIP3    H225551   1.177   3.216   4.146  0.5239 -1.8914 -2.5448
 1354TIP3   OH225552   3.392   0.610   4.227 -0.6050 -0.4917  0.7169
 1354TIP3    H125553   3.375   0.664   4.150  0.6925  0.1275  0.8427
 1354TIP3    H225554   3.343   0.651   4.297  1.8646  1.7904  1.2846
 1355TIP3   OH225555   1.995   2.280  11.937  0.1852 -0.3784  0.4864
 1355TIP3    H125556   1.999   2.185  11.947 -0.5466 -0.4137  0.4862
 1355TIP3    H225557   1.902   2.299  11.924  0.2020  0.4309  1.4355
 1356TIP3   OH225558   4.157   3.243   5.585  0.0387 -0.5842 -0.2655
 1356TIP3    H125559   4.083   3.228   5.527 -1.1692 -0.4124  1.1813
 1356TIP3    H225560   4.196   3.324   5.554  0.2201 -1.1729 -1.6300
 1357TIP3   OH225561   1.303   3.358   3.063 -0.2794  0.1529 -0.1382
 1357TIP3    H125562   1.372   3.300   3.094 -0.3155 -0.9742 -2.0008
 1357TIP3    H225563   1.350   3.427   3.015 -0.3868 -0.1479 -0.6855
 1358TIP3   OH225564   4.485   4.016   5.930 -0.6813 -0.4966 -0.1998
 1358TIP3    H125565   4.506   3.927   5.904 -0.5609 -0.7064  0.5941
 1358TIP3    H225566   4.569   4.060   5.938 -0.5939 -0.9289  1.5419
 1359TIP3   OH225567   0.726   1.229  11.285 -0.4175  0.6735  0.7484
 1359TIP3    H125568   0.803   1.193  11.242  1.0663 -0.9112  4.3501
 1359TIP3    H225569   0.737   1.324  11.278 -0.6414  0.5855 -2.6784
 1360TIP3   OH225570   1.126   2.078  13.535  0.5086  0.5619 -0.3072
 1360TIP3    H125571   1.198   2.140  13.529  0.3285  0.8730  0.6072
 1360TIP3    H225572   1.156   2.011  13.597 -0.0341  0.7673  0.1827
 1361TIP3   OH225573   5.560   4.898  14.886  0.5978  0.5274  0.5740
 1361TIP3    H125574   5.511   4.858  14.958 -0.1524 -1.1622 -0.8284
 1361TIP3    H225575   5.649   4.908  14.922 -0.3165  2.2440  2.6183
 1362TIP3   OH225576   0.449   5.654  10.430 -0.0327 -0.3047  0.2101
 1362TIP3    H125577   0.381   5.588  10.442 -0.2043 -0.1017  0.3594
 1362TIP3    H225578   0.506   5.618  10.362 -0.9311  0.0452 -0.7487
 1363TIP3   OH225579   2.448   6.055   3.551 -0.1616  0.1358 -0.0147
 1363TIP3    H125580   2.383   6.124   3.536 -0.9801 -0.5044  0.4999
 1363TIP3    H225581   2.494   6.082   3.630 -0.1348  0.3471 -0.1026
 1364TIP3   OH225582   6.336   1.228  13.478 -0.3764 -0.0332 -0.3900
 1364TIP3    H125583   6.360   1.320  13.487 -1.2085  0.4406 -2.4639
 1364TIP3    H225584   6.411   1.180  13.512  0.6578  1.4100 -0.5599
 1365TIP3   OH225585   4.655   3.571   3.747 -0.5164 -0.2362 -0.0985
 1365TIP3    H125586   4.648   3.477   3.758 -0.0049 -0.3509 -0.6984
 1365TIP3    H225587   4.641   3.586   3.653 -2.2932  0.4601  0.2264
 1366TIP3   OH225588   6.578   1.220  13.959 -0.0993 -0.2795 -0.1977
 1366TIP3    H125589   6.659   1.248  13.915  0.8605 -1.8549  0.4590
 1366TIP3    H225590   6.581   1.261  14.045  0.4056 -0.9133  0.1002
 1367TIP3   OH225591   3.491   4.809   2.916  0.3005 -0.7299 -0.1101
 1367TIP3    H125592   3.410   4.810   2.866 -0.4318 -0.0974  1.0604
 1367TIP3    H225593   3.559   4.831   2.852 -0.7843  1.6155 -0.5589
 1368TIP3   OH225594   6.259   2.801   1.489  0.6454  0.0480 -0.5958
 1368TIP3    H125595   6.326   2.734   1.475 -0.8503 -1.5571 -0.4624
 1368TIP3    H225596   6.231   2.825   1.401  0.4506 -0.2754 -0.6217
 1369TIP3   OH225597   0.469   5.431   4.030 -0.1175 -0.2968 -0.3786
 1369TIP3    H125598   0.395   5.472   4.076  1.0850  0.3870  1.0160
 1369TIP3    H225599   0.450   5.446   3.937 -2.0296 -0.6766 -0.0988
 1370TIP3   OH225600   5.380   5.013   1.750 -0.6607  0.2358 -0.2920
 1370TIP3    H125601   5.368   4.929   1.794 -1.2333 -0.1670 -1.1998
 1370TIP3    H225602   5.294   5.034   1.713 -0.4516  1.0761 -0.3318
 1371TIP3   OH225603   6.254   0.507   1.749  0.3613  0.4198 -0.3831
 1371TIP3    H125604   6.227   0.432   1.697 -2.5551  0.6901  0.5664
 1371TIP3    H225605   6.343   0.485   1.778 -0.3948 -2.7296 -0.0700
 1372TIP3   OH225606   6.122   0.687   1.060 -0.0845  0.4787 -0.2142
 1372TIP3    H125607   6.134   0.618   1.126 -0.0439 -0.7392 -1.4447
 1372TIP3    H225608   6.045   0.735   1.089 -1.7017 -1.7155 -0.6357
 1373TIP3   OH225609   1.550   3.456  17.241 -0.0440  0.0189  0.2261
 1373TIP3    H125610   1.626   3.452  17.299  0.5905  0.0324 -0.5852
 1373TIP3    H225611   1.578   3.410  17.162 -0.7752  0.2900 -0.2016
 1374TIP3   OH225612   1.853   1.869  16.810 -0.1423 -0.6189 -0.2574
 1374TIP3    H125613   1.782   1.806  16.795 -1.8922  1.2572 -0.3988
 1374TIP3    H225614   1.837   1.901  16.899  0.1118  0.3005 -0.5301
 1375TIP3   OH225615   1.054   4.123  12.545 -0.0380 -0.1969  0.2479
 1375TIP3    H125616   1.131   4.120  12.489 -0.2825 -0.8867 -0.0636
 1375TIP3    H225617   1.022   4.212  12.537 -1.1910 -0.7475 -2.2694
 1376TIP3   OH225618   3.829   3.092   0.425 -0.4391  0.0377  0.1396
 1376TIP3    H125619   3.750   3.068   0.473  0.4169  0.1389  1.6675
 1376TIP3    H225620   3.851   3.179   0.459 -0.1574  0.3904 -0.9227
 1377TIP3   OH225621   4.569   4.682   4.835 -0.6517 -0.3213  0.5075
 1377TIP3    H125622   4.601   4.619   4.770  1.2340  0.8843  0.1890
 1377TIP3    H225623   4.607   4.654   4.918  0.2198  0.3709  0.3599
 1378TIP3   OH225624   3.883   5.978   2.663  0.1537  0.1458 -0.1207
 1378TIP3    H125625   3.881   5.950   2.754 -0.2890 -3.1981 -1.0264
 1378TIP3    H225626   3.971   6.014   2.651 -0.6406  3.3178  2.1856
 1379TIP3   OH225627   3.833   5.375  17.289  0.1607  0.1059  0.1137
 1379TIP3    H125628   3.782   5.383  17.370 -1.4439 -0.8320 -0.7580
 1379TIP3    H225629   3.881   5.292  17.300 -0.1109 -0.0565  0.0752
 1380TIP3   OH225630   0.508   6.494   6.520 -0.5434  0.7962  0.5220
 1380TIP3    H125631   0.590   6.469   6.477 -0.8746 -0.5317  0.6282
 1380TIP3    H225632   0.513   6.589   6.527  1.0222  0.7417  0.5850
 1381TIP3   OH225633   2.783   4.485   5.486  0.1981  0.4419 -0.0845
 1381TIP3    H125634   2.868   4.508   5.448  1.7058  1.1045  3.3609
 1381TIP3    H225635   2.792   4.394   5.512 -0.5677  0.1932 -0.6500
 1382TIP3   OH225636   4.381   3.757   4.295 -0.2657 -0.1237 -0.4213
 1382TIP3    H125637   4.365   3.723   4.383 -3.0136 -0.0585 -0.7913
 1382TIP3    H225638   4.313   3.824   4.283  0.6515  0.5495 -2.2516
 1383TIP3   OH225639   6.161   6.753   1.338 -0.6362 -0.8942 -0.2610
 1383TIP3    H125640   6.099   6.825   1.328 -0.7530 -1.0759 -0.9436
 1383TIP3    H225641   6.119   6.693   1.399 -0.0047  0.1739  1.2793
 1384TIP3   OH225642   2.309   3.032   2.570  0.0927 -0.0536  0.0688
 1384TIP3    H125643   2.299   3.110   2.516  0.1391 -0.4369 -0.5031
 1384TIP3    H225644   2.228   2.982   2.557 -0.3559  0.3505  1.1897
 1385TIP3   OH225645   3.466   0.618  15.303  0.0122  0.7931  0.1828
 1385TIP3    H125646   3.533   0.614  15.371  0.7250  0.6152 -0.5186
 1385TIP3    H225647   3.497   0.560  15.234 -0.8345  0.7609 -0.1896
 1386TIP3   OH225648   2.701   2.549  16.002 -1.2184  0.4433 -0.2933
 1386TIP3    H125649   2.774   2.527  16.060 -1.5702 -1.9456 -0.6531
 1386TIP3    H225650   2.698   2.645  16.002  2.0323  0.6384 -0.4350
 1387TIP3   OH225651   0.103   5.278   1.561  0.7790 -0.1849 -0.6035
 1387TIP3    H125652   0.142   5.364   1.549 -0.4843  0.2234 -2.1635
 1387TIP3    H225653   0.052   5.284   1.642  0.5285  0.6097 -0.8186
 1388TIP3   OH225654   2.356   0.953  16.936  0.2488  0.5633  0.1773
 1388TIP3    H125655   2.304   0.998  17.003  1.4875  1.1192  0.7914
 1388TIP3    H225656   2.312   0.869  16.925 -1.5462  1.5297 -0.2950
 1389TIP3   OH225657   2.705   6.295   5.597 -0.1331 -0.1390  0.2077
 1389TIP3    H125658   2.757   6.272   5.675  0.1574 -1.0870 -0.2495
 1389TIP3    H225659   2.677   6.211   5.562  2.6831 -0.0388 -2.7296
 1390TIP3   OH225660   4.396   4.733   0.695  0.0168  0.6614  0.3428
 1390TIP3    H125661   4.445   4.815   0.695  3.4854 -1.2299 -0.7963
 1390TIP3    H225662   4.394   4.706   0.603  0.0995 -1.1320  0.8342
 1391TIP3   OH225663   3.155   3.724  12.717  0.0546  0.6472  0.0018
 1391TIP3    H125664   3.214   3.711  12.792  0.5612 -0.3627 -0.5507
 1391TIP3    H225665   3.068   3.731  12.756  0.3223  0.2407  0.6985
 1392TIP3   OH225666   1.308   0.462   3.349 -0.3893 -0.3265 -0.5838
 1392TIP3    H125667   1.229   0.440   3.300 -0.4400 -3.1371  0.5449
 1392TIP3    H225668   1.338   0.378   3.385  2.1234  0.9165  0.4918
 1393TIP3   OH225669   1.498   4.744  13.889  0.1894  0.0846  0.0429
 1393TIP3    H125670   1.516   4.654  13.913 -1.3372 -0.1713  0.3340
 1393TIP3    H225671   1.527   4.796  13.964  1.3394 -0.1064 -0.2441
 1394TIP3   OH225672   4.865   0.708  13.727  0.4672  0.1210 -0.0690
 1394TIP3    H125673   4.887   0.617  13.747  1.2146  0.5575  1.1596
 1394TIP3    H225674   4.816   0.703  13.645 -0.9180 -1.5482  0.7894
 1395TIP3   OH225675   0.268   0.528  14.358 -0.0428  0.0365  0.1001
 1395TIP3    H125676   0.181   0.489  14.360  0.1192 -0.3310  1.7143
 1395TIP3    H225677   0.319   0.475  14.419  0.8031  1.3565  0.5772
 1396TIP3   OH225678   1.784   1.293  14.402 -0.2285  0.5829 -0.1363
 1396TIP3    H125679   1.771   1.336  14.486 -0.8349 -1.1025  0.6735
 1396TIP3    H225680   1.838   1.355  14.352  1.1125  1.1579  1.8663
 1397TIP3   OH225681   3.360   6.092  14.032 -0.4552 -0.4868  0.1965
 1397TIP3    H125682   3.436   6.101  13.975 -1.0320 -2.1682 -0.9406
 1397TIP3    H225683   3.367   6.164  14.094  2.5478 -1.0793  0.7167
 1398TIP3   OH225684   0.594   2.379  17.084 -0.0702 -0.0148 -0.5848
 1398TIP3    H125685   0.675   2.396  17.132 -0.7131  1.0123  0.1682
 1398TIP3    H225686   0.537   2.454  17.104 -0.4492  0.3549 -2.7859
 1399TIP3   OH225687   0.419   1.276  11.647  0.4255 -0.0356 -0.0564
 1399TIP3    H125688   0.503   1.310  11.616 -0.0589 -0.4947 -1.9911
 1399TIP3    H225689   0.434   1.182  11.661  0.4372  0.0294  0.3890
 1400TIP3   OH225690   1.866   4.348  14.859  0.7176  0.5298  0.3374
 1400TIP3    H125691   1.909   4.328  14.942  2.1679  1.0367 -0.2468
 1400TIP3    H225692   1.842   4.262  14.823 -0.9801  0.3663  1.7808
 1401TIP3   OH225693   2.402   6.186  13.327  0.2201  0.0699  0.7056
 1401TIP3    H125694   2.332   6.120  13.329  1.0016 -0.7727  0.6714
 1401TIP3    H225695   2.482   6.137  13.344  0.9693  0.8162 -0.5150
 1402TIP3   OH225696   5.121   2.706   0.363 -0.4647 -0.2217  0.4624
 1402TIP3    H125697   5.191   2.641   0.357  0.6555  0.9000  0.9441
 1402TIP3    H225698   5.086   2.711   0.274  0.4134 -0.4395  0.0905
 1403TIP3   OH225699   5.626   1.542  11.123  0.5412 -0.0943  0.2766
 1403TIP3    H125700   5.637   1.447  11.122  0.9354 -0.0489 -0.1892
 1403TIP3    H225701   5.682   1.573  11.052 -0.1701  0.4284 -0.0679
 1404TIP3   OH225702   3.438   3.996  12.339 -1.2665  0.0286 -0.2379
 1404TIP3    H125703   3.368   3.964  12.281 -0.2331 -1.0279 -0.9568
 1404TIP3    H225704   3.394   4.054  12.401 -2.6618 -0.0660 -1.1060
 1405TIP3   OH225705   6.012   1.362   1.151 -0.6032  0.1882  0.0068
 1405TIP3    H125706   6.074   1.290   1.157  0.6678  1.2491  0.0934
 1405TIP3    H225707   5.978   1.373   1.240 -1.7192 -1.0507 -0.2405
 1406TIP3   OH225708   0.932   5.803  13.776  0.9682  0.1027  0.1018
 1406TIP3    H125709   0.973   5.849  13.703  0.1620  0.2695 -0.2539
 1406TIP3    H225710   0.900   5.872  13.834  2.3596 -0.0264  1.0613
 1407TIP3   OH225711   0.916   5.959  12.036 -0.3836  0.6065 -0.5372
 1407TIP3    H125712   1.009   5.948  12.017  0.0301 -3.2065  2.5034
 1407TIP3    H225713   0.872   5.946  11.952  1.6505 -4.0484 -1.1463
 1408TIP3   OH225714   6.795   1.000  11.294 -0.1028  0.3564 -0.0109
 1408TIP3    H125715   6.783   1.087  11.331 -0.4297  0.4011 -0.2281
 1408TIP3    H225716   6.783   1.010  11.200  2.4011  0.5608 -0.3780
 1409TIP3   OH225717   0.900   3.712   1.851 -0.0072 -0.6189  0.1331
 1409TIP3    H125718   0.832   3.671   1.904 -1.2884 -0.3961 -1.2580
 1409TIP3    H225719   0.908   3.801   1.885 -1.2499 -0.2858 -0.3969
 1410TIP3   OH225720   4.673   2.129   3.756 -0.0378  0.2892 -0.6592
 1410TIP3    H125721   4.673   2.225   3.753 -0.5850  0.3138 -0.0565
 1410TIP3    H225722   4.604   2.103   3.694  1.0462  0.2310 -1.8765
 1411TIP3   OH225723   1.623   5.112  16.526  0.1904 -0.0945  0.7052
 1411TIP3    H125724   1.543   5.059  16.526  1.0886 -1.5194 -0.0125
 1411TIP3    H225725   1.657   5.105  16.615 -1.3700  2.0026  1.5408
 1412TIP3   OH225726   0.374   0.615   3.265  0.0019  0.4943 -0.4253
 1412TIP3    H125727   0.423   0.535   3.286 -0.3205  0.0758 -1.2289
 1412TIP3    H225728   0.441   0.678   3.237  0.2800  0.5906  0.4146
 1413TIP3   OH225729   2.693   0.247  14.296 -0.6174 -0.0573 -0.6869
 1413TIP3    H125730   2.776   0.280  14.331 -0.6739  0.7065 -1.2552
 1413TIP3    H225731   2.643   0.222  14.374  0.0832 -0.3918 -0.3294
 1414TIP3   OH225732   1.002   2.257  15.319 -0.6030 -0.0784  0.2624
 1414TIP3    H125733   1.042   2.314  15.253  0.2357 -0.4229  0.4585
 1414TIP3    H225734   0.969   2.317  15.385  0.1401  0.1970  0.3960
 1415TIP3   OH225735   6.018   3.456  14.994 -0.2143  0.0541 -0.1243
 1415TIP3    H125736   6.058   3.437  14.909  0.3992  0.0088  0.1747
 1415TIP3    H225737   5.936   3.500  14.972 -0.3233 -0.4375 -0.7573
 1416TIP3   OH225738   5.736   1.287  14.027  0.4219 -0.1493 -0.0024
 1416TIP3    H125739   5.813   1.316  13.978  1.1062 -1.9528 -0.0620
 1416TIP3    H225740   5.751   1.320  14.116  1.9097 -1.4983  0.2925
 1417TIP3   OH225741   3.306   2.319   5.099  0.5731  0.5244  0.0248
 1417TIP3    H125742   3.347   2.235   5.120  2.7303  1.4651 -0.1926
 1417TIP3    H225743   3.378   2.382   5.102 -1.0611  2.4525  0.5997
 1418TIP3   OH225744   1.705   3.688  16.899  0.6599 -0.2927  0.7758
 1418TIP3    H125745   1.644   3.634  16.850  2.0928 -2.9246  1.6707
 1418TIP3    H225746   1.792   3.661  16.869  1.4656  1.4097  1.4135
 1419TIP3   OH225747   1.760   6.721   5.949  0.2838  0.2313 -0.5249
 1419TIP3    H125748   1.683   6.736   6.004  0.2035 -0.6765 -0.3684
 1419TIP3    H225749   1.831   6.767   5.994 -0.1261  0.9042 -0.5613
 1420TIP3   OH225750   5.819   4.818   5.501  0.3689  0.1284 -0.6658
 1420TIP3    H125751   5.877   4.753   5.541 -0.3985 -0.8075 -1.0220
 1420TIP3    H225752   5.731   4.785   5.519 -0.0087 -0.1924 -2.8847
 1421TIP3   OH225753   0.117   0.713  13.861 -0.6944 -0.1480  0.3695
 1421TIP3    H125754   0.031   0.743  13.892 -0.6454 -0.4286  0.7822
 1421TIP3    H225755   0.115   0.618  13.873  0.0629 -0.0557  1.3832
 1422TIP3   OH225756   1.211   6.010   3.493  0.5536  0.3429 -0.1060
 1422TIP3    H125757   1.295   5.964   3.500  0.7646  0.8630  1.0082
 1422TIP3    H225758   1.146   5.947   3.521  0.2882 -0.7435 -2.8609
 1423TIP3   OH225759   1.894   1.085   0.225 -0.4156 -0.4484  0.1539
 1423TIP3    H125760   1.852   1.004   0.195  0.1631 -0.9388  0.6272
 1423TIP3    H225761   1.832   1.154   0.203 -0.9355 -1.0246 -0.2336
 1424TIP3   OH225762   2.155   0.998  15.890 -0.2583 -0.7469 -0.3010
 1424TIP3    H125763   2.247   1.018  15.909 -0.8384  1.1576  0.8082
 1424TIP3    H225764   2.138   1.039  15.806 -0.1147 -1.0358 -0.4715
 1425TIP3   OH225765   5.039   6.109  16.826  0.2423  0.3484 -0.3215
 1425TIP3    H125766   5.118   6.148  16.790  2.1303 -0.2819  2.7604
 1425TIP3    H225767   4.971   6.174  16.809  2.3975  3.1610  0.9327
 1426TIP3   OH225768   0.768   1.721  16.638 -0.0624  0.0915  0.3881
 1426TIP3    H125769   0.786   1.791  16.701 -0.9190  3.2231 -2.5691
 1426TIP3    H225770   0.835   1.732  16.570 -0.4242 -1.8005 -0.3384
 1427TIP3   OH225771   3.598   4.053   3.596 -0.2646 -0.1173 -0.4558
 1427TIP3    H125772   3.624   3.983   3.536  2.0042 -1.9426  2.4073
 1427TIP3    H225773   3.516   4.022   3.635 -0.0038 -0.5523 -0.2365
 1428TIP3   OH225774   2.695   6.039  11.531 -0.0023  0.1511 -0.6712
 1428TIP3    H125775   2.685   6.027  11.626 -0.0488  0.0006 -0.6949
 1428TIP3    H225776   2.779   5.998  11.511  0.6441  1.3588 -0.4809
 1429TIP3   OH225777   3.802   1.802   1.367 -0.1045  0.6597  0.2698
 1429TIP3    H125778   3.870   1.753   1.413 -0.2243 -1.2239 -1.4255
 1429TIP3    H225779   3.804   1.768   1.278 -0.5497  3.4649 -0.9052
 1430TIP3   OH225780   3.254   6.291   0.521  0.3691  0.8133  0.2165
 1430TIP3    H125781   3.267   6.377   0.561 -0.7570  1.1578 -0.1059
 1430TIP3    H225782   3.314   6.233   0.568  2.3919  2.0591 -0.6736
 1431TIP3   OH225783   4.449   2.896   6.363 -0.1936 -0.3584  0.4880
 1431TIP3    H125784   4.498   2.978   6.359 -1.5507  0.6650  2.6402
 1431TIP3    H225785   4.512   2.831   6.393  0.7806 -0.0282 -0.7552
 1432TIP3   OH225786   3.167   2.996   2.843  0.1921 -0.5562  0.7478
 1432TIP3    H125787   3.160   2.960   2.931  0.1119 -0.3563  0.8246
 1432TIP3    H225788   3.137   3.087   2.852 -1.0850 -0.9025  0.2733
 1433TIP3   OH225789   5.662   6.074  16.403  0.5114 -0.0986  0.0223
 1433TIP3    H125790   5.715   5.995  16.389 -0.0989 -0.4993 -0.0825
 1433TIP3    H225791   5.726   6.145  16.410  1.0547 -0.5564 -0.1963
 1434TIP3   OH225792   4.229   0.403  13.218  0.0029  0.1313 -0.8587
 1434TIP3    H125793   4.184   0.480  13.181 -0.0494  0.4512 -0.1545
 1434TIP3    H225794   4.243   0.426  13.310  2.6222  0.5156 -1.2717
 1435TIP3   OH225795   4.449   6.655   1.310  0.4409  0.3478 -0.4521
 1435TIP3    H125796   4.514   6.697   1.367  1.0422 -0.7422 -0.3042
 1435TIP3    H225797   4.499   6.626   1.234  0.1470 -0.5126 -0.3367
 1436TIP3   OH225798   2.276   3.920   1.527 -0.0606 -0.2636  0.8729
 1436TIP3    H125799   2.282   3.952   1.437  2.0374 -2.4713  0.1072
 1436TIP3    H225800   2.193   3.955   1.560 -1.0752  0.3328 -2.0281
 1437TIP3   OH225801   6.584   5.402   2.545 -0.1080  0.3760  0.7307
 1437TIP3    H125802   6.539   5.411   2.629 -0.4887 -0.9881  0.6977
 1437TIP3    H225803   6.676   5.419   2.565  0.0158 -1.1850  1.7164
 1438TIP3   OH225804   6.380   0.439  14.353 -0.4382 -0.1136  0.3944
 1438TIP3    H125805   6.412   0.467  14.438 -0.5304 -2.2928  1.2071
 1438TIP3    H225806   6.454   0.393  14.313 -0.4819  0.6412 -0.5986
 1439TIP3   OH225807   1.678   3.372  15.578  0.3174  0.1029  0.2124
 1439TIP3    H125808   1.706   3.405  15.664 -0.6317  1.0913  0.1579
 1439TIP3    H225809   1.618   3.439  15.545  0.1884 -0.5693 -0.9565
 1440TIP3   OH225810   2.491   3.994   1.668 -1.0623  0.5207 -0.9262
 1440TIP3    H125811   2.564   3.951   1.624 -2.2028 -1.7335 -0.7732
 1440TIP3    H225812   2.414   3.970   1.616 -1.7157  3.1380 -1.3055
 1441TIP3   OH225813   5.672   5.098  13.025  0.1692 -0.2818 -0.2397
 1441TIP3    H125814   5.723   5.156  12.968 -1.0368 -0.0349 -1.1177
 1441TIP3    H225815   5.687   5.132  13.113 -0.2497  1.1734 -0.7025
 1442TIP3   OH225816   1.621   6.444   1.962  0.0938  0.1781 -0.5102
 1442TIP3    H125817   1.603   6.532   1.930 -2.0239 -0.2096 -0.5092
 1442TIP3    H225818   1.631   6.391   1.883 -2.1436 -0.2059 -0.5914
 1443TIP3   OH225819   6.429   4.990   2.191  0.7160  0.3901 -0.8482
 1443TIP3    H125820   6.495   4.957   2.252 -0.3254  0.3296  0.2896
 1443TIP3    H225821   6.394   5.067   2.235 -2.3516 -1.4735  0.2486
 1444TIP3   OH225822   2.951   5.855   4.726  0.8689  0.2327 -0.1149
 1444TIP3    H125823   3.035   5.891   4.755  0.4249  1.0038  0.2365
 1444TIP3    H225824   2.886   5.919   4.756  0.3951  1.2395 -2.9981
 1445TIP3   OH225825   1.332   2.287  16.533 -0.0004 -0.1117 -0.3141
 1445TIP3    H125826   1.275   2.287  16.609 -0.2310 -1.8026 -0.4440
 1445TIP3    H225827   1.276   2.315  16.461  0.1003  1.0332  0.0358
 1446TIP3   OH225828   6.582   5.002  16.337 -0.1572 -0.4942  0.1534
 1446TIP3    H125829   6.541   4.990  16.251 -0.9734 -0.6066  0.5509
 1446TIP3    H225830   6.629   5.085  16.329  0.2200 -0.7630 -0.5645
 1447TIP3   OH225831   5.969   5.008   0.068  0.5873 -0.2710 -0.4171
 1447TIP3    H125832   5.964   4.935   0.006 -0.0164 -0.0000 -0.6942
 1447TIP3    H225833   5.959   4.968   0.154 -1.2997 -0.3713 -0.6390
 1448TIP3   OH225834   5.399   3.116   5.320 -0.1698  0.1621 -0.4045
 1448TIP3    H125835   5.467   3.124   5.387  1.0784 -1.1564 -1.4584
 1448TIP3    H225836   5.349   3.198   5.327  0.1908  0.2673  1.7964
 1449TIP3   OH225837   5.952   5.994   4.874  0.7403 -0.6477  0.3760
 1449TIP3    H125838   5.903   5.913   4.860 -0.4122  0.0336  0.3051
 1449TIP3    H225839   5.939   6.015   4.966 -2.8392  1.7703 -0.4568
 1450TIP3   OH225840   2.861   4.888  12.906 -1.0173 -0.3482  0.4049
 1450TIP3    H125841   2.887   4.898  12.997 -1.8464  2.4646  0.4365
 1450TIP3    H225842   2.788   4.826  12.908 -1.3424  0.0541  1.7159
 1451TIP3   OH225843   5.295   4.339  13.671 -0.4338  0.0444 -0.3513
 1451TIP3    H125844   5.355   4.363  13.742  1.4103 -1.7438 -1.2153
 1451TIP3    H225845   5.208   4.363  13.704  0.4587  0.1642  2.0987
 1452TIP3   OH225846   2.104   6.047   0.980 -0.5568  0.3561 -0.8670
 1452TIP3    H125847   2.068   5.999   0.906 -2.6163  2.3298 -1.2546
 1452TIP3    H225848   2.096   6.139   0.956  0.2818  1.0205  1.1354
 1453TIP3   OH225849   6.795   1.851  16.898  0.5059  0.6190 -0.5242
 1453TIP3    H125850   6.706   1.855  16.862  0.5337  0.0832 -0.6715
 1453TIP3    H225851   6.835   1.934  16.872  0.0738  0.8320 -0.5268
 1454TIP3   OH225852   0.153   5.462  15.276 -0.7464  0.1043 -0.1322
 1454TIP3    H125853   0.186   5.432  15.192 -0.1742 -0.2069  0.1990
 1454TIP3    H225854   0.203   5.413  15.341 -0.6548  0.8810  0.4004
 1455TIP3   OH225855   6.047   2.301  17.179  0.4332 -0.7012 -0.1514
 1455TIP3    H125856   6.026   2.208  17.176  0.2987 -0.7169  0.9721
 1455TIP3    H225857   5.980   2.339  17.235  1.1360 -0.1156  0.3132
 1456TIP3   OH225858   3.902   2.530   5.397  0.0275  0.1066  0.5401
 1456TIP3    H125859   3.912   2.624   5.412  0.3553  0.1407  0.1160
 1456TIP3    H225860   3.872   2.523   5.306  2.9941 -0.3187 -0.5130
 1457TIP3   OH225861   4.558   0.097  14.441  0.2936 -0.6325 -0.1346
 1457TIP3    H125862   4.556   0.044  14.521  1.7242  0.1414  0.4580
 1457TIP3    H225863   4.641   0.146  14.447 -0.7926  1.4213 -0.7989
 1458TIP3   OH225864   5.549   2.490  13.053  0.3171 -0.3905 -0.1570
 1458TIP3    H125865   5.456   2.492  13.079  0.5854  1.8616  0.8492
 1458TIP3    H225866   5.549   2.446  12.968 -1.5829 -1.1017  0.1660
 1459TIP3   OH225867   5.018   4.869  11.905 -0.5093  0.2443 -0.3285
 1459TIP3    H125868   4.966   4.875  11.985 -1.3100  0.6437 -0.8700
 1459TIP3    H225869   4.955   4.881  11.834 -0.0812 -1.5795 -1.0926
 1460TIP3   OH225870   1.879   6.113   6.375  0.0553  0.4997  0.5984
 1460TIP3    H125871   1.810   6.048   6.361  1.0942 -0.5282  0.1030
 1460TIP3    H225872   1.955   6.061   6.403  0.4044  1.6864  1.9857
 1461TIP3   OH225873   0.553   4.792  15.954  0.3102 -0.2416 -0.7723
 1461TIP3    H125874   0.567   4.880  15.917 -1.2456 -0.1923 -1.3158
 1461TIP3    H225875   0.523   4.808  16.043  0.6180 -0.2496 -0.6649
 1462TIP3   OH225876   3.573   6.322  13.280 -0.1065 -0.1588  0.7245
 1462TIP3    H125877   3.587   6.281  13.195 -1.4521 -0.7102  0.7488
 1462TIP3    H225878   3.651   6.376  13.294 -0.4254  0.9821 -1.4393
 1463TIP3   OH225879   3.254   3.996   6.667  0.4958  0.0685 -0.4404
 1463TIP3    H125880   3.208   4.079   6.653 -0.5032 -0.3880  0.1058
 1463TIP3    H225881   3.186   3.930   6.673  1.2146 -0.6347  0.3070
 1464TIP3   OH225882   0.545   0.798   3.135  0.4007  0.4469 -0.2203
 1464TIP3    H125883   0.572   0.817   3.045  0.2053  0.4654 -0.2748
 1464TIP3    H225884   0.585   0.868   3.187 -0.8762  1.4300 -0.5017
 1465TIP3   OH225885   6.621   1.495  15.017  0.2877 -0.1979  0.3866
 1465TIP3    H125886   6.642   1.581  14.980  2.1599 -0.2277  1.2511
 1465TIP3    H225887   6.525   1.494  15.021  0.1710  1.3211 -0.8207
 1466TIP3   OH225888   4.442   6.500   3.119 -0.7433 -0.2063  0.2685
 1466TIP3    H125889   4.482   6.413   3.125 -2.5904 -1.1336 -0.1194
 1466TIP3    H225890   4.468   6.533   3.033 -1.1468 -0.9828 -0.1625
 1467TIP3   OH225891   1.811   1.138  14.664 -0.1911  0.3097  0.6315
 1467TIP3    H125892   1.860   1.186  14.597 -1.4972  0.1886 -0.4690
 1467TIP3    H225893   1.818   1.192  14.743  0.9346  0.7268  0.2700
 1468TIP3   OH225894   5.449   5.268  12.932 -0.8612  0.4250 -0.1482
 1468TIP3    H125895   5.465   5.197  12.994  0.2837  1.4399  0.7664
 1468TIP3    H225896   5.536   5.296  12.904 -1.1606  2.6261  0.8859
 1469TIP3   OH225897   1.626   4.733  13.465  0.4225  0.2363 -0.0421
 1469TIP3    H125898   1.535   4.715  13.487 -0.6573  1.7590 -2.6778
 1469TIP3    H225899   1.648   4.812  13.515 -0.6624  1.3864 -1.2742
 1470TIP3   OH225900   3.440   2.985   3.269 -0.2339  0.1304 -0.2143
 1470TIP3    H125901   3.465   2.942   3.187  0.2476  1.8637 -1.0395
 1470TIP3    H225902   3.404   3.069   3.241 -1.1856  0.2548  1.3165
 1471TIP3   OH225903   2.318   4.420   0.879 -0.0337 -0.2575 -0.3342
 1471TIP3    H125904   2.243   4.451   0.828  0.0079  3.6171  1.5151
 1471TIP3    H225905   2.283   4.409   0.968  1.3335  0.7614  0.3708
 1472TIP3   OH225906   5.756   4.673  11.078  0.1143 -0.2421 -0.0814
 1472TIP3    H125907   5.770   4.597  11.021 -0.3317 -0.8560  0.6077
 1472TIP3    H225908   5.707   4.735  11.024 -2.9242 -1.9829  0.4235
 1473TIP3   OH225909   4.552   6.038   5.224 -0.3178  0.0286 -0.3102
 1473TIP3    H125910   4.603   6.081   5.156  0.9725 -0.7565  0.1052
 1473TIP3    H225911   4.607   5.963   5.251 -2.7793 -2.4315 -1.6086
 1474TIP3   OH225912   6.478   0.926  14.671 -0.1241 -0.2022 -0.1264
 1474TIP3    H125913   6.465   0.888  14.758  1.8319  0.3719  0.4603
 1474TIP3    H225914   6.395   0.969  14.651 -0.4094  0.2279  1.7690
 1475TIP3   OH225915   0.813   3.348   3.722 -0.4688  0.4966 -0.4271
 1475TIP3    H125916   0.779   3.382   3.639  1.1043  0.8821 -0.9715
 1475TIP3    H225917   0.757   3.386   3.789 -1.7462  0.2094 -1.3041
 1476TIP3   OH225918   1.222   3.220  11.902  0.2419 -0.3898 -0.5179
 1476TIP3    H125919   1.162   3.145  11.901 -1.7343  1.0941 -1.7056
 1476TIP3    H225920   1.245   3.234  11.810 -1.6272  1.9898 -0.7559
 1477TIP3   OH225921   5.024   4.898  14.509 -0.0133  0.2382 -0.3413
 1477TIP3    H125922   4.958   4.870  14.446  0.7256  0.1502 -1.0825
 1477TIP3    H225923   5.099   4.841  14.493  0.9115  1.5435 -0.7552
 1478TIP3   OH225924   6.307   4.221   0.141  0.3236 -0.2256  0.2875
 1478TIP3    H125925   6.397   4.198   0.162 -0.1371 -1.7448  0.7442
 1478TIP3    H225926   6.254   4.155   0.185 -0.9611 -0.0146 -0.8466
 1479TIP3   OH225927   0.361   6.604  11.990 -0.2615 -0.1843 -0.0630
 1479TIP3    H125928   0.343   6.643  11.904  0.3302  1.3016  0.4573
 1479TIP3    H225929   0.444   6.557  11.978 -2.4001 -4.0719 -1.5157
 1480TIP3   OH225930   1.549   1.534  11.821 -0.8633  0.3018  0.4798
 1480TIP3    H125931   1.547   1.448  11.863 -2.2952  0.1507  0.1313
 1480TIP3    H225932   1.594   1.591  11.884 -0.9325 -0.4412  1.2035
 1481TIP3   OH225933   6.474   4.849  12.345 -0.5250 -0.2490  0.2591
 1481TIP3    H125934   6.476   4.889  12.432 -2.0509 -0.6540  0.5108
 1481TIP3    H225935   6.540   4.779  12.349 -0.1641  0.1247  0.8913
 1482TIP3   OH225936   1.002   0.848  12.038  0.1992 -0.6858  0.1372
 1482TIP3    H125937   1.019   0.942  12.043 -0.4800 -0.5668  0.2694
 1482TIP3    H225938   1.062   0.817  11.970 -0.5635  0.0850 -0.9367
 1483TIP3   OH225939   2.726   0.164   4.951  0.3986  0.3814  0.6009
 1483TIP3    H125940   2.687   0.251   4.953  0.5803  0.4561  1.4661
 1483TIP3    H225941   2.694   0.122   5.031  0.7594 -0.1436  0.4731
 1484TIP3   OH225942   2.600   4.108   2.190 -0.0914  0.2344 -0.3271
 1484TIP3    H125943   2.610   4.112   2.286 -2.3261  1.4994 -0.0745
 1484TIP3    H225944   2.626   4.195   2.160  2.8024 -0.8158 -1.2305
 1485TIP3   OH225945   5.347   4.031   0.607 -0.0175 -0.1302  0.0163
 1485TIP3    H125946   5.391   4.101   0.656 -1.3816 -0.4804  1.8537
 1485TIP3    H225947   5.405   4.014   0.532  1.4165  1.4631  0.6887
 1486TIP3   OH225948   6.717   1.066  11.039  0.0654 -0.1956 -0.2278
 1486TIP3    H125949   6.731   1.130  10.969  1.3020 -0.1438  0.0330
 1486TIP3    H225950   6.690   0.986  10.993  0.6732 -0.1059 -0.7594
 1487TIP3   OH225951   5.833   0.980   2.721  0.2243  0.0873 -0.5881
 1487TIP3    H125952   5.919   1.000   2.757  0.5713  0.2378 -1.4881
 1487TIP3    H225953   5.786   1.064   2.723  0.1789  0.0573 -0.3303
 1488TIP3   OH225954   1.564   4.414  15.944  0.5039 -0.1409 -0.8073
 1488TIP3    H125955   1.549   4.323  15.969  2.7167 -0.2153  0.4443
 1488TIP3    H225956   1.496   4.432  15.878  0.2823 -2.8083 -1.4107
 1489TIP3   OH225957   0.100   6.389  15.303 -0.2046 -0.7907 -0.7954
 1489TIP3    H125958   0.068   6.475  15.330 -0.5625 -1.6592  1.7864
 1489TIP3    H225959   0.191   6.387  15.334  0.7976 -0.3262 -3.4301
 1490TIP3   OH225960   2.555   0.705   5.539 -0.7033 -0.7792  0.3085
 1490TIP3    H125961   2.593   0.754   5.612 -0.8146 -0.3167  0.0595
 1490TIP3    H225962   2.591   0.617   5.548  1.9809  0.0758 -0.9793
 1491TIP3   OH225963   1.750   3.878  11.454 -0.2392 -0.2233  0.4647
 1491TIP3    H125964   1.698   3.946  11.497 -0.2925 -0.0871  0.1867
 1491TIP3    H225965   1.688   3.836  11.394 -0.2311 -0.5777  0.7040
 1492TIP3   OH225966   5.402   6.349   0.831  0.0583 -0.5007  0.1523
 1492TIP3    H125967   5.426   6.340   0.923 -1.5920  0.7348  0.7568
 1492TIP3    H225968   5.316   6.392   0.833  0.0003 -0.4251 -1.9673
 1493TIP3   OH225969   5.985   0.169   2.760 -0.0858 -0.3020  0.0830
 1493TIP3    H125970   5.939   0.204   2.684  0.3992 -0.0704 -0.1068
 1493TIP3    H225971   5.933   0.092   2.786 -1.1898  0.5714  0.5516
 1494TIP3   OH225972   3.779   5.682   5.817  0.1037  0.0006  0.0818
 1494TIP3    H125973   3.856   5.671   5.873 -0.1587  0.8469  0.6232
 1494TIP3    H225974   3.707   5.699   5.878 -0.5299 -0.8355 -0.4178
 1495TIP3   OH225975   1.847   1.531   4.310  0.0580 -0.1996 -0.2515
 1495TIP3    H125976   1.855   1.528   4.406  3.0394  0.6903 -0.3589
 1495TIP3    H225977   1.838   1.624   4.290  0.7616 -0.2525 -0.8588
 1496TIP3   OH225978   0.108   0.788  16.661 -0.4636 -0.6045 -0.3951
 1496TIP3    H125979   0.042   0.720  16.652 -0.4653 -0.6732  0.1337
 1496TIP3    H225980   0.172   0.768  16.593 -1.3571 -0.0955 -1.4221
 1497TIP3   OH225981   6.712   2.373  12.194  0.0601 -0.1263 -0.0136
 1497TIP3    H125982   6.627   2.415  12.191  0.7166  1.2472 -0.0966
 1497TIP3    H225983   6.707   2.312  12.268 -0.1601  1.8407  1.6769
 1498TIP3   OH225984   1.624   0.862  14.558 -0.3419 -0.1413  0.7397
 1498TIP3    H125985   1.703   0.809  14.571  0.1274  0.9191  2.6023
 1498TIP3    H225986   1.552   0.805  14.588 -0.4767 -1.4656 -1.8526
 1499TIP3   OH225987   0.109   6.735  13.445  0.0418 -0.0463 -0.5699
 1499TIP3    H125988   0.063   6.771  13.521 -1.3599 -0.0563 -1.3912
 1499TIP3    H225989   0.200   6.763  13.458 -0.6262  2.2446 -0.2218
 1500TIP3   OH225990   4.834   1.126   5.928  0.4173 -0.3493 -0.2960
 1500TIP3    H125991   4.914   1.166   5.963  1.6794 -2.2325 -0.8432
 1500TIP3    H225992   4.766   1.148   5.991  1.4078  1.1060  0.3227
 1501TIP3   OH225993   0.935   5.912   2.867 -0.3258  0.9810  0.1461
 1501TIP3    H125994   0.909   5.824   2.895  3.6376 -0.6788 -0.6479
 1501TIP3    H225995   0.988   5.945   2.940  1.4494  0.9923 -1.0935
 1502TIP3   OH225996   0.692   0.839   0.006 -0.4106 -0.3192 -0.5702
 1502TIP3    H125997   0.602   0.864  -0.015 -0.5334 -0.5329 -0.3078
 1502TIP3    H225998   0.746   0.895  -0.050 -0.6383  1.3462  0.7756
 1503TIP3   OH225999   3.556   4.208   2.563 -0.4582  0.5439  0.0936
 1503TIP3    H126000   3.494   4.211   2.490 -1.9415 -0.4641  1.2442
 1503TIP3    H226001   3.505   4.236   2.639  0.7307  0.4762  0.9488
 1504TIP3   OH226002   5.070   6.085  11.806  0.3051 -0.4256 -0.1609
 1504TIP3    H126003   5.108   6.133  11.879  0.6143  0.3055 -0.7869
 1504TIP3    H226004   5.143   6.073  11.745 -0.4861  1.2831 -1.5385
 1505TIP3   OH226005   6.608   5.889  14.721 -0.3697  0.1359 -0.3235
 1505TIP3    H126006   6.524   5.853  14.693  0.4695 -1.4384 -0.9218
 1505TIP3    H226007   6.672   5.820  14.702  1.3885  2.0330 -1.7683
 1506TIP3   OH226008   6.242   4.611  12.292  0.3504  0.1828  0.3267
 1506TIP3    H126009   6.246   4.611  12.388 -1.1968 -0.1509  0.4155
 1506TIP3    H226010   6.319   4.561  12.265  0.4113 -0.3426  1.4109
 1507TIP3   OH226011   3.831   1.281  13.948  0.0999 -0.3534 -0.5716
 1507TIP3    H126012   3.877   1.279  13.864 -0.2833  0.8809 -0.8273
 1507TIP3    H226013   3.740   1.301  13.925 -1.1519 -4.6787 -0.2747
 1508TIP3   OH226014   6.537   6.503   5.162 -0.5649  0.0975 -0.5568
 1508TIP3    H126015   6.499   6.422   5.194 -2.1919  0.7083 -0.8502
 1508TIP3    H226016   6.482   6.572   5.199  0.4604  1.0447 -0.7358
 1509TIP3   OH226017   0.349   5.527   6.223  0.4906  0.6178 -0.6174
 1509TIP3    H126018   0.383   5.536   6.312  0.8696 -0.9809 -0.5692
 1509TIP3    H226019   0.317   5.615   6.200  1.2494  1.2709  0.7293
 1510TIP3   OH226020   0.405   2.154  12.297 -0.1914  0.2966  0.0692
 1510TIP3    H126021   0.364   2.241  12.298  0.1994  0.5220 -1.2659
 1510TIP3    H226022   0.338   2.096  12.332 -0.8689  0.9806 -0.0588
 1511TIP3   OH226023   4.911   2.454   1.215  0.3751  0.7495  0.3127
 1511TIP3    H126024   4.980   2.389   1.203 -0.2081 -0.0416  1.1550
 1511TIP3    H226025   4.906   2.499   1.130 -2.2797 -3.3080 -2.0397
 1512TIP3   OH226026   4.598   3.844  16.012 -0.1361 -0.3044 -0.3312
 1512TIP3    H126027   4.535   3.783  15.974  0.9809 -1.5446 -0.2577
 1512TIP3    H226028   4.548   3.891  16.079 -1.0662 -1.0041 -0.5083
 1513TIP3   OH226029   4.630   4.288  14.281 -0.2918 -0.4639  0.0757
 1513TIP3    H126030   4.603   4.201  14.310 -1.1664 -0.2777 -0.1343
 1513TIP3    H226031   4.609   4.290  14.187 -0.3083 -0.0246  0.0854
 1514TIP3   OH226032   2.935   2.036  10.732  0.2616  0.4616  0.0929
 1514TIP3    H126033   2.862   2.006  10.786 -0.3020  0.2749 -0.7572
 1514TIP3    H226034   2.897   2.051  10.646  1.3052 -0.0632 -0.4854
 1515TIP3   OH226035   4.607   1.347  11.832  0.5545  0.2451 -0.1335
 1515TIP3    H126036   4.664   1.287  11.784  1.3566  0.9349 -0.0625
 1515TIP3    H226037   4.661   1.379  11.904 -0.0426  0.6483  0.1482
 1516TIP3   OH226038   4.570   6.447   1.476  0.4731  0.9640 -0.1221
 1516TIP3    H126039   4.569   6.369   1.422 -0.8530 -0.6022  1.9793
 1516TIP3    H226040   4.510   6.508   1.432 -3.0978 -1.4264  0.9752
 1517TIP3   OH226041   3.934   4.066   6.145 -0.4789  0.3769 -0.3325
 1517TIP3    H126042   3.881   4.029   6.075 -0.9268  2.1526 -0.9683
 1517TIP3    H226043   3.884   4.049   6.225 -1.0461  0.3202 -0.6982
 1518TIP3   OH226044   2.172   5.247  16.528  0.5183  0.2945  0.3827
 1518TIP3    H126045   2.137   5.161  16.503  1.1872  0.3892 -0.9818
 1518TIP3    H226046   2.127   5.268  16.610 -0.0392 -1.1205  0.4719
 1519TIP3   OH226047   4.703   6.715  10.829 -0.1076 -0.1376  0.0548
 1519TIP3    H126048   4.755   6.638  10.850 -0.7692 -0.7531 -0.5352
 1519TIP3    H226049   4.762   6.770  10.777  0.2758 -0.3700  0.2399
 1520TIP3   OH226050   0.138   4.052  13.043 -0.3141 -0.3065 -0.1988
 1520TIP3    H126051   0.162   4.134  12.999 -0.1450 -1.0598 -1.5671
 1520TIP3    H226052   0.195   4.049  13.120  0.7000  0.1860 -0.9065
 1521TIP3   OH226053   3.216   3.921   1.205 -0.1606 -0.4535 -0.1202
 1521TIP3    H126054   3.244   4.013   1.208  0.7374 -0.6945 -0.6297
 1521TIP3    H226055   3.270   3.882   1.136 -1.8715 -0.9382 -1.2590
 1522TIP3   OH226056   3.450   3.451  11.968  0.1868  0.3622 -0.3252
 1522TIP3    H126057   3.506   3.411  11.901 -1.7362  0.0328 -1.8559
 1522TIP3    H226058   3.373   3.480  11.919 -2.1746 -1.5687  1.9457
 1523TIP3   OH226059   2.992   0.190   6.321 -0.3740  0.3728  0.0925
 1523TIP3    H126060   3.071   0.139   6.340 -2.5707 -2.8028  1.4911
 1523TIP3    H226061   2.978   0.242   6.400  0.8019  1.7694 -0.5706
 1524TIP3   OH226062   5.910   3.052   5.807 -0.2832  0.1525 -0.1067
 1524TIP3    H126063   5.877   2.971   5.845  0.4028 -0.1988 -0.2306
 1524TIP3    H226064   5.958   3.024   5.729 -0.6440  0.7472 -0.5520
 1525TIP3   OH226065   2.031   0.256   4.684 -0.3812  0.1305 -0.2214
 1525TIP3    H126066   2.015   0.169   4.647  0.5756  0.1230 -0.6614
 1525TIP3    H226067   2.032   0.314   4.608  1.5040  0.1343 -0.2352
 1526TIP3   OH226068   6.769   6.567  12.416  0.1850 -0.8454  0.3422
 1526TIP3    H126069   6.839   6.620  12.378 -1.2699  1.7628  1.0456
 1526TIP3    H226070   6.708   6.551  12.344 -0.0701 -0.3408  0.4481
 1527TIP3   OH226071   5.109   6.454   0.833  0.4467  0.4463 -0.7381
 1527TIP3    H126072   5.064   6.386   0.783  0.0157  0.4666 -0.3751
 1527TIP3    H226073   5.099   6.533   0.780  3.2852 -0.2679 -2.5630
 1528TIP3   OH226074   1.307   4.587  17.051 -0.1050 -0.0389  0.0552
 1528TIP3    H126075   1.383   4.632  17.014 -0.8045 -0.3030 -1.7994
 1528TIP3    H226076   1.344   4.518  17.106  0.9818  0.7581  0.3548
 1529TIP3   OH226077   1.897   6.153  13.115 -0.3505  0.3585  0.0064
 1529TIP3    H126078   1.952   6.075  13.116  0.8876  1.1951  0.4341
 1529TIP3    H226079   1.845   6.146  13.035 -0.3533 -0.9498  0.1081
 1530TIP3   OH226080   1.899   4.121   1.997 -0.3411 -0.0029 -0.1087
 1530TIP3    H126081   1.814   4.132   1.954  0.3952 -0.5186 -1.8035
 1530TIP3    H226082   1.879   4.080   2.081 -1.6925 -1.2492 -0.9899
 1531TIP3   OH226083   3.506   0.986  16.831  0.2968  0.4603 -0.3558
 1531TIP3    H126084   3.458   1.067  16.814 -0.8952  0.1190  1.2031
 1531TIP3    H226085   3.441   0.917  16.822  0.5252 -0.0385  1.4822
 1532TIP3   OH226086   5.922   1.899   2.299  0.3881  0.2432 -0.1287
 1532TIP3    H126087   5.945   1.974   2.244  0.0238  1.0845  0.8267
 1532TIP3    H226088   5.919   1.935   2.388 -0.6374 -0.7176  0.2441
 1533TIP3   OH226089   5.829   6.789  12.833  0.1101 -0.3417 -0.2631
 1533TIP3    H126090   5.820   6.710  12.780 -0.7525 -0.2516 -0.2629
 1533TIP3    H226091   5.884   6.847  12.780  0.2076 -0.6918 -0.5495
 1534TIP3   OH226092   2.645   6.612   6.766  0.3906 -0.3484 -0.1806
 1534TIP3    H126093   2.613   6.689   6.814 -1.5963 -1.8979  1.1610
 1534TIP3    H226094   2.620   6.628   6.675  0.2585  0.6905  0.0220
 1535TIP3   OH226095   3.983   3.097   4.819 -0.0813  0.1584 -0.0555
 1535TIP3    H126096   4.056   3.063   4.768 -0.0080 -0.9604  0.7499
 1535TIP3    H226097   3.911   3.105   4.757  0.0616 -0.9877 -0.3988
 1536TIP3   OH226098   0.159   1.533   3.127 -0.3909  0.1425 -0.0181
 1536TIP3    H126099   0.232   1.577   3.086 -1.1588  1.3186 -0.1725
 1536TIP3    H226100   0.173   1.440   3.110 -0.8284  0.5749 -3.2380
 1537TIP3   OH226101   6.273   3.510  15.851  0.1468 -0.1332 -0.1966
 1537TIP3    H126102   6.216   3.446  15.807 -1.9350  1.2176  0.3548
 1537TIP3    H226103   6.304   3.465  15.929  1.1083 -1.4176 -1.2850
 1538TIP3   OH226104   4.832   2.701  16.172 -0.4472  0.4819  0.2531
 1538TIP3    H126105   4.787   2.634  16.121 -0.2002 -1.4287  2.3973
 1538TIP3    H226106   4.910   2.723  16.120  0.2788 -2.0502  0.1638
 1539TIP3   OH226107   0.276   0.166  11.653  0.0667 -0.5562  0.6168
 1539TIP3    H126108   0.334   0.220  11.599  0.2544 -0.7460  0.6266
 1539TIP3    H226109   0.190   0.174  11.610  0.2578 -0.8736  0.1604
 1540TIP3   OH226110   0.179   5.042   6.032 -0.4132  0.1680  0.6757
 1540TIP3    H126111   0.202   5.113   6.092  2.6041  0.0270 -0.1159
 1540TIP3    H226112   0.188   5.081   5.945  2.3297 -1.3168  0.1915
 1541TIP3   OH226113   0.103   4.598  15.300  0.0886 -0.1155  0.6316
 1541TIP3    H126114   0.175   4.623  15.242 -1.9838 -0.2534 -2.2343
 1541TIP3    H226115   0.115   4.504  15.312 -0.0112 -0.3010 -0.5326
 1542TIP3   OH226116   0.981   6.135   2.165 -0.5983 -0.0537  0.6848
 1542TIP3    H126117   0.908   6.134   2.226 -1.3948 -0.5863 -0.2485
 1542TIP3    H226118   0.946   6.097   2.084 -0.4240  3.2560 -1.1173
 1543TIP3   OH226119   0.142   4.697   0.533  0.0251  0.4358  0.1575
 1543TIP3    H126120   0.237   4.692   0.538  0.1043 -0.5158 -1.3589
 1543TIP3    H226121   0.125   4.766   0.469 -0.2129 -0.6120 -0.9541
 1544TIP3   OH226122   3.247   2.505   6.350 -0.3855  0.0130 -1.0338
 1544TIP3    H126123   3.187   2.499   6.424  0.4440 -0.2099 -0.3652
 1544TIP3    H226124   3.194   2.543   6.279 -1.1337  0.4163 -0.2779
 1545TIP3   OH226125   0.651   1.170   0.643 -0.3586 -0.7750  0.5500
 1545TIP3    H126126   0.672   1.100   0.704 -0.7310 -1.4545 -0.0852
 1545TIP3    H226127   0.617   1.240   0.698 -0.8100 -1.4262  1.1220
 1546TIP3   OH226128   4.446   6.090  14.694  0.5214 -0.1559 -0.3843
 1546TIP3    H126129   4.375   6.026  14.698  0.0334  0.4433  0.8509
 1546TIP3    H226130   4.417   6.154  14.628 -0.6059  0.6567  0.8411
 1547TIP3   OH226131   6.369   3.922   2.284  0.5790  0.2979 -0.9246
 1547TIP3    H126132   6.370   3.982   2.359 -1.1174  0.7318 -1.1870
 1547TIP3    H226133   6.428   3.962   2.220  0.5945  0.9218 -0.5279
 1548TIP3   OH226134   1.089   1.282  15.113 -0.0563 -0.5079  0.1299
 1548TIP3    H126135   1.132   1.285  15.028  0.9890 -1.9057  0.5562
 1548TIP3    H226136   0.995   1.281  15.093  0.1653 -0.1947 -0.9663
 1549TIP3   OH226137   6.498   1.318  12.176 -0.3947 -0.0787 -0.4255
 1549TIP3    H126138   6.568   1.335  12.239 -1.2762  1.7595  0.1287
 1549TIP3    H226139   6.543   1.308  12.092  0.6931 -1.3185  0.2686
 1550TIP3   OH226140   0.776   4.123  16.033  0.5539 -0.4832  0.1747
 1550TIP3    H126141   0.872   4.121  16.031  0.6448  1.0862  1.2705
 1550TIP3    H226142   0.752   4.054  16.094  1.1802  1.1014  2.3243
 1551TIP3   OH226143   1.515   3.495   1.775 -0.2213 -0.0396 -0.3896
 1551TIP3    H126144   1.531   3.514   1.682 -1.5003  2.6817 -0.1590
 1551TIP3    H226145   1.561   3.565   1.822 -0.8741 -0.4711  0.9423
 1552TIP3   OH226146   0.886   0.493  12.841  0.0280 -0.4207  0.5685
 1552TIP3    H126147   0.959   0.505  12.780 -1.3576 -0.8772 -1.2476
 1552TIP3    H226148   0.928   0.467  12.923  2.2140  3.1126  0.8083
 1553TIP3   OH226149   5.354   2.652  15.497 -0.5390 -0.4353 -0.1589
 1553TIP3    H126150   5.446   2.633  15.514 -0.9896 -1.2010  1.6071
 1553TIP3    H226151   5.335   2.608  15.414  0.7031 -0.1168 -0.6386
 1554TIP3   OH226152   1.563   6.178  17.114  0.1923 -0.5951  0.6015
 1554TIP3    H126153   1.541   6.237  17.186  1.8817  0.4997  0.2759
 1554TIP3    H226154   1.478   6.154  17.076 -0.6070  0.5426  1.5976
 1555TIP3   OH226155   3.236   3.258   4.419  0.5840 -0.7565 -0.4601
 1555TIP3    H126156   3.265   3.339   4.462  1.0510 -0.2500 -1.6856
 1555TIP3    H226157   3.147   3.277   4.390 -0.1370 -1.4762  1.1957
 1556TIP3   OH226158   0.857   1.933   4.755  0.4801  0.3097 -0.4022
 1556TIP3    H126159   0.917   1.946   4.829  1.3984 -1.4906 -0.7661
 1556TIP3    H226160   0.822   1.844   4.767  0.1509  0.2259 -1.7688
 1557TIP3   OH226161   4.163   4.583   5.125  0.0191 -0.3032 -0.4453
 1557TIP3    H126162   4.151   4.488   5.125  1.2319 -0.4854 -1.6465
 1557TIP3    H226163   4.224   4.600   5.196 -0.5382 -0.3560  0.0564
 1558TIP3   OH226164   2.984   4.529   6.026 -0.3617  0.6273  0.6675
 1558TIP3    H126165   2.935   4.600   6.069 -1.1961  0.2636  0.3485
 1558TIP3    H226166   2.920   4.489   5.967  0.8792  1.4409 -1.3392
 1559TIP3   OH226167   4.261   0.484  12.802 -0.3194  0.2726 -0.2201
 1559TIP3    H126168   4.299   0.447  12.722  0.9638 -0.1388  0.5447
 1559TIP3    H226169   4.332   0.533  12.842 -0.8221  0.1433  0.8714
 1560TIP3   OH226170   1.955   0.007   5.725 -0.3788 -0.3158 -0.1597
 1560TIP3    H126171   1.898   0.082   5.712 -1.2266 -0.7242  1.0732
 1560TIP3    H226172   1.896  -0.068   5.728  0.2914 -0.8384  0.3396
 1561TIP3   OH226173   2.490   4.325   5.787  0.4489  0.1598  0.4601
 1561TIP3    H126174   2.421   4.290   5.730 -0.9728  1.3272  1.3648
 1561TIP3    H226175   2.445   4.391   5.840  2.1917  0.6295  1.4279
 1562TIP3   OH226176   2.737   1.162  15.106 -0.4117 -0.5195  0.4509
 1562TIP3    H126177   2.825   1.177  15.071  0.2225 -0.5339  1.9620
 1562TIP3    H226178   2.687   1.240  15.080 -0.2259 -0.9170 -1.1863
 1563TIP3   OH226179   2.102   5.487   2.062 -0.3574  0.1288 -0.5546
 1563TIP3    H126180   2.101   5.549   2.136 -3.0089  0.0817 -0.4602
 1563TIP3    H226181   2.077   5.403   2.101  0.7567 -0.4631 -1.1014
 1564TIP3   OH226182   5.531   2.584  11.827 -0.0525 -0.5884  0.3893
 1564TIP3    H126183   5.538   2.489  11.828  1.2949 -0.5160 -0.2674
 1564TIP3    H226184   5.437   2.601  11.820 -0.1665 -1.9263 -2.3770
 1565TIP3   OH226185   2.706   1.387  12.781 -0.1087 -0.2727 -0.1339
 1565TIP3    H126186   2.624   1.357  12.820 -1.4604  2.8475 -0.2362
 1565TIP3    H226187   2.735   1.459  12.838  1.0651  0.4684 -1.5848
 1566TIP3   OH226188   1.182   1.891   6.087  0.7796 -0.4391  0.0314
 1566TIP3    H126189   1.274   1.881   6.112  0.8851 -1.1309 -0.6233
 1566TIP3    H226190   1.167   1.825   6.019  0.7464  1.9751 -2.4569
 1567TIP3   OH226191   1.538   3.467  10.634 -0.2104  0.0318 -0.5318
 1567TIP3    H126192   1.470   3.437  10.694 -0.8164  0.7492 -0.8408
 1567TIP3    H226193   1.536   3.562  10.641 -0.4076  0.1427 -1.7907
 1568TIP3   OH226194   0.020   5.264   1.816  0.0677  0.1855 -0.3286
 1568TIP3    H126195  -0.066   5.264   1.858 -0.1506 -1.0138 -0.7433
 1568TIP3    H226196   0.082   5.247   1.886 -0.1695 -0.4115 -0.2596
 1569TIP3   OH226197   4.323   5.353  17.147 -0.0182  0.5138  0.3105
 1569TIP3    H126198   4.248   5.363  17.089  0.4928  0.6687 -0.3254
 1569TIP3    H226199   4.378   5.287  17.105  0.0260  0.1212  0.9627
 1570TIP3   OH226200   3.736   5.437  12.220  0.0835 -0.2733 -0.2628
 1570TIP3    H126201   3.732   5.422  12.315 -0.2363 -0.7732 -0.3577
 1570TIP3    H226202   3.663   5.495  12.202  0.0248 -0.3389 -0.2356
 1571TIP3   OH226203   0.638   5.636   5.642 -0.0750 -0.3145  0.5999
 1571TIP3    H126204   0.725   5.671   5.623 -0.0260  0.4428  2.0159
 1571TIP3    H226205   0.589   5.712   5.674 -0.9805 -0.9136  0.6724
 1572TIP3   OH226206   5.080   6.446   3.048  0.1119  0.2455  0.1119
 1572TIP3    H126207   5.168   6.462   3.014  1.1441 -1.5142  1.7663
 1572TIP3    H226208   5.048   6.533   3.072  2.0561  0.7746  0.9694
 1573TIP3   OH226209   1.640   3.636   5.345  0.2102  0.2486  0.6124
 1573TIP3    H126210   1.720   3.600   5.384  0.4221  1.8666  1.7475
 1573TIP3    H226211   1.579   3.645   5.419 -1.2593 -1.4142 -0.2957
 1574TIP3   OH226212   5.289   0.064  12.818  0.0257 -0.4294 -0.1310
 1574TIP3    H126213   5.339   0.038  12.740  0.4987  0.3326 -0.0862
 1574TIP3    H226214   5.234   0.137  12.788  1.7183  1.2830  0.7080
 1575TIP3   OH226215   3.002   4.522   0.233 -0.5716  0.3526  0.2249
 1575TIP3    H126216   2.921   4.485   0.266 -0.9122  0.1046 -0.8692
 1575TIP3    H226217   3.050   4.447   0.197 -1.0608  0.8459 -1.5730
 1576TIP3   OH226218   6.088   5.365   1.066  0.0196 -0.1648 -0.2527
 1576TIP3    H126219   6.083   5.286   1.012  0.1031  0.7848 -1.7105
 1576TIP3    H226220   6.020   5.353   1.133 -1.8497 -0.3037 -2.0822
 1577TIP3   OH226221   0.452   1.182   1.102  0.0521  0.4674 -0.4056
 1577TIP3    H126222   0.484   1.242   1.035 -0.5172  1.5979  0.2925
 1577TIP3    H226223   0.531   1.156   1.150  0.2091  1.4764 -0.0852
 1578TIP3   OH226224   4.784   1.936   2.331 -0.0161 -0.0199  0.9756
 1578TIP3    H126225   4.814   2.022   2.360 -0.0243  0.4336 -0.3110
 1578TIP3    H226226   4.859   1.897   2.287 -0.8794  0.6556 -1.2429
 1579TIP3   OH226227   2.367   2.724   5.007  0.1027  0.1040 -0.6320
 1579TIP3    H126228   2.396   2.810   4.976  0.5049  0.3433  0.3872
 1579TIP3    H226229   2.447   2.679   5.034 -0.3398  0.5430  1.6192
 1580TIP3   OH226230   0.645   6.484  15.389  0.1978 -0.6718 -0.3658
 1580TIP3    H126231   0.672   6.574  15.407  0.9352 -1.3494  2.4400
 1580TIP3    H226232   0.701   6.430  15.446 -2.3611 -2.6470  0.4925
 1581TIP3   OH226233   6.657   2.921  15.450  0.0281 -0.1551  0.1969
 1581TIP3    H126234   6.621   2.939  15.537 -1.1109 -2.6173  0.3323
 1581TIP3    H226235   6.594   2.957  15.389 -0.6878 -0.9705  0.4343
 1582TIP3   OH226236   4.321   6.569  14.506 -0.3483  0.1304  0.3680
 1582TIP3    H126237   4.336   6.653  14.550 -0.4301 -0.0414  0.7178
 1582TIP3    H226238   4.226   6.563  14.497 -0.4993 -0.8726  2.1891
 1583TIP3   OH226239   0.632   2.456   0.063 -0.3819 -0.2545 -0.7680
 1583TIP3    H126240   0.706   2.402   0.035 -0.8218 -0.3326 -1.7933
 1583TIP3    H226241   0.625   2.438   0.157 -0.0301 -1.3850 -0.9365
 1584TIP3   OH226242   1.900   5.063   5.406  0.2487  0.1233  0.2192
 1584TIP3    H126243   1.991   5.054   5.377 -0.0630 -1.9978 -0.2888
 1584TIP3    H226244   1.855   5.104   5.332  0.4271 -0.6436 -0.3257
 1585TIP3   OH226245   3.801   6.807   5.153 -0.6604 -1.1251  0.1338
 1585TIP3    H126246   3.709   6.830   5.140 -0.1630  0.1642 -1.5750
 1585TIP3    H226247   3.844   6.890   5.172  0.4007 -1.4033 -0.9131
 1586TIP3   OH226248   5.031   5.919   5.658 -0.5551  0.0377  0.1216
 1586TIP3    H126249   5.092   5.849   5.634  2.8504  2.1053  2.0250
 1586TIP3    H226250   5.057   5.993   5.604 -2.7595  0.4672 -0.4210
 1587TIP3   OH226251   4.694   5.296   0.767  0.1031  0.4246  0.5581
 1587TIP3    H126252   4.674   5.295   0.673 -0.0978 -0.3901  0.6025
 1587TIP3    H226253   4.622   5.248   0.808  1.1859 -0.9609  0.9086
 1588TIP3   OH226254   2.441   3.088  14.380 -0.3518  0.0047 -0.9436
 1588TIP3    H126255   2.516   3.049  14.424 -1.0642 -2.4668 -1.7629
 1588TIP3    H226256   2.421   3.166  14.432  0.8826 -0.9446  1.0927
 1589TIP3   OH226257   4.752   0.116   2.731 -0.5097 -0.1379 -0.1312
 1589TIP3    H126258   4.750   0.155   2.643 -0.4386 -0.8628 -0.4569
 1589TIP3    H226259   4.842   0.130   2.761 -0.9884  1.7763  0.6072
 1590TIP3   OH226260   0.986   3.028   0.443  0.5195  0.0752 -0.3998
 1590TIP3    H126261   0.929   3.006   0.369  0.7531 -1.0548 -0.2629
 1590TIP3    H226262   1.040   2.950   0.455  1.6309  0.8669 -0.0831
 1591TIP3   OH226263   0.207   0.345  11.876  0.2842 -0.3629 -0.0920
 1591TIP3    H126264   0.152   0.334  11.798  1.3366 -1.0677 -0.7512
 1591TIP3    H226265   0.233   0.257  11.901 -2.2479 -0.4726  2.7597
 1592TIP3   OH226266   4.556   5.682  14.974 -0.3977  0.3433  0.1099
 1592TIP3    H126267   4.605   5.708  15.053 -2.1684  0.0135  1.3854
 1592TIP3    H226268   4.479   5.738  14.974 -1.2525 -0.7919 -0.4636
 1593TIP3   OH226269   0.904   0.613  11.218  0.7872 -0.3895 -0.4991
 1593TIP3    H126270   0.941   0.633  11.304  1.2371  0.4145 -0.8722
 1593TIP3    H226271   0.917   0.693  11.167 -1.3348 -0.1183 -0.7100
 1594TIP3   OH226272   5.536   1.942   5.000 -1.1253 -0.6874  0.0529
 1594TIP3    H126273   5.495   1.956   4.915  1.4606  0.0220 -1.1796
 1594TIP3    H226274   5.542   2.030   5.038 -1.0405 -0.8276  0.3630
 1595TIP3   OH226275   3.122   0.934   4.053  0.4895 -0.0915  0.4377
 1595TIP3    H126276   3.041   0.885   4.059  0.7655 -0.4091  2.1638
 1595TIP3    H226277   3.113   1.003   4.119  1.2220  0.4778 -0.0361
 1596TIP3   OH226278   3.344   0.511   6.097 -0.1232 -0.0897 -0.6789
 1596TIP3    H126279   3.359   0.605   6.099  0.6424 -0.2108  0.0539
 1596TIP3    H226280   3.399   0.477   6.168 -0.3477 -1.0887 -0.9708
 1597TIP3   OH226281   5.137   0.678  16.035  0.8207  0.0681  0.3306
 1597TIP3    H126282   5.178   0.734  16.101  2.0591  0.9904 -1.1446
 1597TIP3    H226283   5.078   0.737  15.988  0.6042 -0.3596  0.0685
 1598TIP3   OH226284   3.764   6.400   4.213  0.4901  0.0364  0.5200
 1598TIP3    H126285   3.771   6.391   4.118  1.2600  0.3335  0.5414
 1598TIP3    H226286   3.836   6.458   4.238  1.3762 -1.3766  1.4661
 1599TIP3   OH226287   4.174   1.978   3.532  0.2599 -0.1683 -0.4989
 1599TIP3    H126288   4.150   2.065   3.500  3.4654  1.1399  0.2757
 1599TIP3    H226289   4.115   1.962   3.605 -0.4945  1.2772 -0.7492
 1600TIP3   OH226290   4.889   0.486  11.327  0.3428 -0.2252  0.0510
 1600TIP3    H126291   4.926   0.433  11.397 -1.0232 -1.0718  0.1602
 1600TIP3    H226292   4.820   0.432  11.289  0.9564  0.2640 -1.8809
 1601TIP3   OH226293   0.699   2.519   0.389 -0.0810  0.1126  0.4363
 1601TIP3    H126294   0.682   2.485   0.476  1.8546 -1.1484  0.3725
 1601TIP3    H226295   0.745   2.448   0.343  1.2176  1.6456 -0.7590
 1602TIP3   OH226296   3.036   2.580   4.579  0.0528 -0.0081  0.1546
 1602TIP3    H126297   3.003   2.641   4.513  0.5644 -0.1146 -0.2036
 1602TIP3    H226298   2.967   2.578   4.645 -0.9772 -0.7551 -0.8983
 1603TIP3   OH226299   5.348   0.146   3.827  0.3692  0.5042  0.2657
 1603TIP3    H126300   5.424   0.203   3.814  0.0319  1.1356  0.9790
 1603TIP3    H226301   5.357   0.112   3.915 -0.5622  1.2106  0.6585
 1604TIP3   OH226302   1.432   0.087   2.303 -0.0756 -0.2787 -0.3026
 1604TIP3    H126303   1.449   0.002   2.343  0.7290 -1.0311 -2.1296
 1604TIP3    H226304   1.514   0.135   2.313  0.4721 -0.8330 -1.8137
 1605TIP3   OH226305   5.793   3.632   1.503  0.4738 -0.4335  0.1228
 1605TIP3    H126306   5.831   3.565   1.447 -0.2604 -1.9626  1.3825
 1605TIP3    H226307   5.804   3.598   1.592  0.6215  1.4098  0.8580
 1606TIP3   OH226308   5.398   5.889   5.415  0.1828 -0.0331  0.3095
 1606TIP3    H126309   5.313   5.849   5.434 -0.1476 -0.0647 -1.1171
 1606TIP3    H226310   5.377   5.979   5.391  0.4641 -0.2653 -0.8319
 1607TIP3   OH226311   4.796   0.277   2.526  0.2258  0.3623  0.1190
 1607TIP3    H126312   4.723   0.301   2.469  0.2533  2.0019  0.7150
 1607TIP3    H226313   4.861   0.237   2.467  0.3506  2.2033 -1.0722
 1608TIP3   OH226314   3.877   2.207   2.582 -0.6854 -0.2507  0.0816
 1608TIP3    H126315   3.914   2.134   2.532  2.8843  1.1945  0.3152
 1608TIP3    H226316   3.837   2.263   2.516 -0.6877 -0.8945 -0.4750
 1609TIP3   OH226317   3.164   4.023  13.523  0.1348  0.1864 -0.7097
 1609TIP3    H126318   3.190   4.112  13.547 -1.5470  0.3877  0.5563
 1609TIP3    H226319   3.218   3.967  13.578  0.7730  0.4188 -1.0809
 1610TIP3   OH226320   2.737   1.724  11.575 -0.2146  0.1151  0.1803
 1610TIP3    H126321   2.778   1.641  11.600 -2.2406 -2.3665 -3.6684
 1610TIP3    H226322   2.650   1.720  11.615  0.8849  2.3832  3.1247
 1611TIP3   OH226323   5.946   4.352  14.565 -0.0601 -0.5782  0.1807
 1611TIP3    H126324   5.999   4.401  14.629 -0.0981 -0.9857  0.5323
 1611TIP3    H226325   5.959   4.260  14.590  0.3536 -0.7778 -0.7306
 1612TIP3   OH226326   1.170   2.878  15.535  0.1776  0.3709  0.7832
 1612TIP3    H126327   1.215   2.960  15.514 -1.4555  1.1560  0.1550
 1612TIP3    H226328   1.117   2.859  15.458  0.7905 -1.4976  0.7875
 1613TIP3   OH226329   0.627   5.782   1.898  0.0260  0.4330  0.2652
 1613TIP3    H126330   0.661   5.825   1.977 -1.0704  0.2894  0.8381
 1613TIP3    H226331   0.676   5.700   1.894  2.1925  1.6722 -0.8785
 1614TIP3   OH226332   0.119   3.476  15.656 -0.0891  0.3553  0.2944
 1614TIP3    H126333   0.130   3.566  15.686  0.2418  1.1465 -1.9877
 1614TIP3    H226334   0.190   3.463  15.593 -0.5773 -1.2581  0.0386
 1615TIP3   OH226335   6.455   0.741  13.521 -0.0774  0.0336 -0.0055
 1615TIP3    H126336   6.539   0.696  13.524 -0.1132 -0.0425 -0.1506
 1615TIP3    H226337   6.477   0.834  13.533 -0.0025 -0.0189  0.2726
 1616TIP3   OH226338   0.592   6.163  16.887  0.4533 -0.3651  0.0506
 1616TIP3    H126339   0.687   6.179  16.883  0.6774 -1.8559 -1.4652
 1616TIP3    H226340   0.575   6.144  16.979  1.3980  1.0412  0.5645
 1617TIP3   OH226341   5.761   3.662   4.892 -0.3986 -0.0906 -0.1995
 1617TIP3    H126342   5.792   3.752   4.881 -3.0255  0.6630 -2.2916
 1617TIP3    H226343   5.676   3.671   4.935 -0.9170 -1.5316 -0.8703
 1618TIP3   OH226344   0.503   3.713  13.931 -0.2679  0.1010 -0.0136
 1618TIP3    H126345   0.485   3.619  13.937 -0.2304  0.1544  1.2523
 1618TIP3    H226346   0.499   3.744  14.022 -0.8266  1.4276 -0.4654
 1619TIP3   OH226347   4.016   6.569  15.428 -0.1258 -0.3820  0.2751
 1619TIP3    H126348   3.962   6.565  15.507  2.3462  0.3110  2.1100
 1619TIP3    H226349   4.000   6.657  15.393  0.0143 -0.0718  0.9722
 1620TIP3   OH226350   2.462   6.803   0.152  0.4260  0.0235  0.3316
 1620TIP3    H126351   2.509   6.786   0.070 -1.0845 -0.0418 -0.5462
 1620TIP3    H226352   2.414   6.883   0.136 -2.2721 -1.5504  0.0125
 1621TIP3   OH226353   5.753   4.380  13.397  0.0676 -0.7677  0.4929
 1621TIP3    H126354   5.741   4.302  13.343  1.9167  1.1848 -3.1282
 1621TIP3    H226355   5.689   4.442  13.364  1.9667  0.8443 -0.3775
 1622TIP3   OH226356   0.967   6.440   5.184  0.5363 -0.6869  0.1458
 1622TIP3    H126357   0.911   6.392   5.123 -0.9028  2.4531 -1.2393
 1622TIP3    H226358   1.055   6.430   5.150  0.3917 -2.7717  0.2800
 1623TIP3   OH226359   1.901   1.468   1.796  0.0471  0.1669 -0.6413
 1623TIP3    H126360   1.967   1.487   1.730 -2.7969  1.9933 -3.2525
 1623TIP3    H226361   1.947   1.477   1.879  3.3320 -0.0606 -2.2717
 1624TIP3   OH226362   3.315   2.807   1.985 -0.5454 -0.1090 -0.3913
 1624TIP3    H126363   3.283   2.791   2.073 -0.8693 -0.5910 -0.5932
 1624TIP3    H226364   3.249   2.769   1.927  0.5590 -1.5120 -0.8017
 1625TIP3   OH226365   0.209   6.557   5.184  0.3073  0.3458 -0.1729
 1625TIP3    H126366   0.156   6.631   5.215 -0.3961 -0.0498 -0.3910
 1625TIP3    H226367   0.161   6.524   5.108  0.1958 -0.7883  0.3620
 1626TIP3   OH226368   5.802   1.694   2.139  0.2080  0.0724 -0.4640
 1626TIP3    H126369   5.845   1.759   2.195  0.3654  0.3979 -0.9631
 1626TIP3    H226370   5.861   1.618   2.141 -0.3781 -0.3821  0.7897
 1627TIP3   OH226371   0.518   4.112  10.567  0.3925  0.4048  0.1710
 1627TIP3    H126372   0.600   4.064  10.571  0.2461  0.1483  0.0944
 1627TIP3    H226373   0.523   4.174  10.640  0.8907  0.7726 -0.1712
 1628TIP3   OH226374   3.438   0.007  12.303 -0.2043 -0.0362  0.1735
 1628TIP3    H126375   3.436   0.059  12.223  0.2096 -0.4496 -0.1088
 1628TIP3    H226376   3.515   0.037  12.350 -1.4420  1.5143  1.3249
 1629TIP3   OH226377   5.468   0.714  17.030  0.1251 -0.0485  0.3207
 1629TIP3    H126378   5.559   0.744  17.024 -0.4387  1.7222  0.1546
 1629TIP3    H226379   5.436   0.751  17.113 -1.1140  1.3499 -0.7328
 1630TIP3   OH226380   5.850   2.404  16.832 -0.1117  0.1038 -0.1653
 1630TIP3    H126381   5.762   2.383  16.865 -0.4885  0.2858 -1.0251
 1630TIP3    H226382   5.899   2.323  16.842 -0.3716 -0.0059  0.3124
 1631TIP3   OH226383   0.891   0.794  13.082 -0.0989  0.2832  0.2288
 1631TIP3    H126384   0.973   0.754  13.113  0.4657 -0.0496 -1.6130
 1631TIP3    H226385   0.824   0.757  13.139  0.6849 -1.6371 -0.0206
 1632TIP3   OH226386   5.451   0.810   3.700 -0.0222  0.1026 -0.0931
 1632TIP3    H126387   5.483   0.886   3.652  1.9641 -0.0965  0.7944
 1632TIP3    H226388   5.387   0.845   3.761 -1.4240  0.5745 -1.7763
 1633TIP3   OH226389   2.360   1.740   1.528  0.1096  0.4656 -0.0145
 1633TIP3    H126390   2.328   1.697   1.449 -2.2993  2.0249  0.0154
 1633TIP3    H226391   2.426   1.802   1.496 -1.3727  1.6180 -0.9708
 1634TIP3   OH226392   1.468   2.792   0.864 -0.3657 -0.2034  0.1986
 1634TIP3    H126393   1.473   2.826   0.953  2.4409 -0.3733  0.2177
 1634TIP3    H226394   1.490   2.699   0.872  0.7352 -0.0499 -0.7056
 1635TIP3   OH226395   1.856   6.439  14.235 -0.7652  0.2776  0.0939
 1635TIP3    H126396   1.864   6.376  14.164 -2.8505  0.4685 -0.3775
 1635TIP3    H226397   1.824   6.388  14.309 -1.6818  0.5972 -0.0601
 1636TIP3   OH226398   1.841   1.517   5.530  0.3090 -0.0211  0.1359
 1636TIP3    H126399   1.786   1.455   5.482  0.7615  1.3519 -2.3199
 1636TIP3    H226400   1.925   1.515   5.484  0.0863  2.9731 -0.6601
 1637TIP3   OH226401   5.692   0.397   0.346 -0.0361  0.4008 -0.6888
 1637TIP3    H126402   5.729   0.395   0.258  1.1415  0.9818 -0.2361
 1637TIP3    H226403   5.663   0.488   0.358 -0.9799  0.1190 -0.7795
 1638TIP3   OH226404   2.071   0.557  15.173  0.5786  0.1916 -0.1679
 1638TIP3    H126405   2.151   0.540  15.222 -0.5029  1.3222  2.1172
 1638TIP3    H226406   2.037   0.469  15.154  2.5040 -0.3289 -1.5871
 1639TIP3   OH226407   5.186   1.230   5.419 -0.5258  0.0040  0.3007
 1639TIP3    H126408   5.164   1.306   5.474  1.2804 -0.8490  2.3220
 1639TIP3    H226409   5.229   1.268   5.343  0.7532  1.0786  1.4866
 1640TIP3   OH226410   4.209   2.490   1.668  0.2117 -0.2538 -0.0538
 1640TIP3    H126411   4.295   2.532   1.668  0.5299 -0.8537 -1.0466
 1640TIP3    H226412   4.161   2.533   1.738  0.8604  1.0480 -0.3779
 1641TIP3   OH226413   6.631   3.032  11.061  0.2571  0.3874  0.8913
 1641TIP3    H126414   6.708   2.993  11.020  1.4771  2.4155  1.1125
 1641TIP3    H226415   6.557   2.997  11.011  1.5559  1.3426 -1.9440
 1642TIP3   OH226416   0.965   5.277   2.888  0.0512 -0.1443 -0.6018
 1642TIP3    H126417   0.986   5.343   2.823 -0.2772  0.1595 -0.4022
 1642TIP3    H226418   0.911   5.213   2.841 -1.4500  0.8346 -0.2867
 1643TIP3   OH226419   5.352   5.107   5.269  0.4430 -0.1284 -0.0114
 1643TIP3    H126420   5.408   5.177   5.302  0.7676 -0.6853  0.6327
 1643TIP3    H226421   5.380   5.029   5.317  1.1834 -1.0475 -1.8298
 1644TIP3   OH226422   4.413   6.457  16.404 -0.3900 -0.3653 -0.1070
 1644TIP3    H126423   4.323   6.424  16.407 -0.7306  0.3673 -1.5288
 1644TIP3    H226424   4.449   6.422  16.323  0.0774  0.6620 -0.3551
 1645TIP3   OH226425   5.613   1.057   5.156  0.7885 -0.3903  0.2720
 1645TIP3    H126426   5.566   1.057   5.240 -0.3481  0.5130 -0.3314
 1645TIP3    H226427   5.656   0.972   5.152  0.0472 -0.8338  1.3364
 1646TIP3   OH226428   2.920   4.541  11.288  0.4459 -0.0617 -0.1227
 1646TIP3    H126429   2.922   4.459  11.337 -0.5057 -1.7957 -2.7480
 1646TIP3    H226430   2.871   4.520  11.208 -0.1214  3.1807 -0.7689
 1647TIP3   OH226431   0.057   1.112   5.497  0.2947 -0.3991  0.4048
 1647TIP3    H126432  -0.032   1.091   5.525  0.1623 -0.5779 -0.1552
 1647TIP3    H226433   0.102   1.134   5.579 -0.2200 -0.4520  0.7096
 1648TIP3   OH226434   0.648   3.128   3.127 -0.0648  0.5415 -0.0728
 1648TIP3    H126435   0.729   3.119   3.178 -0.0099 -0.1130 -0.2611
 1648TIP3    H226436   0.592   3.184   3.180  0.6392  1.2858 -0.0966
 1649TIP3   OH226437   0.238   6.819  12.632 -0.0179  0.0852 -0.3962
 1649TIP3    H126438   0.260   6.828  12.725  0.9544 -0.7656 -0.5211
 1649TIP3    H226439   0.174   6.888  12.616  1.0819  1.3785  0.5083
 1650TIP3   OH226440   4.461   5.178  14.786  0.4393 -0.1570 -0.1896
 1650TIP3    H126441   4.419   5.203  14.703  0.9331 -1.0257 -0.7250
 1650TIP3    H226442   4.447   5.253  14.844 -1.0214 -0.0365 -0.6493
 1651TIP3   OH226443   4.782   2.488   2.707 -0.5399  0.2644 -0.2436
 1651TIP3    H126444   4.758   2.571   2.748 -0.6144  0.8404 -1.3942
 1651TIP3    H226445   4.871   2.471   2.736 -0.6370  0.5781  0.2554
 1652TIP3   OH226446   6.218   6.154   5.520  0.0440  0.1877  0.0320
 1652TIP3    H126447   6.301   6.137   5.475  0.6794  0.7934  0.9432
 1652TIP3    H226448   6.243   6.177   5.609 -1.1759 -0.6350  0.6179
 1653TIP3   OH226449   1.346   1.462  12.118  0.1255 -0.2323  0.5423
 1653TIP3    H126450   1.295   1.494  12.043 -1.0172 -0.3415  1.2376
 1653TIP3    H226451   1.413   1.406  12.079 -0.4486 -0.2963 -0.3995
 1654TIP3   OH226452   0.352   5.464   4.947  0.1546 -0.7232  0.2130
 1654TIP3    H126453   0.406   5.385   4.941  0.9343 -0.1960  0.0022
 1654TIP3    H226454   0.266   5.438   4.916 -0.1031 -1.9419  1.8452
 1655TIP3   OH226455   3.291   6.504   4.509 -0.1726 -0.4077  0.3288
 1655TIP3    H126456   3.234   6.579   4.493  1.6284  0.5336 -2.3862
 1655TIP3    H226457   3.285   6.451   4.429  0.1141 -2.1488  1.3920
 1656TIP3   OH226458   5.817   3.355  12.569  0.1297 -0.1687 -0.7332
 1656TIP3    H126459   5.754   3.289  12.539 -0.3385 -1.1937  2.1058
 1656TIP3    H226460   5.770   3.438  12.560 -1.2034 -0.7787  0.1356
 1657TIP3   OH226461   6.710   4.403   2.433 -0.0972 -0.1507 -0.5819
 1657TIP3    H126462   6.710   4.414   2.338 -0.4961  2.7397 -0.3332
 1657TIP3    H226463   6.760   4.478   2.466  1.5562 -2.0096  1.4590
 1658TIP3   OH226464   5.741   1.238  17.138  0.4288 -0.4050 -0.0413
 1658TIP3    H126465   5.727   1.330  17.119  1.9358 -0.2670 -0.5711
 1658TIP3    H226466   5.747   1.196  17.052  0.7700 -0.8337  0.1878
 1659TIP3   OH226467   5.893   0.571   4.162 -0.3040 -0.3473  0.0112
 1659TIP3    H126468   5.875   0.504   4.097 -1.4264  1.2253 -1.3717
 1659TIP3    H226469   5.980   0.604   4.139 -0.4018 -0.2751 -0.2549
 1660TIP3   OH226470   4.532   3.018  14.940 -0.2958  0.1253  0.2855
 1660TIP3    H126471   4.584   3.053  15.013 -0.6530  0.2711  0.4717
 1660TIP3    H226472   4.477   2.951  14.980  0.4592 -0.7310 -0.0882
 1661TIP3   OH226473   3.054   2.930   0.672  0.6506  0.0760 -0.1350
 1661TIP3    H126474   2.967   2.904   0.701  1.8461 -0.9532  3.0280
 1661TIP3    H226475   3.048   2.934   0.577 -2.8164  0.1312 -0.0410
 1662TIP3   OH226476   5.805   0.831  13.680 -0.6185  0.5728  0.0425
 1662TIP3    H126477   5.899   0.821  13.667 -0.3512  1.6985  0.9264
 1662TIP3    H226478   5.796   0.917  13.722 -1.9239 -0.0940  1.2126
 1663TIP3   OH226479   4.775   5.935   4.905  0.2868 -0.5905  0.2980
 1663TIP3    H126480   4.709   5.906   4.842  0.4689  1.4013 -0.9177
 1663TIP3    H226481   4.843   5.868   4.900  0.6801 -0.1322 -2.3282
 1664TIP3   OH226482   1.857   1.515  11.538  0.6911 -0.5125 -0.6318
 1664TIP3    H126483   1.809   1.594  11.563 -1.1065 -1.4817 -0.9178
 1664TIP3    H226484   1.944   1.527  11.578 -0.6207  0.0325  2.3474
 1665TIP3   OH226485   3.072   0.893  11.014  0.4855  0.6526 -0.5424
 1665TIP3    H126486   3.070   0.960  11.082  1.5531 -0.3415  0.5188
 1665TIP3    H226487   2.993   0.841  11.029 -0.3425  1.6280 -1.3656
 1666TIP3   OH226488   5.364   3.316  14.727 -0.0585  0.2466  0.0379
 1666TIP3    H126489   5.302   3.357  14.667 -1.6237  1.2582  2.2145
 1666TIP3    H226490   5.312   3.250  14.774  0.7996  0.2946  1.0942
 1667TIP3   OH226491   0.853   6.339  10.759 -0.3718  1.0178 -0.0807
 1667TIP3    H126492   0.894   6.341  10.673 -0.5447 -0.1017 -0.2064
 1667TIP3    H226493   0.922   6.308  10.818 -0.6561  0.3866 -0.0712
 1668TIP3   OH226494   2.919   4.350   3.921 -0.4048  0.3727  0.1045
 1668TIP3    H126495   3.007   4.313   3.931  0.3610  1.2357 -2.6412
 1668TIP3    H226496   2.920   4.430   3.974 -0.1395 -0.4284  1.3747
 1669TIP3   OH226497   4.123   5.248  12.139 -0.3210 -0.8190  0.4000
 1669TIP3    H126498   4.146   5.173  12.195  0.0344 -0.5185  0.6614
 1669TIP3    H226499   4.041   5.280  12.174  0.5962  0.2419  1.6616
 1670TIP3   OH226500   5.071   4.090   5.346  0.0744  0.5303  0.6156
 1670TIP3    H126501   5.099   4.181   5.359  3.4386 -0.3235  0.3455
 1670TIP3    H226502   5.140   4.037   5.386 -2.1243 -1.9729  1.4102
 1671TIP3   OH226503   2.009   2.585  13.737  0.4211 -0.4617 -0.1360
 1671TIP3    H126504   1.982   2.673  13.713 -0.2326 -0.1016  1.7685
 1671TIP3    H226505   2.095   2.596  13.779 -0.1162 -0.5823  1.0224
 1672TIP3   OH226506   2.907   4.853   1.064 -0.2873 -0.2908 -0.6331
 1672TIP3    H126507   2.906   4.917   0.993  1.8568  1.0494  0.4257
 1672TIP3    H226508   2.841   4.884   1.126 -0.2446  0.1140 -0.7838
 1673TIP3   OH226509   0.394   2.668  16.217 -0.8126 -0.1467  0.0725
 1673TIP3    H126510   0.405   2.620  16.134  0.7019 -0.7158  0.5644
 1673TIP3    H226511   0.481   2.704  16.235 -1.3580  0.7642  0.9493
 1674TIP3   OH226512   3.856   3.343   0.908  0.2876  0.4968  0.2941
 1674TIP3    H126513   3.874   3.253   0.879  1.0543  1.1669 -1.3998
 1674TIP3    H226514   3.760   3.347   0.913  0.2560 -0.6931  1.4310
 1675TIP3   OH226515   0.471   3.204  11.797 -0.2576  0.2120  0.0461
 1675TIP3    H126516   0.437   3.126  11.753  1.8968 -1.9949  2.0577
 1675TIP3    H226517   0.427   3.204  11.883 -0.4972  1.4608 -0.0560
 1676TIP3   OH226518   6.798   1.429   2.395  0.1430 -0.0751 -0.0788
 1676TIP3    H126519   6.780   1.462   2.483 -2.2755 -0.8771 -0.1857
 1676TIP3    H226520   6.846   1.499   2.352  1.5223  0.2601  1.9106
 1677TIP3   OH226521   0.198   1.904   2.031 -0.3451  0.3382 -0.6175
 1677TIP3    H126522   0.216   1.908   2.125  0.8735 -3.4227 -0.5075
 1677TIP3    H226523   0.115   1.950   2.020 -0.5897  0.7795  2.3212
 1678TIP3   OH226524   2.735   3.733  11.980 -0.2698 -0.6316  0.2940
 1678TIP3    H126525   2.764   3.642  11.983  1.1110 -0.1914  3.0216
 1678TIP3    H226526   2.748   3.765  12.069 -0.0567  2.4418 -0.7464
 1679TIP3   OH226527   1.954   0.778   2.226  0.3977  0.0441 -0.5635
 1679TIP3    H126528   1.983   0.869   2.235 -0.2832  0.2965 -0.7942
 1679TIP3    H226529   1.920   0.755   2.312 -0.1510  0.2796 -0.7098
 1680TIP3   OH226530   3.830   2.530   1.595 -0.1032  0.4548  0.0477
 1680TIP3    H126531   3.887   2.473   1.543  0.9419  0.8542  0.7137
 1680TIP3    H226532   3.863   2.619   1.577  0.5499  0.5695  1.6750
 1681TIP3   OH226533   0.817   0.292  14.217 -0.2430 -0.6791  0.1039
 1681TIP3    H126534   0.815   0.208  14.170  1.7634 -2.4455  2.9012
 1681TIP3    H226535   0.909   0.306  14.237 -0.5756  2.0927  0.0386
 1682TIP3   OH226536   2.639   5.094   5.175 -0.4073 -0.3455 -0.2435
 1682TIP3    H126537   2.633   5.152   5.250 -1.5496 -0.1557 -0.4727
 1682TIP3    H226538   2.731   5.101   5.147  0.0014 -0.3402  1.0480
 1683TIP3   OH226539   1.584   1.995  11.509  0.0806  0.4237 -0.1520
 1683TIP3    H126540   1.656   2.010  11.449 -1.6151  0.7292 -2.2371
 1683TIP3    H226541   1.594   2.064  11.576  1.7794  0.3343 -0.2771
 1684TIP3   OH226542   2.669   3.521   5.503 -0.1554  0.0406 -0.3001
 1684TIP3    H126543   2.731   3.591   5.481 -0.9273  0.0682 -2.6152
 1684TIP3    H226544   2.583   3.563   5.499 -0.4516  0.2692  3.9146
 1685TIP3   OH226545   1.753   1.517   1.454  0.5086  0.3496 -0.1491
 1685TIP3    H126546   1.788   1.430   1.472  0.4406  0.6043  1.2761
 1685TIP3    H226547   1.822   1.561   1.404  0.0822 -0.8809 -1.9298
 1686TIP3   OH226548   2.320   4.672   2.130  0.4223  0.3936 -0.3816
 1686TIP3    H126549   2.274   4.642   2.051  1.0860  0.4863 -0.8136
 1686TIP3    H226550   2.321   4.596   2.188 -0.3670  0.4209 -0.3103
 1687TIP3   OH226551   0.687   3.374  11.904 -0.3044  0.0397 -0.4246
 1687TIP3    H126552   0.773   3.346  11.937 -0.4241 -1.7822 -1.5270
 1687TIP3    H226553   0.648   3.295  11.868 -3.2463  0.3989  1.5962
 1688TIP3   OH226554   2.951   5.891   3.701  0.1000  0.2649  0.1304
 1688TIP3    H126555   2.960   5.812   3.753 -1.5277  0.0012  0.0425
 1688TIP3    H226556   2.934   5.860   3.612  3.4659  0.6893 -0.8324
 1689TIP3   OH226557   5.036   3.045   6.423 -0.1839 -0.5235  0.1157
 1689TIP3    H126558   4.982   2.975   6.387  0.2415 -1.6637  1.5944
 1689TIP3    H226559   5.093   3.072   6.350 -1.7017 -0.2896 -1.0397
 1690TIP3   OH226560   1.644   2.716  14.518 -0.5440  0.2560 -0.0900
 1690TIP3    H126561   1.633   2.665  14.437  0.7570 -1.2909  0.6662
 1690TIP3    H226562   1.558   2.714  14.559 -1.1935  0.9577 -1.3477
 1691TIP3   OH226563   3.958   3.177  13.679  0.6084  0.2260  0.0531
 1691TIP3    H126564   3.895   3.105  13.688  1.0783 -0.0273  1.5372
 1691TIP3    H226565   3.976   3.181  13.585 -1.1816 -0.0630 -0.3438
 1692TIP3   OH226566   0.314   3.548   3.334  0.2904 -0.2162 -0.3358
 1692TIP3    H126567   0.228   3.513   3.357  1.2047 -1.8713  0.7969
 1692TIP3    H226568   0.363   3.550   3.417  1.2629  0.9612 -0.8992
 1693TIP3   OH226569   1.905   6.272  15.592  0.6238 -0.5337 -0.7302
 1693TIP3    H126570   1.861   6.309  15.668  0.4578  0.1734 -1.1523
 1693TIP3    H226571   1.838   6.223  15.546  0.7940 -1.2029 -0.2764
 1694TIP3   OH226572   6.746   0.438   5.067 -0.0499 -0.1369 -0.2900
 1694TIP3    H126573   6.706   0.455   5.153 -0.3824 -0.0154 -0.4654
 1694TIP3    H226574   6.672   0.424   5.009  0.1971 -2.8898 -0.0480
 1695TIP3   OH226575   0.746   1.415   1.729  0.1658  0.0941 -0.1193
 1695TIP3    H126576   0.827   1.464   1.743  1.6237 -1.9717 -0.9271
 1695TIP3    H226577   0.722   1.381   1.815  2.3574 -2.4716 -0.4180
 1696TIP3   OH226578   5.879   2.874  14.934 -0.7436  0.1679  0.1181
 1696TIP3    H126579   5.942   2.807  14.961 -1.5917 -0.7343 -0.0637
 1696TIP3    H226580   5.922   2.957  14.953 -0.0895 -0.4317  1.3464
 1697TIP3   OH226581   4.234   1.302   0.061  0.0390 -0.2663 -0.2016
 1697TIP3    H126582   4.303   1.279   0.123 -1.2744 -0.0281  1.4216
 1697TIP3    H226583   4.154   1.301   0.113 -1.4109 -1.8461 -2.3022
 1698TIP3   OH226584   1.270   4.636  15.998 -0.6421 -0.0416 -0.3357
 1698TIP3    H126585   1.256   4.701  15.929 -0.8017 -1.3656 -1.6109
 1698TIP3    H226586   1.278   4.553  15.951 -0.5900 -0.9738  1.2463
 1699TIP3   OH226587   6.251   2.184   0.220 -0.3409 -0.2386 -0.3049
 1699TIP3    H126588   6.258   2.238   0.141 -1.9353  0.3002 -0.1167
 1699TIP3    H226589   6.218   2.244   0.286 -0.9214 -1.1537  0.2517
 1700TIP3   OH226590   5.507   1.357   4.266  0.7262 -0.1913  0.3731
 1700TIP3    H126591   5.512   1.427   4.331  0.7914 -0.5583  0.7687
 1700TIP3    H226592   5.472   1.399   4.187  3.0007  0.8529 -0.1700
 1701TIP3   OH226593   1.584   0.165   4.783 -0.6176 -0.0054 -0.1417
 1701TIP3    H126594   1.669   0.207   4.777 -0.6785  0.0985 -0.2787
 1701TIP3    H226595   1.526   0.220   4.731 -0.8996  0.2658  0.4399
 1702TIP3   OH226596   5.483   2.068   0.735 -0.5249 -0.3508 -0.3635
 1702TIP3    H126597   5.395   2.106   0.730 -0.8183 -1.0497 -0.6542
 1702TIP3    H226598   5.471   1.986   0.783 -0.5418 -1.8407 -2.7386
 1703TIP3   OH226599   4.143   2.530  16.064  0.4255  0.1519  0.2747
 1703TIP3    H126600   4.173   2.608  16.018  1.2499  0.8585  1.9156
 1703TIP3    H226601   4.133   2.558  16.155 -0.2377 -1.4157  0.7242
 1704TIP3   OH226602   1.914   5.173   4.008  0.5572 -0.1385  0.0451
 1704TIP3    H126603   1.909   5.203   3.917  0.3611 -0.8898 -0.1996
 1704TIP3    H226604   1.842   5.219   4.052  0.3969 -0.0864 -0.2711
 1705TIP3   OH226605   2.999   5.188  13.213 -0.6388  0.0766  0.3025
 1705TIP3    H126606   2.957   5.103  13.205 -1.5032  0.4332  0.8816
 1705TIP3    H226607   3.039   5.204  13.127 -2.4788  0.1219 -0.5910
 1706TIP3   OH226608   6.354   5.784  11.384 -0.6885 -0.4757 -0.8378
 1706TIP3    H126609   6.427   5.722  11.382 -1.1171 -0.9862 -1.0715
 1706TIP3    H226610   6.370   5.843  11.310  0.8363  1.0218  0.6262
 1707TIP3   OH226611   1.892   0.153   0.247  0.4556  0.2728 -0.2125
 1707TIP3    H126612   1.980   0.117   0.259  0.7507  0.8729 -0.5248
 1707TIP3    H226613   1.834   0.090   0.291  1.3946  1.9840  3.9480
 1708TIP3   OH226614   6.613   1.943  11.320  0.3018  0.9711 -0.1009
 1708TIP3    H126615   6.665   1.994  11.258 -0.3381 -0.5187 -1.9655
 1708TIP3    H226616   6.676   1.886  11.363  0.7307  1.9100  0.5563
 1709TIP3   OH226617   2.517   3.199  12.721  0.0916  0.6844  0.3985
 1709TIP3    H126618   2.526   3.163  12.809 -1.9680  0.9129  0.7697
 1709TIP3    H226619   2.584   3.155  12.669  0.5032 -0.3973  1.7934
 1710TIP3   OH226620   1.410   0.726   6.845  0.0335 -0.2708  0.5123
 1710TIP3    H126621   1.446   0.728   6.757  1.5389  0.9749  1.0924
 1710TIP3    H226622   1.450   0.802   6.889 -0.5285 -0.9523  2.3130
 1711TIP3   OH226623   4.428   0.340  14.989 -0.1137 -0.2002 -0.4672
 1711TIP3    H126624   4.426   0.307  14.899  0.8447 -3.0957  0.4765
 1711TIP3    H226625   4.515   0.381  14.997 -0.3813  0.4890 -0.9527
 1712TIP3   OH226626   2.007   6.246   1.296 -0.1883  0.4296 -0.9980
 1712TIP3    H126627   1.914   6.234   1.281 -0.2340  1.6953 -1.9324
 1712TIP3    H226628   2.043   6.158   1.303 -1.5983 -0.0630  0.4354
 1713TIP3   OH226629   6.497   2.302   2.848  0.6236 -0.4087 -0.1088
 1713TIP3    H126630   6.405   2.281   2.833  0.3953  0.3509  0.1851
 1713TIP3    H226631   6.545   2.238   2.795 -0.0739 -0.6110 -0.5111
 1714TIP3   OH226632   2.753   1.103  12.857  0.0171  0.4867  0.1811
 1714TIP3    H126633   2.683   1.100  12.923 -0.4442  0.0452 -0.3203
 1714TIP3    H226634   2.756   1.195  12.830 -2.6297  0.0521 -2.1263
 1715TIP3   OH226635   5.353   5.403   2.120  0.5635  0.2644 -0.8896
 1715TIP3    H126636   5.341   5.421   2.213 -1.2451 -0.4077 -0.9500
 1715TIP3    H226637   5.281   5.450   2.076 -0.2959 -1.6331 -1.6403
 1716TIP3   OH226638   0.993   2.981   5.687 -0.0808 -0.7651  0.5699
 1716TIP3    H126639   1.063   3.009   5.746 -0.1647 -0.5713  0.5779
 1716TIP3    H226640   0.947   2.913   5.734  1.6056 -2.6583 -0.3805
 1717TIP3   OH226641   2.949   2.452  13.966 -0.0777 -0.2320 -0.1238
 1717TIP3    H126642   3.040   2.482  13.971  0.7438 -2.4056 -0.8032
 1717TIP3    H226643   2.917   2.484  13.882 -0.2259  1.2002  0.4579
 1718TIP3   OH226644   0.852   4.893   2.082 -0.2164 -0.1163  0.2525
 1718TIP3    H126645   0.864   4.841   2.161  0.5599  1.3878  1.1708
 1718TIP3    H226646   0.936   4.937   2.069 -0.5690  0.2328 -0.9882
 1719TIP3   OH226647   0.431   6.141  13.632 -0.1841 -0.3192 -0.2490
 1719TIP3    H126648   0.395   6.225  13.603 -0.2294  0.3641  1.6125
 1719TIP3    H226649   0.385   6.075  13.581  0.7419  0.8068 -2.6629
 1720TIP3   OH226650   1.238   6.258   4.908 -0.1605 -0.3825 -0.0261
 1720TIP3    H126651   1.318   6.286   4.863 -0.4529 -0.0251 -0.3324
 1720TIP3    H226652   1.262   6.253   5.000 -0.6421  3.1089  0.4219
 1721TIP3   OH226653   5.847   2.668  10.674 -0.3345 -0.1600 -0.1948
 1721TIP3    H126654   5.841   2.730  10.602  0.3918 -2.1588 -2.0880
 1721TIP3    H226655   5.926   2.694  10.721 -0.1515  0.4768 -0.8263
 1722TIP3   OH226656   5.891   5.710  14.959  0.1042 -0.1865 -0.2295
 1722TIP3    H126657   5.922   5.715  15.049 -0.4606 -1.9634  0.0838
 1722TIP3    H226658   5.796   5.720  14.965  0.0438 -0.4879 -0.6096
 1723TIP3   OH226659   2.381   1.225   3.353  0.0042 -0.3922  0.3227
 1723TIP3    H126660   2.352   1.200   3.266 -2.0261 -0.7192  1.0224
 1723TIP3    H226661   2.433   1.304   3.340  1.1683 -1.3784 -1.3174
 1724TIP3   OH226662   4.531   3.272   2.940 -0.2250  0.0199  0.6472
 1724TIP3    H126663   4.506   3.363   2.951  1.2680  0.3928  1.1472
 1724TIP3    H226664   4.566   3.266   2.851 -2.2763 -0.5736 -0.1727
 1725TIP3   OH226665   0.793   5.500  12.868 -0.0320  0.0859  0.2094
 1725TIP3    H126666   0.869   5.558  12.859  0.6974 -0.8877 -0.1531
 1725TIP3    H226667   0.718   5.556  12.851  0.6332  0.9912  0.1675
 1726TIP3   OH226668   5.887   3.229  16.920  0.2601  0.1730  0.1857
 1726TIP3    H126669   5.837   3.148  16.928 -1.8967  1.3912 -0.1346
 1726TIP3    H226670   5.936   3.220  16.839  1.6070 -1.5645  1.1348
 1727TIP3   OH226671   5.883   0.149   0.213 -0.6412  0.0582  0.3434
 1727TIP3    H126672   5.857   0.112   0.298 -0.1220  1.5757  1.2070
 1727TIP3    H226673   5.954   0.209   0.234  1.0265 -1.1633 -1.4872
 1728TIP3   OH226674   3.189   5.861  15.927  0.4650  0.6080  0.1112
 1728TIP3    H126675   3.179   5.871  16.022  0.6120 -3.4296  0.7184
 1728TIP3    H226676   3.099   5.854  15.895  0.4630 -0.5327  0.3470
 1729TIP3   OH226677   3.050   0.119  14.950  0.1103 -0.0378 -0.3606
 1729TIP3    H126678   3.018   0.081  15.032  1.2451 -1.8424 -0.6915
 1729TIP3    H226679   3.096   0.198  14.977  0.3246 -0.5144  0.7550
 1730TIP3   OH226680   0.182   1.074  13.062  0.1873 -0.3691  0.3570
 1730TIP3    H126681   0.236   1.086  12.984  1.8073 -2.1209  1.1053
 1730TIP3    H226682   0.139   1.158  13.075 -0.3217 -0.0876 -2.5197
 1731TIP3   OH226683   1.039   5.690  16.379 -0.3236 -0.2888  0.1279
 1731TIP3    H126684   1.068   5.756  16.442 -0.7536 -0.0384  0.0640
 1731TIP3    H226685   0.976   5.637  16.428 -2.4912  1.3439 -0.7293
 1732TIP3   OH226686   1.143   4.797  13.433 -0.6388  0.8062  0.3697
 1732TIP3    H126687   1.150   4.878  13.483  1.5722  2.1408 -1.8366
 1732TIP3    H226688   1.225   4.793  13.383 -1.4260 -1.9255 -0.8913
 1733TIP3   OH226689   2.956   1.820   0.938 -0.0544 -0.2661 -0.1122
 1733TIP3    H126690   2.873   1.862   0.956  0.6211  1.5647 -1.0110
 1733TIP3    H226691   2.956   1.806   0.843 -0.2585 -2.3871  0.1499
 1734TIP3   OH226692   5.960   1.267  12.525  0.5468 -0.3608 -0.3252
 1734TIP3    H126693   5.950   1.307  12.612  1.6178  0.4925 -0.5600
 1734TIP3    H226694   5.930   1.177  12.536 -2.0784  0.4796  0.2170
 1735TIP3   OH226695   2.249   6.721  17.216 -0.3211 -0.1431 -0.8495
 1735TIP3    H126696   2.323   6.669  17.184  0.9224  0.0875  1.3753
 1735TIP3    H226697   2.182   6.656  17.238  1.2183 -0.9713  1.9187
 1736TIP3   OH226698   2.215   4.697  13.566  0.1485 -0.0387 -0.7466
 1736TIP3    H126699   2.265   4.776  13.589  1.0145 -0.4255 -1.2762
 1736TIP3    H226700   2.152   4.687  13.638 -1.4328  2.3255 -1.6719
 1737TIP3   OH226701   2.239   2.074   2.301  0.7059  0.0793  0.2553
 1737TIP3    H126702   2.286   2.091   2.220  0.6376  0.4134  0.2834
 1737TIP3    H226703   2.234   1.979   2.307  0.5079  0.0556 -0.2479
 1738TIP3   OH226704   1.973   1.324  15.949  0.2247  0.3734  0.1059
 1738TIP3    H126705   1.959   1.306  15.856 -0.1400  1.7866 -0.1230
 1738TIP3    H226706   2.066   1.306  15.963  0.5124  1.1472 -0.7684
 1739TIP3   OH226707   6.127   2.297  13.999 -0.1950 -0.3577  0.3979
 1739TIP3    H126708   6.215   2.266  13.977 -0.6234 -0.4118 -1.3968
 1739TIP3    H226709   6.068   2.240  13.949 -1.2186  0.1746  0.9666
 1740TIP3   OH226710   4.966   0.801  10.986  0.1352  0.1655 -0.3506
 1740TIP3    H126711   4.894   0.839  10.935  0.4730  0.6100 -0.5054
 1740TIP3    H226712   4.935   0.802  11.076 -0.3063 -0.2415 -0.4926
 1741TIP3   OH226713   0.631   5.682  12.032  0.4101  0.3374  1.1796
 1741TIP3    H126714   0.615   5.775  12.050  1.0787  0.2715  2.1864
 1741TIP3    H226715   0.567   5.660  11.964  1.1308  1.8595 -0.0563
 1742TIP3   OH226716   3.611   3.384   2.067  0.4253  0.2556 -0.0832
 1742TIP3    H126717   3.541   3.395   2.003 -0.5253 -0.1695  0.8652
 1742TIP3    H226718   3.625   3.472   2.102  0.5322  0.3808 -0.4337
 1743TIP3   OH226719   5.132   2.141   4.692  0.0154  0.3049  0.3762
 1743TIP3    H126720   5.139   2.172   4.602  2.9382 -0.2352  0.3115
 1743TIP3    H226721   5.190   2.199   4.742 -0.5943 -0.1711  1.6999
 1744TIP3   OH226722   4.126   5.456   1.543 -0.1188  0.0057 -0.2797
 1744TIP3    H126723   4.113   5.519   1.614  1.4441  0.5764 -0.4523
 1744TIP3    H226724   4.096   5.503   1.465  1.2307  0.6451 -0.4367
 1745TIP3   OH226725   4.735   1.266  13.984  0.5066 -0.1955  0.4157
 1745TIP3    H126726   4.682   1.270  14.064 -1.2977  1.3834 -0.7875
 1745TIP3    H226727   4.815   1.315  14.006  0.7886 -1.1860  1.7308
 1746TIP3   OH226728   4.346   1.718  17.309 -0.3536  0.0427 -0.5264
 1746TIP3    H126729   4.391   1.636  17.287  0.2783  0.5733 -1.3003
 1746TIP3    H226730   4.314   1.705  17.398 -0.1803 -1.0062 -0.6033
 1747TIP3   OH226731   5.989   1.054  13.220 -0.3395  0.0638 -0.3141
 1747TIP3    H126732   6.001   0.977  13.274  1.4754  0.2542 -0.3781
 1747TIP3    H226733   5.949   1.021  13.139  5.2354 -2.0570 -2.7949
 1748TIP3   OH226734   1.070   1.302  12.745 -0.7983  0.3400 -0.1724
 1748TIP3    H126735   1.130   1.342  12.682 -0.4306 -0.4550 -0.3351
 1748TIP3    H226736   0.991   1.283  12.694 -0.5326 -0.2245 -0.3766
 1749TIP3   OH226737   0.787   2.378   1.215 -0.3539 -0.4256  0.7367
 1749TIP3    H126738   0.719   2.314   1.238 -0.5462 -0.1608  0.9082
 1749TIP3    H226739   0.754   2.461   1.248  0.5244 -0.4604  1.7582
 1750TIP3   OH226740   3.002   3.626  11.726  0.2759 -0.0354  0.4917
 1750TIP3    H126741   2.945   3.592  11.658 -1.5511  1.6425  1.1102
 1750TIP3    H226742   2.993   3.564  11.798  1.0773 -1.0091 -0.2072
 1751TIP3   OH226743   5.424   5.494   0.726  0.4342 -0.0709  0.4989
 1751TIP3    H126744   5.355   5.559   0.715 -0.1248 -0.2484  2.4870
 1751TIP3    H226745   5.380   5.419   0.765  0.8877 -2.0633 -2.5279
 1752TIP3   OH226746   5.489   3.405   4.824 -0.0932  0.4856  0.3545
 1752TIP3    H126747   5.504   3.317   4.789  0.0083  0.3669  0.6870
 1752TIP3    H226748   5.444   3.452   4.754 -2.4218 -0.5841  1.0555
 1753TIP3   OH226749   6.813   5.152   4.161 -0.1413  0.4712 -0.0264
 1753TIP3    H126750   6.889   5.160   4.103 -0.1581  0.3383 -0.0651
 1753TIP3    H226751   6.744   5.203   4.119 -0.0844  0.5617 -0.0100
 1754TIP3   OH226752   1.034   4.101  13.104 -0.0503  0.2079  0.3227
 1754TIP3    H126753   0.967   4.127  13.041  0.9311 -1.1733 -1.3480
 1754TIP3    H226754   1.059   4.012  13.079  2.3771  0.6525  0.9038
 1755TIP3   OH226755   2.896   3.303   2.090 -0.2570 -0.3282 -0.4941
 1755TIP3    H126756   2.876   3.394   2.111 -1.1100 -0.5224 -0.4056
 1755TIP3    H226757   2.956   3.274   2.158 -1.5574 -0.4151  0.6566
 1756TIP3   OH226758   2.997   1.889  15.243 -0.1349  0.1425 -0.4686
 1756TIP3    H126759   3.045   1.954  15.293  0.6763  1.0613 -2.3277
 1756TIP3    H226760   3.063   1.849  15.186 -0.9653 -1.0139 -0.6618
 1757TIP3   OH226761   4.341   2.845  16.723  0.3157 -0.2054  0.7753
 1757TIP3    H126762   4.249   2.823  16.708 -0.2314  1.3303  1.6765
 1757TIP3    H226763   4.387   2.799  16.653 -1.5336  2.1506 -2.2840
 1758TIP3   OH226764   5.415   1.440   5.472  0.7976 -0.3756 -0.5619
 1758TIP3    H126765   5.495   1.491   5.475  1.2950 -1.1577 -0.3104
 1758TIP3    H226766   5.437   1.357   5.515 -0.2673 -0.4252 -0.0796
 1759TIP3   OH226767   5.593   2.335  16.901  0.0330 -0.3653  0.8639
 1759TIP3    H126768   5.609   2.258  16.845  1.3509  0.1285  0.5299
 1759TIP3    H226769   5.522   2.382  16.857 -0.2628 -0.9934  0.6567
 1760TIP3   OH226770   6.591   6.565  12.976 -0.0548 -0.3872  0.3717
 1760TIP3    H126771   6.653   6.536  13.043  0.5750 -0.9772 -0.4499
 1760TIP3    H226772   6.644   6.619  12.917 -0.2059 -1.2816 -0.5992
 1761TIP3   OH226773   2.766   2.244  15.982  0.6218 -0.0722 -0.4373
 1761TIP3    H126774   2.735   2.327  15.945  3.4333  2.2307  1.8327
 1761TIP3    H226775   2.809   2.200  15.909  0.0343  1.0143 -1.4629
 1762TIP3   OH226776   3.847   2.850   1.059 -0.4493  0.0040  0.0234
 1762TIP3    H126777   3.809   2.762   1.065  1.4988 -0.8466  0.4417
 1762TIP3    H226778   3.915   2.843   0.992 -0.5308  1.3045 -0.2201
 1763TIP3   OH226779   1.057   6.801  16.539  0.1695 -0.8830 -0.0886
 1763TIP3    H126780   1.128   6.812  16.602  0.2568 -1.1517 -0.1409
 1763TIP3    H226781   0.992   6.866  16.565  0.8003 -0.0537 -0.5594
 1764TIP3   OH226782   5.544   0.326   3.809  0.1444  0.2941  0.0977
 1764TIP3    H126783   5.539   0.411   3.766 -1.6343  0.9126  1.4212
 1764TIP3    H226784   5.561   0.347   3.901  1.9634 -0.9135  0.1028
 1765TIP3   OH226785   0.402   5.927   5.559  0.6084  0.5747  0.7950
 1765TIP3    H126786   0.402   6.023   5.567  2.8748  0.7436 -0.4373
 1765TIP3    H226787   0.493   5.902   5.572  0.5078 -1.1720 -1.3167
 1766TIP3   OH226788   3.334   4.072   4.282  0.7643  0.1831 -0.2988
 1766TIP3    H126789   3.291   4.061   4.367 -1.1433  2.1818 -0.9002
 1766TIP3    H226790   3.370   4.161   4.285  0.4440  0.3787 -1.6359
 1767TIP3   OH226791   5.871   2.010   5.893  0.0645 -0.1153 -0.4588
 1767TIP3    H126792   5.798   1.948   5.894  0.5434 -0.6747  0.5506
 1767TIP3    H226793   5.899   2.016   5.984  0.4281  1.1250 -0.6313
 1768TIP3   OH226794   5.317   2.880   5.701 -0.3527 -0.1860 -0.2073
 1768TIP3    H126795   5.287   2.823   5.630  0.8655  2.1942 -2.8358
 1768TIP3    H226796   5.358   2.954   5.657 -0.0185  1.7675  3.0195
 1769TIP3   OH226797   3.469   1.602  11.810 -0.5795  0.2607 -0.7399
 1769TIP3    H126798   3.387   1.596  11.762 -1.1906  0.2270  0.2692
 1769TIP3    H226799   3.537   1.580  11.746 -1.6061 -3.5824 -0.7274
 1770TIP3   OH226800   3.626   4.322  16.289 -0.0917 -0.5138  0.1433
 1770TIP3    H126801   3.704   4.336  16.236 -0.6044  1.1868 -0.2310
 1770TIP3    H226802   3.561   4.288  16.228 -0.1849 -0.1528  0.0389
 1771TIP3   OH226803   6.011   1.120  14.185  0.0598 -0.6100 -0.1418
 1771TIP3    H126804   5.972   1.064  14.118  1.1190 -0.5779 -0.8020
 1771TIP3    H226805   6.067   1.181  14.137  0.5762 -0.3634  0.7420
 1772TIP3   OH226806   6.607   3.077  12.099 -0.1393  0.0380 -0.0346
 1772TIP3    H126807   6.608   3.154  12.041 -0.0750 -1.2329 -1.8044
 1772TIP3    H226808   6.519   3.077  12.136 -0.0452  1.1227  0.2373
 1773TIP3   OH226809   4.720   1.530   5.481  0.7290 -0.4270 -0.3147
 1773TIP3    H126810   4.775   1.608   5.464  1.3337 -0.9593 -0.8816
 1773TIP3    H226811   4.759   1.462   5.426  0.5804 -1.3009  0.6378
 1774TIP3   OH226812   3.753   5.048   3.694  0.5547 -0.5157  0.1145
 1774TIP3    H126813   3.759   4.997   3.613 -1.2309  0.0015 -0.3852
 1774TIP3    H226814   3.703   4.991   3.754 -1.3620  0.5268 -0.4124
 1775TIP3   OH226815   2.869   1.295  13.475  0.3353 -0.4414 -0.2327
 1775TIP3    H126816   2.905   1.213  13.441  1.0743  0.7414 -2.5264
 1775TIP3    H226817   2.940   1.332  13.528  0.1394 -1.0817  0.4876
 1776TIP3   OH226818   6.562   5.350   2.984  0.2873  0.0854 -0.1695
 1776TIP3    H126819   6.486   5.387   2.938 -0.0616  1.0983  1.1616
 1776TIP3    H226820   6.557   5.256   2.967 -0.4752  0.3008 -1.2343
 1777TIP3   OH226821   5.764   3.619  12.379 -0.4265 -0.0430 -0.1034
 1777TIP3    H126822   5.755   3.627  12.284 -0.0977 -2.6180 -0.4159
 1777TIP3    H226823   5.858   3.622  12.394 -0.5001  3.3366  0.5778
 1778TIP3   OH226824   6.295   5.831   5.520  0.2034 -0.0600  0.4092
 1778TIP3    H126825   6.339   5.904   5.564  0.5606  1.1101 -1.7597
 1778TIP3    H226826   6.332   5.830   5.432 -0.6219 -2.1703  0.0236
 1779TIP3   OH226827   1.716   2.922  14.342 -0.3125 -0.1607  0.1094
 1779TIP3    H126828   1.727   2.846  14.398  1.6715 -0.3060 -0.4305
 1779TIP3    H226829   1.781   2.912  14.273 -0.9807  1.2974 -0.7955
 1780TIP3   OH226830   3.340   6.044  13.374  0.5825  0.0307  0.0458
 1780TIP3    H126831   3.390   5.981  13.322  0.0395  1.9186 -2.9364
 1780TIP3    H226832   3.260   6.059  13.324  0.2833  2.3980  1.1151
 1781TIP3   OH226833   4.185   0.301   5.385  0.6929 -0.6010 -0.3147
 1781TIP3    H126834   4.189   0.287   5.480 -1.7755 -2.1229 -0.3344
 1781TIP3    H226835   4.111   0.361   5.373  0.4615 -1.0625 -1.3166
 1782TIP3   OH226836   2.930   3.171  13.403 -0.4104  0.1220  0.6326
 1782TIP3    H126837   2.987   3.117  13.348  0.9927  1.9061  0.2576
 1782TIP3    H226838   2.957   3.151  13.493  0.0190  0.1125  0.5032
 1783TIP3   OH226839   0.165   0.977  14.524 -0.5277 -0.1545  0.1497
 1783TIP3    H126840   0.081   0.934  14.509 -0.7916  0.4589 -0.2215
 1783TIP3    H226841   0.145   1.047  14.587  0.0506 -1.0447  1.3459
 1784TIP3   OH226842   1.045   3.743   3.853  0.0166 -0.4787 -0.1126
 1784TIP3    H126843   1.022   3.669   3.797  0.9564 -0.8075 -0.0878
 1784TIP3    H226844   1.141   3.744   3.852  0.0541 -0.4168  1.3891
 1785TIP3   OH226845   0.380   3.205   5.950  0.2258  0.0854  0.3175
 1785TIP3    H126846   0.295   3.177   5.916  1.1249 -1.1832 -0.9869
 1785TIP3    H226847   0.401   3.284   5.899  0.1053  0.0367  0.1918
 1786TIP3   OH226848   4.094   5.548  16.292  0.1517 -0.3595 -0.1240
 1786TIP3    H126849   4.004   5.538  16.261  0.7257 -1.8885 -1.4469
 1786TIP3    H226850   4.088   5.614  16.361 -1.9892 -0.4678 -0.1228
 1787TIP3   OH226851   1.879   2.002  13.190 -0.5970  0.7893  0.0931
 1787TIP3    H126852   1.844   2.015  13.278  0.9332  0.3432  0.8111
 1787TIP3    H226853   1.807   2.023  13.132 -2.2067 -0.5840  1.4788
 1788TIP3   OH226854   2.451   0.180   1.764 -0.1896 -0.1459  0.4183
 1788TIP3    H126855   2.393   0.136   1.702  0.1604 -0.8544  0.5851
 1788TIP3    H226856   2.444   0.273   1.741  1.6348 -0.5329 -2.1825
 1789TIP3   OH226857   1.461   4.436  11.613 -0.2998  0.2179 -0.7090
 1789TIP3    H126858   1.552   4.449  11.586  0.1274 -0.4185  0.3710
 1789TIP3    H226859   1.466   4.412  11.705 -1.4748 -0.9204 -0.9090
 1790TIP3   OH226860   4.998   6.013  13.023 -0.1455  0.0313 -0.1093
 1790TIP3    H126861   4.999   6.033  13.117  0.2769 -1.7927  0.3173
 1790TIP3    H226862   4.910   5.980  13.007 -0.5437  1.3027 -0.5927
 1791TIP3   OH226863   0.454   0.147  14.201  0.1574 -0.2154 -0.2874
 1791TIP3    H126864   0.489   0.157  14.290  1.7641  0.0614 -0.9121
 1791TIP3    H226865   0.395   0.072  14.206 -0.1251  0.0750  1.1019
 1792TIP3   OH226866   5.844   0.226   0.546 -0.8674 -0.5103  0.5962
 1792TIP3    H126867   5.812   0.250   0.459 -1.2494 -1.8762  0.3389
 1792TIP3    H226868   5.895   0.301   0.574  0.7916 -0.7413 -1.5571
 1793TIP3   OH226869   4.638   2.166  14.689  0.2755  0.2267  0.5276
 1793TIP3    H126870   4.687   2.084  14.676  0.2294 -0.1199  2.3000
 1793TIP3    H226871   4.575   2.167  14.617  1.8214 -0.1004 -0.8968
 1794TIP3   OH226872   5.800   3.016   1.432  0.3348 -0.1129 -0.5142
 1794TIP3    H126873   5.786   3.049   1.521 -0.5302 -3.2818  0.6938
 1794TIP3    H226874   5.892   3.033   1.413  0.2848  1.5270  0.5370
 1795TIP3   OH226875   4.836   3.399   2.712 -0.1605  0.2964 -0.5772
 1795TIP3    H126876   4.763   3.337   2.716  0.3586 -0.4261 -1.7981
 1795TIP3    H226877   4.817   3.454   2.636 -0.2532  1.1771  0.0747
 1796TIP3   OH226878   3.251   1.567  11.678 -0.0289  0.2774  0.3474
 1796TIP3    H126879   3.272   1.652  11.638 -0.9955  0.8839  1.1080
 1796TIP3    H226880   3.206   1.519  11.609 -0.8875  0.9827  0.4100
 1797TIP3   OH226881   2.828   6.712  12.190  0.2865 -0.0170 -0.3300
 1797TIP3    H126882   2.745   6.738  12.230  0.3513 -0.3463  0.0207
 1797TIP3    H226883   2.861   6.791  12.148  0.2914  0.3631  0.3916
 1798TIP3   OH226884   1.601   5.460   2.310 -0.1112 -0.3298 -0.5149
 1798TIP3    H126885   1.552   5.505   2.241  0.7328  0.4293 -0.6513
 1798TIP3    H226886   1.668   5.524   2.336  0.3897 -1.0914  0.1052
 1799TIP3   OH226887   4.049   2.276  16.929  0.1306  0.4178 -0.3080
 1799TIP3    H126888   4.113   2.308  16.865  0.3093 -0.8964 -0.7956
 1799TIP3    H226889   3.991   2.219  16.880 -0.2059  0.0082  0.5419
 1800TIP3   OH226890   1.523   5.611   5.233  0.4988 -0.1900 -0.5135
 1800TIP3    H126891   1.534   5.689   5.287 -0.5519  0.3326 -1.0202
 1800TIP3    H226892   1.432   5.585   5.247  0.3473 -0.3173 -1.6613
 1801TIP3   OH226893   2.408   0.264   5.296 -0.2623 -0.0483 -0.0840
 1801TIP3    H126894   2.337   0.249   5.359 -1.7469  0.4940 -1.5459
 1801TIP3    H226895   2.416   0.359   5.291  0.0734 -0.0917 -0.4590
 1802TIP3   OH226896   0.251   3.067   5.441  0.6193  0.1790 -0.6866
 1802TIP3    H126897   0.329   3.024   5.406  0.3067 -0.8077 -0.1891
 1802TIP3    H226898   0.227   3.131   5.374  0.3999 -1.2350 -2.0118
 1803TIP3   OH226899   5.068   5.848   2.677  0.0606 -0.0398  0.2789
 1803TIP3    H126900   4.992   5.794   2.654  0.5246 -0.7246  0.3106
 1803TIP3    H226901   5.066   5.920   2.615  0.3319 -0.9567 -0.8394
 1804TIP3   OH226902   4.202   6.630   3.768  0.4060 -0.1385 -0.0200
 1804TIP3    H126903   4.296   6.648   3.778  0.1562  0.4483  1.4586
 1804TIP3    H226904   4.164   6.650   3.853 -1.1972  0.3597 -0.8083
 1805TIP3   OH226905   1.443   4.374  15.379  0.3902 -0.6031  0.2231
 1805TIP3    H126906   1.494   4.399  15.455  0.3069  2.0425 -0.4794
 1805TIP3    H226907   1.443   4.452  15.323 -2.2774 -1.3125 -0.9680
 1806TIP3   OH226908   5.796   3.812  12.677  0.1428 -0.0077 -0.1743
 1806TIP3    H126909   5.861   3.854  12.620 -0.7925 -0.5786 -1.7173
 1806TIP3    H226910   5.845   3.740  12.719  0.8608  0.4552 -0.1972
 1807TIP3   OH226911   3.266   4.545   1.691 -0.3169  0.5042 -0.0775
 1807TIP3    H126912   3.203   4.597   1.641 -2.2002 -0.5496  1.0768
 1807TIP3    H226913   3.311   4.491   1.625  1.6624  3.3843 -1.3027
 1808TIP3   OH226914   2.067   2.892  15.887 -0.0228 -0.0612 -0.3245
 1808TIP3    H126915   2.158   2.891  15.860  0.5290  3.7024  0.7658
 1808TIP3    H226916   2.018   2.883  15.805  1.1717 -3.3859 -0.8038
 1809TIP3   OH226917   1.859   3.638   3.699  0.0814  0.3767  0.1576
 1809TIP3    H126918   1.765   3.624   3.688 -0.0395 -1.0871  2.3960
 1809TIP3    H226919   1.867   3.728   3.731 -0.3550  1.0597 -1.5090
 1810TIP3   OH226920   5.770   2.941   2.002 -0.1086 -0.3153  0.1835
 1810TIP3    H126921   5.863   2.959   1.989 -0.0021 -1.0000 -0.0770
 1810TIP3    H226922   5.740   3.009   2.062  0.1433  1.0257 -1.1290
 1811TIP3   OH226923   0.847   1.992   3.320 -0.0795  1.2631 -0.3526
 1811TIP3    H126924   0.808   1.983   3.233 -0.3680 -2.5149 -0.0000
 1811TIP3    H226925   0.775   1.978   3.380  0.7444  0.0788  0.4009
 1812TIP3   OH226926   4.531   5.942  14.048 -0.2428 -0.6292 -0.3694
 1812TIP3    H126927   4.579   6.009  14.000 -1.2534 -1.4856 -2.6936
 1812TIP3    H226928   4.598   5.896  14.099  0.8959  0.2585 -1.0321
 1813TIP3   OH226929   0.281   3.840   3.905 -0.1721  0.1181 -0.5151
 1813TIP3    H126930   0.350   3.885   3.856 -0.2517  0.8615  0.0396
 1813TIP3    H226931   0.316   3.832   3.994 -0.1761 -0.8884 -0.5964
 1814TIP3   OH226932   3.699   0.074  11.838  0.0483  0.0136 -0.3427
 1814TIP3    H126933   3.621   0.030  11.806 -0.1985 -0.2709  0.6030
 1814TIP3    H226934   3.760   0.002  11.860  0.5455  0.2285 -0.9935
 1815TIP3   OH226935   5.216   2.961  16.082  0.0807  0.1311  0.0486
 1815TIP3    H126936   5.149   2.894  16.098 -2.3005  2.5808  1.0580
 1815TIP3    H226937   5.284   2.942  16.146 -1.3552 -0.3211  1.4970
 1816TIP3   OH226938   1.567   0.317   4.031  0.4854  0.5297  0.0847
 1816TIP3    H126939   1.529   0.362   3.956 -0.3231 -1.3808 -0.7027
 1816TIP3    H226940   1.662   0.329   4.020  0.2858  2.7539  0.4117
 1817TIP3   OH226941   0.142   1.705   2.436 -0.4546 -0.3466 -0.0987
 1817TIP3    H126942   0.144   1.720   2.530 -1.1967 -0.8592  0.0082
 1817TIP3    H226943   0.049   1.698   2.415 -0.3935  1.3121 -1.1291
 1818TIP3   OH226944   1.166   3.617  15.137  0.1561 -0.1587 -0.5200
 1818TIP3    H126945   1.256   3.599  15.110  0.1591 -1.2671  0.2003
 1818TIP3    H226946   1.153   3.710  15.116  1.1068 -0.2493 -1.6112
 1819TIP3   OH226947   6.357   6.337  17.150  0.5684  0.0391  0.1037
 1819TIP3    H126948   6.422   6.291  17.203  1.2508  0.1821 -0.5858
 1819TIP3    H226949   6.292   6.270  17.129  1.2381 -0.4770 -0.3851
 1820TIP3   OH226950   2.636   6.503  12.741 -0.0780  0.5301  0.2107
 1820TIP3    H126951   2.715   6.556  12.747  0.6117 -0.4263 -0.2254
 1820TIP3    H226952   2.578   6.539  12.808  0.2944  1.9414 -0.1958
 1821TIP3   OH226953   5.290   2.147  13.397 -0.9465 -0.0929  0.2334
 1821TIP3    H126954   5.375   2.152  13.442 -0.6616 -3.1547  0.2832
 1821TIP3    H226955   5.312   2.141  13.304 -1.1762  0.3036  0.1543
 1822TIP3   OH226956   5.692   2.526  10.512  0.5719 -0.2876 -0.2213
 1822TIP3    H126957   5.739   2.580  10.575  0.7831 -0.4214 -0.2608
 1822TIP3    H226958   5.600   2.545  10.527  0.6196 -0.3831  0.1832
 1823TIP3   OH226959   0.238   3.291  12.346 -0.5468  0.6069 -0.1202
 1823TIP3    H126960   0.311   3.250  12.393 -1.3700 -0.9646 -0.1609
 1823TIP3    H226961   0.188   3.336  12.415 -0.8879 -0.3793  0.2943
 1824TIP3   OH226962   2.242   4.703   1.141 -0.2979  0.0653 -0.5673
 1824TIP3    H126963   2.288   4.668   1.065 -0.0749 -1.6933  0.3115
 1824TIP3    H226964   2.238   4.629   1.203 -0.3676  1.4507  1.1798
 1825TIP3   OH226965   3.317   2.840  14.813  0.8488  0.3223 -0.6790
 1825TIP3    H126966   3.377   2.862  14.884 -0.1121  0.1264  0.2217
 1825TIP3    H226967   3.237   2.888  14.833 -0.2236 -1.4780 -0.3512
 1826TIP3   OH226968   0.942   4.386   2.852  0.2669  0.0840 -0.3292
 1826TIP3    H126969   1.018   4.347   2.897  0.4682 -0.6213 -1.2415
 1826TIP3    H226970   0.973   4.402   2.763 -1.2777 -2.3396 -1.4129
 1827TIP3   OH226971   3.553   0.383   3.910  0.3508  0.0716  0.2735
 1827TIP3    H126972   3.518   0.471   3.894 -1.0411 -0.3753  0.7408
 1827TIP3    H226973   3.598   0.361   3.829 -0.9424  0.4638 -0.5860
 1828TIP3   OH226974   3.890   0.996  17.071  0.5376 -0.1065 -0.4994
 1828TIP3    H126975   3.902   1.089  17.056 -0.6734 -0.1783 -2.2498
 1828TIP3    H226976   3.796   0.986  17.087  1.0276 -0.7059  2.7549
 1829TIP3   OH226977   0.943   6.184  13.929  0.4490 -0.0681  0.0210
 1829TIP3    H126978   0.885   6.115  13.896  1.8788 -0.0780 -2.7801
 1829TIP3    H226979   0.955   6.243  13.855 -1.1540  3.6287  2.4552
 1830TIP3   OH226980   6.747   5.414  12.533 -0.2814 -0.0475  0.1621
 1830TIP3    H126981   6.783   5.333  12.568 -0.2616 -0.9446 -1.7556
 1830TIP3    H226982   6.709   5.460  12.608 -1.6801 -2.5711  1.0953
 1831TIP3   OH226983   6.367   4.021  16.890 -0.0740  0.0833 -0.3458
 1831TIP3    H126984   6.343   4.030  16.982 -2.1924  0.6913 -0.9147
 1831TIP3    H226985   6.331   4.100  16.848  1.2417  0.0469 -1.6350
 1832TIP3   OH226986   4.988   5.413   5.705  0.0696  0.4246  0.4352
 1832TIP3    H126987   4.926   5.453   5.766  0.1139  0.8959  0.1758
 1832TIP3    H226988   5.066   5.469   5.710  0.5217 -0.2140  0.8367
 1833TIP3   OH226989   0.469   5.981  16.415 -0.3493  0.1555  0.8188
 1833TIP3    H126990   0.416   5.913  16.374 -0.6529  1.4258 -1.0068
 1833TIP3    H226991   0.413   6.018  16.483 -0.6963 -0.4485  0.8735
 1834TIP3   OH226992   1.145   6.127  15.348 -0.5405  0.2063  0.5230
 1834TIP3    H126993   1.187   6.186  15.411  0.7772 -0.1384  0.0111
 1834TIP3    H226994   1.141   6.043  15.393  1.0836 -0.2262 -0.0716
 1835TIP3   OH226995   3.615   3.523  15.161  0.6786  0.3528 -0.4611
 1835TIP3    H126996   3.554   3.453  15.139 -1.4705  1.8503  0.3493
 1835TIP3    H226997   3.606   3.586  15.088  3.9767 -0.9035 -2.1733
 1836TIP3   OH226998   0.643   5.186  10.687  0.3466 -0.6046  0.4026
 1836TIP3    H126999   0.610   5.257  10.633  0.3738  0.8423  2.2052
 1836TIP3    H227000   0.568   5.128  10.700  0.8704 -2.3466 -3.0526
 1837TIP3   OH227001   3.205   5.658   1.975 -0.7197 -0.1073  0.0749
 1837TIP3    H127002   3.144   5.585   1.967 -1.5669  0.0820  3.4989
 1837TIP3    H227003   3.276   5.625   2.029  0.1561  0.9063 -0.4097
 1838TIP3   OH227004   1.044   5.592   0.077 -0.2268  0.2143 -0.7592
 1838TIP3    H127005   1.128   5.617   0.117 -1.0393  2.7629 -0.4455
 1838TIP3    H227006   0.988   5.668   0.090 -2.9201 -1.7210 -0.1927
 1839TIP3   OH227007   4.349   1.193  12.920 -0.0263  0.0689 -0.3097
 1839TIP3    H127008   4.400   1.250  12.862  3.1106 -0.3422  1.7855
 1839TIP3    H227009   4.367   1.105  12.889  1.3424 -0.1278  0.9221
 1840TIP3   OH227010   6.455   4.875   4.502  0.1664  0.2082 -0.3918
 1840TIP3    H127011   6.536   4.850   4.546  0.0017 -0.7394 -0.6060
 1840TIP3    H227012   6.473   4.864   4.409 -0.3855 -0.6068 -0.4135
 1841TIP3   OH227013   3.445   6.511   5.312 -0.0638 -0.8252 -0.4865
 1841TIP3    H127014   3.470   6.426   5.348  0.7346 -1.3821 -2.2550
 1841TIP3    H227015   3.445   6.498   5.218 -1.8887  0.6184 -0.7504
 1842TIP3   OH227016   3.586   4.320  12.283  0.4544  0.2774  0.0739
 1842TIP3    H127017   3.557   4.230  12.298  0.8904  0.2427  0.7203
 1842TIP3    H227018   3.590   4.328  12.187 -1.4357  0.2129 -0.0399
 1843TIP3   OH227019   4.883   0.017  12.714  0.0604 -0.4425 -0.1019
 1843TIP3    H127020   4.861  -0.010  12.804 -1.0667 -4.5805 -1.3829
 1843TIP3    H227021   4.845  -0.051  12.659  1.7025  1.2882 -3.7025
 1844TIP3   OH227022   2.366   0.737   1.041 -0.1531 -0.1479  0.1297
 1844TIP3    H127023   2.427   0.811   1.039 -1.4841  0.9967  0.8249
 1844TIP3    H227024   2.376   0.695   0.955  1.7786 -0.1569  0.3155
 1845TIP3   OH227025   5.622   4.534   3.758  0.4557 -0.1807 -0.1840
 1845TIP3    H127026   5.618   4.508   3.666 -1.9945  1.1077 -0.5322
 1845TIP3    H227027   5.699   4.591   3.764 -1.6646  3.3528 -2.6074
 1846TIP3   OH227028   3.941   6.726  15.977 -0.0762  0.1986 -0.6845
 1846TIP3    H127029   3.997   6.685  16.042  0.8393  1.7574 -0.4462
 1846TIP3    H227030   3.858   6.740  16.022  0.1432  0.1187 -0.2556
 1847TIP3   OH227031   2.931   5.970   0.095 -0.2629 -0.0064 -0.1592
 1847TIP3    H127032   2.989   5.906   0.136  1.6575  2.1196  0.7184
 1847TIP3    H227033   2.857   5.919   0.062  0.4829 -2.4444  1.6573
 1848TIP3   OH227034   0.029   3.062   0.818  0.0494 -0.0339  0.8049
 1848TIP3    H127035  -0.005   3.151   0.834  0.2626  0.3530 -0.7351
 1848TIP3    H227036   0.117   3.076   0.783  0.0139 -0.8483  0.3650
 1849TIP3   OH227037   5.630   0.721   0.572 -0.2820 -0.1674 -0.4669
 1849TIP3    H127038   5.656   0.702   0.662  0.1892  0.2620 -0.5067
 1849TIP3    H227039   5.688   0.792   0.545 -0.8446  0.1396 -0.8957
 1850TIP3   OH227040   5.782   0.561   2.190  0.2453 -0.3451  0.2654
 1850TIP3    H127041   5.786   0.569   2.095 -1.6299  0.4402  0.2237
 1850TIP3    H227042   5.860   0.509   2.212  0.2499 -1.3110 -1.7626
 1851TIP3   OH227043   1.332   6.095  11.684  0.1876  0.4847  0.1300
 1851TIP3    H127044   1.341   6.189  11.670 -1.3023  0.9335  1.8330
 1851TIP3    H227045   1.352   6.056  11.598 -1.3226  2.4968 -1.2325
 1852TIP3   OH227046   6.781   5.974   0.340 -0.1164  0.2174  0.1097
 1852TIP3    H127047   6.757   6.009   0.426  0.4648  1.9997 -0.4018
 1852TIP3    H227048   6.854   6.030   0.311 -0.4049 -0.2383 -1.6090
 1853TIP3   OH227049   1.797   4.208   3.614  0.4288  0.2472 -0.1311
 1853TIP3    H127050   1.867   4.145   3.599 -0.0146 -0.8579  1.9944
 1853TIP3    H227051   1.840   4.280   3.661  0.3687  0.0912  0.1674
 1854TIP3   OH227052   5.039   5.663   4.245  0.0966  0.0881 -0.1533
 1854TIP3    H127053   5.120   5.623   4.275 -0.4093 -0.4803  0.4984
 1854TIP3    H227054   5.023   5.625   4.159  0.1910 -0.2798 -0.0090
 1855TIP3   OH227055   0.225   0.768  14.168 -0.0183 -0.1765  0.0239
 1855TIP3    H127056   0.220   0.709  14.244  3.8308  1.0673  1.5371
 1855TIP3    H227057   0.295   0.730  14.114 -1.1094  0.2437 -1.7412
 1856TIP3   OH227058   2.140   4.733   2.618 -0.1079  0.2817  0.6684
 1856TIP3    H127059   2.104   4.821   2.613  1.4226  0.8566 -1.9651
 1856TIP3    H227060   2.183   4.729   2.704 -0.4728  1.9618  0.9637
 1857TIP3   OH227061   2.084   3.868  11.899  0.2226 -0.2655  0.7062
 1857TIP3    H127062   2.142   3.874  11.974  1.3783 -0.2138 -0.1611
 1857TIP3    H227063   2.135   3.903  11.826 -1.3078  0.9023  0.1180
 1858TIP3   OH227064   2.487   2.380  17.082 -0.2237  0.1691  0.4737
 1858TIP3    H127065   2.405   2.363  17.036  0.5473  1.6165 -1.6130
 1858TIP3    H227066   2.529   2.294  17.089 -0.8438 -0.2500 -0.6539
 1859TIP3   OH227067   3.498   3.919   6.731 -0.3914 -0.2027  0.2933
 1859TIP3    H127068   3.493   3.826   6.751  2.2050 -0.6520 -0.6753
 1859TIP3    H227069   3.418   3.938   6.683 -0.5372 -2.1775 -0.3449
 1860TIP3   OH227070   1.922   1.619   1.270 -0.1870  0.0900 -0.5800
 1860TIP3    H127071   1.938   1.568   1.191 -0.0757 -0.4297 -0.2340
 1860TIP3    H227072   1.952   1.707   1.249  1.0810 -0.3397 -0.6893
 1861TIP3   OH227073   2.086   2.903   1.269 -0.3640 -0.0301 -0.2356
 1861TIP3    H127074   2.177   2.887   1.295  0.2105  2.8675 -0.1254
 1861TIP3    H227075   2.049   2.954   1.342 -1.1402  1.3838 -1.5680
 1862TIP3   OH227076   2.460   3.362  15.395 -0.7461 -0.0587 -0.0154
 1862TIP3    H127077   2.508   3.365  15.478 -1.7537  0.4105  0.5698
 1862TIP3    H227078   2.424   3.274  15.391  1.3815 -0.9485 -1.2030
 1863TIP3   OH227079   0.971   0.723  11.488  0.7004  0.0510  0.3618
 1863TIP3    H127080   0.950   0.669  11.563  0.7913  1.2273  1.2650
 1863TIP3    H227081   0.892   0.774  11.472  0.7180 -0.1088 -0.2816
 1864TIP3   OH227082   4.748   4.948   3.638 -0.4058  0.0532 -0.6317
 1864TIP3    H127083   4.720   4.987   3.555  3.1999  0.4521 -1.8172
 1864TIP3    H227084   4.778   5.023   3.690 -0.9094 -0.3907  0.3079
 1865TIP3   OH227085   0.216   4.014   6.484  0.5064  0.4190  0.0154
 1865TIP3    H127086   0.221   4.047   6.395  0.7904 -0.6515 -0.3830
 1865TIP3    H227087   0.159   4.075   6.530 -1.6744 -0.3648 -1.5152
 1866TIP3   OH227088   2.905   6.373   4.522 -0.4338 -0.1175  0.1163
 1866TIP3    H127089   2.896   6.346   4.613 -1.8354 -1.6262 -0.4328
 1866TIP3    H227090   2.857   6.455   4.517 -0.5597 -0.1511  0.6632
 1867TIP3   OH227091   0.155   3.735  15.887 -0.4193  0.6436  0.3143
 1867TIP3    H127092   0.110   3.653  15.908 -0.5324  0.7460  0.4699
 1867TIP3    H227093   0.210   3.752  15.963 -0.6872  0.9156  0.4461
 1868TIP3   OH227094   2.404   4.209   1.176 -0.2537 -0.3565 -0.1576
 1868TIP3    H127095   2.394   4.135   1.116  0.7913 -0.2665 -0.4673
 1868TIP3    H227096   2.352   4.185   1.253 -1.8638 -0.3250 -1.2072
 1869TIP3   OH227097   3.463   6.243   3.559  0.2764 -0.4920 -0.0407
 1869TIP3    H127098   3.459   6.153   3.590  2.7499 -1.3338 -1.8356
 1869TIP3    H227099   3.551   6.273   3.584  0.5277  0.4372 -1.9038
 1870TIP3   OH227100   2.496   1.522   3.554  0.0206  0.0552  0.2844
 1870TIP3    H127101   2.491   1.573   3.472 -1.4212 -2.4695 -1.3186
 1870TIP3    H227102   2.587   1.497   3.560  0.2286  0.6011 -0.3489
 1871TIP3   OH227103   4.371   3.878  14.932 -0.8764  0.3032  0.0521
 1871TIP3    H127104   4.409   3.790  14.930 -0.7421  0.3662 -0.2358
 1871TIP3    H227105   4.282   3.865  14.962 -0.9180  0.0434 -0.1766
 1872TIP3   OH227106   6.389   4.889  14.036  0.0185  0.1383 -0.1560
 1872TIP3    H127107   6.415   4.796  14.034 -0.9198 -0.1313 -2.1921
 1872TIP3    H227108   6.342   4.898  14.119 -0.4797 -1.3941 -0.2275
 1873TIP3   OH227109   0.389   5.008   5.521  0.2099 -0.9447 -0.3605
 1873TIP3    H127110   0.474   5.005   5.476  0.5047 -1.4833  0.2166
 1873TIP3    H227111   0.396   4.942   5.590 -0.0418  0.2077  0.8023
 1874TIP3   OH227112   5.744   5.024  17.179 -0.0305 -0.1449 -0.2168
 1874TIP3    H127113   5.762   5.092  17.244 -0.1518 -1.3432  1.1279
 1874TIP3    H227114   5.742   4.943  17.230  0.0825 -1.1584 -1.7651
 1875TIP3   OH227115   0.909   2.236  16.344  0.1254 -0.0964  0.2211
 1875TIP3    H127116   0.916   2.221  16.250  0.6304 -0.8071  0.3658
 1875TIP3    H227117   0.883   2.151  16.380  0.9259 -0.0934  0.8315
 1876TIP3   OH227118   2.745   1.202  15.669  0.0367 -0.4012 -0.4823
 1876TIP3    H127119   2.769   1.216  15.577 -0.6430  1.5714 -0.3871
 1876TIP3    H227120   2.822   1.230  15.718 -1.2208  3.1724 -0.3056
 1877TIP3   OH227121   6.010   5.194  12.539 -0.1326  0.2782 -0.1300
 1877TIP3    H127122   5.921   5.213  12.508  0.3270  0.2153 -1.5544
 1877TIP3    H227123   6.012   5.230  12.628 -1.8541 -0.5243  0.2758
 1878TIP3   OH227124   1.152   5.979  13.785 -0.1239 -0.3331  0.5448
 1878TIP3    H127125   1.147   5.956  13.878 -1.1194 -0.2220  0.5311
 1878TIP3    H227126   1.175   6.072  13.785 -0.5355 -0.2291  0.6936
 1879TIP3   OH227127   1.709   5.780   3.763  0.1026  0.1124 -0.6141
 1879TIP3    H127128   1.647   5.779   3.836  0.7475 -0.9267 -0.0545
 1879TIP3    H227129   1.669   5.839   3.699 -2.7179 -2.2119 -1.2854
 1880TIP3   OH227130   2.265   3.324   3.050 -0.1905  0.4567 -0.3970
 1880TIP3    H127131   2.216   3.275   2.985 -0.2326 -1.3088  0.9065
 1880TIP3    H227132   2.330   3.263   3.083 -0.0921  1.3231  1.1301
 1881TIP3   OH227133   0.376   3.629   0.830  0.3923  0.0583  0.4033
 1881TIP3    H127134   0.403   3.707   0.878  0.5441  0.5838 -0.5118
 1881TIP3    H227135   0.457   3.578   0.820  0.3624 -0.0463  0.6917
 1882TIP3   OH227136   5.456   5.298   3.307 -0.6575 -0.4646  0.3729
 1882TIP3    H127137   5.512   5.333   3.237 -0.1436  0.4033  1.2029
 1882TIP3    H227138   5.433   5.210   3.276  0.5989 -0.5850 -0.3175
 1883TIP3   OH227139   0.417   0.959   1.525  0.3206 -0.3546 -0.1338
 1883TIP3    H127140   0.409   0.891   1.459  1.4661 -1.9898  1.3222
 1883TIP3    H227141   0.512   0.971   1.536  0.1504  1.3244 -0.1682
 1884TIP3   OH227142   4.154   2.900   3.085 -0.1396  0.4384 -0.1057
 1884TIP3    H127143   4.247   2.916   3.102 -0.1338 -1.4261  2.0884
 1884TIP3    H227144   4.153   2.833   3.017  0.0814  1.0233 -0.6953
 1885TIP3   OH227145   2.177   1.097   2.768 -0.2098  0.0150 -0.1866
 1885TIP3    H127146   2.190   1.109   2.673  0.4532  1.9764  0.0959
 1885TIP3    H227147   2.263   1.111   2.806 -0.3636 -1.2790  0.7029
 1886TIP3   OH227148   1.724   0.541   3.653 -0.1862  0.2933 -0.1003
 1886TIP3    H127149   1.664   0.586   3.713  0.3176  1.0264 -0.1343
 1886TIP3    H227150   1.667   0.499   3.589 -0.6942  0.3094  0.3356
 1887TIP3   OH227151   2.195   4.461   1.272  0.1041  0.3176 -0.0163
 1887TIP3    H127152   2.110   4.490   1.306  0.0139 -0.2231  0.2296
 1887TIP3    H227153   2.253   4.465   1.348  0.3964  1.0296 -0.2622
 1888TIP3   OH227154   3.108   0.027   5.517  0.1892  0.1787 -0.2872
 1888TIP3    H127155   3.088   0.078   5.596  0.6358 -0.0688 -0.0113
 1888TIP3    H227156   3.101  -0.064   5.546  1.2042  0.0809 -0.3077
 1889TIP3   OH227157   6.354   5.896   5.255 -0.0697 -0.1648  0.6411
 1889TIP3    H127158   6.289   5.963   5.237 -0.6075 -0.4280  1.5317
 1889TIP3    H227159   6.367   5.851   5.171 -0.9281 -0.0164  0.4231
 1890TIP3   OH227160   5.316   4.731   2.822  0.2293 -0.6975 -0.1719
 1890TIP3    H127161   5.306   4.812   2.771  0.6055 -2.0511 -2.5741
 1890TIP3    H227162   5.372   4.755   2.895 -1.0431  1.5834  0.1513
 1891TIP3   OH227163   3.720   0.474  12.710 -0.2391  0.1646 -0.4013
 1891TIP3    H127164   3.808   0.469  12.746 -0.1563  1.4750 -0.3491
 1891TIP3    H227165   3.666   0.505  12.783 -1.0543 -1.9918 -0.0099
 1892TIP3   OH227166   2.110   5.583  12.867  0.1272 -0.3997  0.5177
 1892TIP3    H127167   2.171   5.649  12.834  0.9061 -1.3257  0.0469
 1892TIP3    H227168   2.136   5.502  12.823  1.0405 -1.6504  3.1346
 1893TIP3   OH227169   3.476   3.360   0.567 -0.4601  0.1121  0.1516
 1893TIP3    H127170   3.474   3.323   0.478 -0.7469 -0.8086  0.5245
 1893TIP3    H227171   3.387   3.390   0.582 -0.5943 -0.3813  0.3790
 1894TIP3   OH227172   3.994   0.643  11.049  0.0131 -0.4728 -0.1618
 1894TIP3    H127173   3.930   0.620  10.981 -0.1417  0.3825 -0.3158
 1894TIP3    H227174   4.033   0.724  11.018  0.1475 -0.2239  0.6394
 1895TIP3   OH227175   3.917   1.563   0.379  0.1862  1.1145 -0.2517
 1895TIP3    H127176   3.903   1.608   0.295 -1.1643 -1.6742 -1.6655
 1895TIP3    H227177   3.995   1.510   0.365 -0.6830 -0.2300 -0.2018
 1896TIP3   OH227178   2.528   2.049   3.937 -0.2939  0.2537  0.1770
 1896TIP3    H127179   2.593   1.981   3.952 -1.6530 -0.9607  0.7356
 1896TIP3    H227180   2.555   2.089   3.854  2.4857  1.4015  1.4877
 1897TIP3   OH227181   3.107   2.883  14.212 -0.4543 -0.2262  0.6994
 1897TIP3    H127182   3.124   2.910  14.121  0.4691 -2.4274  0.1500
 1897TIP3    H227183   3.176   2.926  14.263 -0.1731 -0.0170  0.1542
 1898TIP3   OH227184   4.283   4.502   3.319 -0.4782  0.2064  0.0717
 1898TIP3    H127185   4.244   4.444   3.253  0.6997  0.0194 -0.4743
 1898TIP3    H227186   4.270   4.590   3.284 -0.8920  0.1831  0.1592
 1899TIP3   OH227187   6.449   2.517  12.175 -0.2149  0.4369 -0.0630
 1899TIP3    H127188   6.444   2.428  12.140 -0.0054  0.5640 -0.4081
 1899TIP3    H227189   6.367   2.527  12.223 -0.6122  0.3513 -0.7152
 1900TIP3   OH227190   5.886   2.700   4.926 -0.4203  0.3976 -0.0233
 1900TIP3    H127191   5.833   2.778   4.906 -0.4809  0.2023 -0.6164
 1900TIP3    H227192   5.970   2.736   4.956  0.3945  0.7086 -2.5007
 1901TIP3   OH227193   5.145   5.121   4.840  0.3788 -0.2573 -0.1966
 1901TIP3    H127194   5.237   5.148   4.847  0.2763  0.2689 -0.7976
 1901TIP3    H227195   5.137   5.050   4.903  1.6490 -1.5139 -1.3847
 1902TIP3   OH227196   0.598   1.731  16.017 -0.1637 -0.1244 -0.2935
 1902TIP3    H127197   0.574   1.639  16.024  0.8753 -0.4833 -1.0708
 1902TIP3    H227198   0.533   1.769  15.958 -0.2954 -0.4807 -0.3779
 1903TIP3   OH227199   3.989   4.734  16.191  0.1364  0.1222 -0.4327
 1903TIP3    H127200   4.015   4.722  16.282  1.1297 -0.0944 -0.7347
 1903TIP3    H227201   4.060   4.786  16.153  0.3865 -0.9109 -1.4067
 1904TIP3   OH227202   3.085   2.248  14.055  0.4144 -0.6886  0.3809
 1904TIP3    H127203   3.149   2.290  14.113  0.5281 -3.2098  2.2269
 1904TIP3    H227204   3.021   2.317  14.037  2.2929  1.1871  0.5204
 1905TIP3   OH227205   0.976   0.022  13.898 -0.1905  0.2917  0.0499
 1905TIP3    H127206   1.067  -0.007  13.904 -0.1719 -0.2657 -2.0486
 1905TIP3    H227207   0.975   0.082  13.823 -1.4871  0.5259  0.2257
 1906TIP3   OH227208   3.934   1.255  16.955 -0.4087  0.2123  0.0990
 1906TIP3    H127209   3.864   1.231  16.894  0.0604  0.0366 -0.3837
 1906TIP3    H227210   3.988   1.318  16.906 -0.6748  0.9642  0.7498
 1907TIP3   OH227211   5.625   1.739  12.812 -0.2578  0.6224  0.7753
 1907TIP3    H127212   5.601   1.653  12.777  1.8260  0.2519  0.1455
 1907TIP3    H227213   5.581   1.802  12.755 -0.2636 -0.0167  0.0713
 1908TIP3   OH227214   0.835   2.331  12.129 -0.6183 -0.0007  0.7452
 1908TIP3    H127215   0.793   2.389  12.064  0.5149  0.5083  0.4460
 1908TIP3    H227216   0.881   2.390  12.188 -1.2040 -0.4986  1.7243
 1909TIP3   OH227217   4.663   4.492   3.142  0.4923  0.6852  0.2216
 1909TIP3    H127218   4.587   4.530   3.098  1.9573  2.0719 -1.2493
 1909TIP3    H227219   4.629   4.462   3.227 -1.6383  1.3466 -0.3289
 1910TIP3   OH227220   6.565   0.813   1.215 -0.0252 -0.4698  0.5176
 1910TIP3    H127221   6.483   0.826   1.262 -0.9227  1.8012 -1.5153
 1910TIP3    H227222   6.588   0.899   1.181  2.8609 -1.1834  0.4078
 1911TIP3   OH227223   5.181   3.764  13.448  0.3019  0.0672 -0.6119
 1911TIP3    H127224   5.120   3.782  13.377 -0.4515 -1.5529 -0.4092
 1911TIP3    H227225   5.228   3.846  13.460 -1.6328  1.2971 -0.9639
 1912TIP3   OH227226   6.522   4.028   1.929 -0.3655 -0.0391 -0.6053
 1912TIP3    H127227   6.510   4.123   1.924 -1.9981 -0.1657  0.1990
 1912TIP3    H227228   6.591   4.016   1.995 -1.3082  0.5747  0.5340
 1913TIP3   OH227229   2.420   0.180   4.816  0.5740 -0.3722 -0.1762
 1913TIP3    H127230   2.404   0.252   4.755 -0.5950  0.0971  0.6401
 1913TIP3    H227231   2.376   0.104   4.777 -0.8885  0.1199  0.4204
 1914TIP3   OH227232   0.601   1.621  12.988  0.3788  0.3440 -0.1016
 1914TIP3    H127233   0.623   1.688  12.923 -0.9140  0.5100 -0.4007
 1914TIP3    H227234   0.549   1.557  12.940  0.2943 -0.0692  0.5289
 1915TIP3   OH227235   6.238   6.798   1.042  0.0044 -0.4620 -0.1453
 1915TIP3    H127236   6.330   6.823   1.041  0.5909 -2.3369  0.6535
 1915TIP3    H227237   6.193   6.872   1.082  1.6333 -0.7049  2.3557
 1916TIP3   OH227238   2.122   2.339   2.611 -0.5329  0.2843 -0.5631
 1916TIP3    H127239   2.217   2.331   2.623 -0.2686  2.3052 -0.9173
 1916TIP3    H227240   2.091   2.384   2.690 -0.8737  1.3192 -1.2597
 1917TIP3   OH227241   3.331   4.504  12.615 -0.1551  0.2417 -0.0913
 1917TIP3    H127242   3.391   4.480  12.545 -0.9723 -0.7037 -0.4866
 1917TIP3    H227243   3.251   4.532  12.571 -0.5621 -0.0371  0.4534
 1918TIP3   OH227244   3.044   3.429  15.095  0.4437 -0.2171  0.6806
 1918TIP3    H127245   3.120   3.415  15.039  0.8235 -0.9626  1.3483
 1918TIP3    H227246   2.980   3.471  15.039  1.3394  0.4105  0.0953
 1919TIP3   OH227247   4.243   1.861  14.880 -0.5938 -0.2950  0.3616
 1919TIP3    H127248   4.215   1.953  14.879 -0.8106 -0.3608  0.3002
 1919TIP3    H227249   4.195   1.820  14.808  0.5329 -0.1654 -0.4978
 1920TIP3   OH227250   2.649   6.279   4.787  0.1450  0.0139 -0.0328
 1920TIP3    H127251   2.624   6.272   4.695 -0.8843 -2.1900  0.3425
 1920TIP3    H227252   2.567   6.297   4.833  0.2876 -0.8928  0.6187
 1921TIP3   OH227253   0.810   2.167  11.008  0.7063  0.3157  0.4937
 1921TIP3    H127254   0.895   2.132  10.980 -0.1342 -0.8291 -0.8082
 1921TIP3    H227255   0.751   2.147  10.935 -0.6426  1.2755  1.2694
 1922TIP3   OH227256   2.102   1.874   0.096  0.2112 -0.6010 -0.1436
 1922TIP3    H127257   2.041   1.939   0.061 -0.5891 -1.5250 -0.5323
 1922TIP3    H227258   2.077   1.865   0.188 -1.2782 -2.0303 -0.6256
 1923TIP3   OH227259   0.897   5.121  16.835  0.5169 -0.2851  0.3959
 1923TIP3    H127260   0.905   5.172  16.754  0.9462  2.4516  2.0223
 1923TIP3    H227261   0.809   5.085  16.832  0.0722  0.7978 -0.7504
 1924TIP3   OH227262   6.496   2.790   3.684  0.5502  0.5267  0.2458
 1924TIP3    H127263   6.442   2.740   3.622  0.3250 -0.7047  1.3724
 1924TIP3    H227264   6.584   2.754   3.674  0.4266  0.0198  0.9282
 1925TIP3   OH227265   1.069   1.075   4.560  0.5817  0.3081  0.3862
 1925TIP3    H127266   1.053   1.137   4.631  1.2217  2.3861 -1.1748
 1925TIP3    H227267   0.982   1.044   4.535  0.1986  0.9301  0.9097
 1926TIP3   OH227268   6.144   4.558  13.227  0.1336 -0.0337  0.0350
 1926TIP3    H127269   6.084   4.486  13.206  2.2815 -2.0741  0.3543
 1926TIP3    H227270   6.174   4.589  13.141  0.7097 -0.9505 -0.1149
 1927TIP3   OH227271   2.255   6.761   4.356 -0.4339 -0.5811  0.1671
 1927TIP3    H127272   2.262   6.805   4.271  0.7385 -1.4577 -0.2315
 1927TIP3    H227273   2.315   6.809   4.413 -0.8270 -0.3111  0.3530
 1928TIP3   OH227274   5.519   2.912  17.046 -0.2432  0.1669 -0.2543
 1928TIP3    H127275   5.524   2.829  16.999 -0.3697 -1.1431  1.8832
 1928TIP3    H227276   5.598   2.959  17.022 -0.0930 -0.6358 -1.3910
 1929TIP3   OH227277   5.885   1.952   4.894  0.1494 -0.1178 -0.4670
 1929TIP3    H127278   5.919   1.917   4.812  2.0625 -0.2845  0.3582
 1929TIP3    H227279   5.873   1.876   4.950 -1.9764 -0.1022 -0.8327
 1930TIP3   OH227280   0.172   5.150   5.755  0.1535  0.6425  0.0083
 1930TIP3    H127281   0.226   5.080   5.718 -1.2448 -0.9580  0.7931
 1930TIP3    H227282   0.137   5.197   5.679 -0.8299 -1.1080 -0.6851
 1931TIP3   OH227283   3.448   0.481  17.146 -0.2636 -0.1473  0.2671
 1931TIP3    H127284   3.361   0.521  17.143 -0.0455  0.2964 -0.3521
 1931TIP3    H227285   3.442   0.406  17.087 -1.1222 -2.0072  2.5752
 1932TIP3   OH227286   1.220   0.851  14.602 -0.0818  0.8204 -0.5635
 1932TIP3    H127287   1.139   0.836  14.553  0.6213 -1.0482 -1.2406
 1932TIP3    H227288   1.281   0.784  14.569  1.1410  0.9699  1.2601
 1933TIP3   OH227289   4.167   4.316   5.156  0.7120 -0.0622 -0.2716
 1933TIP3    H127290   4.133   4.260   5.087  0.3824  0.1124 -0.2517
 1933TIP3    H227291   4.262   4.305   5.152  0.6371 -0.7741 -0.1348
 1934TIP3   OH227292   1.966   0.170   6.332  0.0583 -0.0740 -0.3561
 1934TIP3    H127293   1.894   0.113   6.360  0.0525  0.2640  0.3518
 1934TIP3    H227294   2.022   0.177   6.410  1.0143 -0.5677 -0.9826
 1935TIP3   OH227295   4.744   6.378  14.041  0.2042 -0.7796 -0.3245
 1935TIP3    H127296   4.730   6.293  13.998  0.8336 -2.1329  1.9481
 1935TIP3    H227297   4.840   6.385  14.049  0.1327 -0.1410 -0.0026
 1936TIP3   OH227298   3.186   2.215   3.355 -0.4684  0.0194  0.0995
 1936TIP3    H127299   3.206   2.295   3.403 -1.1280  0.0030  0.4128
 1936TIP3    H227300   3.113   2.240   3.298  0.1382 -0.0285 -0.7118
 1937TIP3   OH227301   2.356   1.084   2.046  0.0979 -0.1953 -0.1910
 1937TIP3    H127302   2.396   0.999   2.062 -2.7487 -1.9613 -1.6578
 1937TIP3    H227303   2.312   1.105   2.128  1.8751  0.5993  0.6182
 1938TIP3   OH227304   4.186   2.570  16.789  0.2722  0.1913  0.1718
 1938TIP3    H127305   4.220   2.485  16.762  0.6964  0.0972  0.9798
 1938TIP3    H227306   4.226   2.586  16.874  1.2330  1.8079 -0.5490
 1939TIP3   OH227307   1.171   6.687  12.656  0.9074  0.0052 -0.2306
 1939TIP3    H127308   1.080   6.718  12.662  0.4244 -1.4382  0.2222
 1939TIP3    H227309   1.170   6.626  12.582  2.1678  2.0320 -2.0470
 1940TIP3   OH227310   2.821   2.027  13.170 -0.0788 -0.1991  0.5058
 1940TIP3    H127311   2.827   2.109  13.122  1.8554  0.2651  1.4067
 1940TIP3    H227312   2.853   2.048  13.258 -0.0554 -1.7921  0.9214
 1941TIP3   OH227313   0.776   0.576   0.612  0.6086  0.0824  0.0202
 1941TIP3    H127314   0.837   0.566   0.540  0.1355  1.1342 -0.5535
 1941TIP3    H227315   0.700   0.524   0.586  0.1024  1.1212 -0.6629
 1942TIP3   OH227316   6.030   2.274  11.089 -0.4070 -0.0318 -0.0071
 1942TIP3    H127317   6.051   2.367  11.098 -0.1124  0.0596 -1.3481
 1942TIP3    H227318   5.937   2.268  11.109 -0.2308  0.3905  1.0062
 1943TIP3   OH227319   3.304   0.499   1.591  0.0207  0.1350 -0.0253
 1943TIP3    H127320   3.353   0.485   1.510  0.3058 -0.7124  0.2726
 1943TIP3    H227321   3.321   0.420   1.643  0.8588  1.1950  1.3912
 1944TIP3   OH227322   4.119   2.737   6.188 -0.0916 -0.0587 -0.6327
 1944TIP3    H127323   4.025   2.742   6.200 -0.0509  1.8843 -0.6636
 1944TIP3    H227324   4.138   2.802   6.119  1.2512 -0.4165 -0.6395
 1945TIP3   OH227325   4.937   4.676   0.168 -0.2375  0.4185  0.4702
 1945TIP3    H127326   4.966   4.587   0.190  0.8323  0.5661 -0.2667
 1945TIP3    H227327   4.847   4.681   0.201 -0.8643 -1.4532 -0.7738
 1946TIP3   OH227328   2.442   2.121  14.696 -0.4819  0.0141 -0.0446
 1946TIP3    H127329   2.451   2.214  14.719 -0.3160  0.1347 -0.5787
 1946TIP3    H227330   2.411   2.122  14.605 -1.4658 -0.4471  0.2746
 1947TIP3   OH227331   2.583   4.349  13.424  0.3760 -0.6722  0.1627
 1947TIP3    H127332   2.584   4.336  13.519 -2.0409 -1.3766  0.1690
 1947TIP3    H227333   2.504   4.400  13.408  0.6797 -0.6756 -1.4829
 1948TIP3   OH227334   0.752   3.149  16.783 -0.5368 -0.1843  0.1591
 1948TIP3    H127335   0.843   3.122  16.768 -1.0935 -2.9340  1.0673
 1948TIP3    H227336   0.754   3.194  16.868  0.4379  2.9937 -1.4181
 1949TIP3   OH227337   2.427   3.625   5.446 -0.0158  0.2504 -0.1303
 1949TIP3    H127338   2.352   3.661   5.494 -0.0088  0.3406 -0.1872
 1949TIP3    H227339   2.408   3.643   5.354  0.2978  0.6906 -0.1131
 1950TIP3   OH227340   0.607   1.550  15.257  0.1517  0.0591 -0.2163
 1950TIP3    H127341   0.527   1.581  15.214 -0.2939  1.2346  1.3554
 1950TIP3    H227342   0.591   1.457  15.273 -0.3289 -0.0249 -1.1019
 1951TIP3   OH227343   4.469   3.423  12.933  1.0801  0.4389  0.0026
 1951TIP3    H127344   4.536   3.356  12.944 -0.3598 -1.5843 -2.5476
 1951TIP3    H227345   4.490   3.464  12.849  0.2579  1.1811  0.1466
 1952TIP3   OH227346   5.528   4.673  13.212 -0.3894  0.6577 -0.3743
 1952TIP3    H127347   5.469   4.666  13.136  0.3609  0.4654 -0.9555
 1952TIP3    H227348   5.509   4.595  13.264 -1.1203  0.9405 -0.2000
 1953TIP3   OH227349   3.809   5.920  12.528 -0.0329  0.3387  0.5577
 1953TIP3    H127350   3.755   5.980  12.580 -0.4492  1.3483 -0.9660
 1953TIP3    H227351   3.798   5.950  12.438  1.9623 -0.3157  0.0436
 1954TIP3   OH227352   0.064   1.346  13.044 -0.3627  1.1062  0.1002
 1954TIP3    H127353   0.135   1.410  13.043 -0.6301  1.4236  0.6927
 1954TIP3    H227354   0.019   1.359  12.961  0.7273  0.3747 -0.6144
 1955TIP3   OH227355   0.967   4.279  10.843  0.0272 -0.3410  0.8434
 1955TIP3    H127356   1.008   4.365  10.831 -1.6397  0.1640 -2.7140
 1955TIP3    H227357   1.037   4.216  10.827  0.3371  0.4861 -1.5045
 1956TIP3   OH227358   3.346   6.109   0.723 -0.3731  0.2662  0.3055
 1956TIP3    H127359   3.379   6.152   0.802 -1.1589  1.6799 -0.1149
 1956TIP3    H227360   3.272   6.056   0.754 -1.3829  1.6807  0.3798
 1957TIP3   OH227361   0.841   5.196   5.117 -0.7017 -0.1048 -0.6998
 1957TIP3    H127362   0.878   5.231   5.198  0.3846 -2.0144 -0.3227
 1957TIP3    H227363   0.776   5.261   5.091 -1.3011  0.4516  1.8660
 1958TIP3   OH227364   4.514   0.180  13.445 -0.2305  0.0185 -0.2745
 1958TIP3    H127365   4.530   0.105  13.387 -0.7697 -0.5533  0.3105
 1958TIP3    H227366   4.569   0.250  13.409  2.0693 -1.2917  0.5035
 1959TIP3   OH227367   3.287   3.137  12.391 -0.0504  0.4217 -0.2912
 1959TIP3    H127368   3.322   3.055  12.424  0.0364  0.6512  0.1875
 1959TIP3    H227369   3.293   3.198  12.464  1.9953  1.4992 -1.2668
 1960TIP3   OH227370   3.506   4.489   3.772  0.1337 -0.4386  0.4659
 1960TIP3    H127371   3.547   4.559   3.720 -0.1372 -0.0193  0.8067
 1960TIP3    H227372   3.576   4.425   3.785  0.6778  0.2432  0.9874
 1961TIP3   OH227373   3.633   5.839   5.031  0.3274  0.1299  0.4052
 1961TIP3    H127374   3.573   5.874   4.966  0.6342 -0.7828 -0.4001
 1961TIP3    H227375   3.654   5.913   5.088 -2.5113  0.1947  1.5030
 1962TIP3   OH227376   4.536   1.407   0.977 -0.2360  0.3126 -0.2364
 1962TIP3    H127377   4.581   1.452   1.049  1.0422  1.3030 -1.5850
 1962TIP3    H227378   4.455   1.457   0.965 -0.2122  0.4545  0.1790
 1963TIP3   OH227379   3.607   2.157  15.008 -0.7452 -0.0468  0.1426
 1963TIP3    H127380   3.574   2.198  14.928  1.2649 -1.3066 -1.4269
 1963TIP3    H227381   3.589   2.063  14.996 -0.7489 -0.2162  1.3519
 1964TIP3   OH227382   2.407   5.772   5.681  0.4307 -0.4469  0.0407
 1964TIP3    H127383   2.410   5.865   5.702 -0.1846 -0.4798  0.2951
 1964TIP3    H227384   2.494   5.739   5.704 -0.1835 -0.4809  2.5631
 1965TIP3   OH227385   2.044   2.195  11.604  0.0731 -0.0443 -0.4360
 1965TIP3    H127386   2.108   2.164  11.539 -1.4321 -1.2838 -1.4128
 1965TIP3    H227387   2.093   2.197  11.686  1.4801 -0.5461 -1.2091
 1966TIP3   OH227388   6.395   2.922   6.351 -0.1691  0.2345  0.1414
 1966TIP3    H127389   6.303   2.910   6.329 -0.7101  1.5943  1.5172
 1966TIP3    H227390   6.399   3.007   6.395  1.4848 -0.4569  1.4697
 1967TIP3   OH227391   6.674   4.204   5.434  0.3137 -0.6103 -0.4600
 1967TIP3    H127392   6.580   4.212   5.452  0.2552  0.9384 -1.3030
 1967TIP3    H227393   6.715   4.272   5.488  0.7521 -0.1252 -1.3742
 1968TIP3   OH227394   3.295   6.351   3.971  0.9268  0.2676 -0.4157
 1968TIP3    H127395   3.240   6.298   3.914  2.6890  0.4348 -2.3687
 1968TIP3    H227396   3.297   6.438   3.930 -0.6066  1.4937  1.8645
 1969TIP3   OH227397   6.819   5.758   1.021 -0.4942 -0.0608  0.3505
 1969TIP3    H127398   6.789   5.742   1.110 -1.2041 -0.5651  0.0309
 1969TIP3    H227399   6.820   5.672   0.980 -2.3473  0.3960 -0.7772
 1970TIP3   OH227400   6.498   4.872  12.639  0.7900 -0.3576  0.2094
 1970TIP3    H127401   6.445   4.879  12.718  1.0824 -0.1942  0.3920
 1970TIP3    H227402   6.532   4.782  12.641  0.2876 -0.5577 -0.0595
 1971TIP3   OH227403   0.723   3.484  12.829  0.3742 -0.5379 -0.5422
 1971TIP3    H127404   0.693   3.408  12.879  2.9589 -0.5141  1.1818
 1971TIP3    H227405   0.782   3.448  12.763  0.2431 -0.1606 -0.8726
 1972TIP3   OH227406   5.358   4.193  13.154  0.0046 -0.1854  0.4011
 1972TIP3    H127407   5.302   4.257  13.111 -0.2452 -0.7371 -0.0897
 1972TIP3    H227408   5.404   4.149  13.083  1.7508  0.8707  0.8201
 1973TIP3   OH227409   2.645   0.187   5.615 -0.4329 -0.1432  0.0018
 1973TIP3    H127410   2.576   0.127   5.588 -1.7681 -0.1131  3.0314
 1973TIP3    H227411   2.705   0.134   5.667  0.0902  0.5197  0.0871
 1974TIP3   OH227412   2.327   4.276  15.199  0.1149  0.7286 -0.0531
 1974TIP3    H127413   2.366   4.198  15.238 -2.8370 -1.4241 -1.1294
 1974TIP3    H227414   2.384   4.348  15.228  0.9109 -1.2767  4.0273
 1975TIP3   OH227415   2.256   3.151  17.224  0.0816  0.1333  0.2171
 1975TIP3    H127416   2.230   3.060  17.209  1.7241 -0.5565  1.1569
 1975TIP3    H227417   2.208   3.177  17.303  0.7032 -0.4475  0.8030
 1976TIP3   OH227418   0.799   0.789  16.694  0.2355  0.8277  0.4891
 1976TIP3    H127419   0.894   0.798  16.698  0.1763  1.0526  3.2967
 1976TIP3    H227420   0.783   0.695  16.684  0.7820  0.5062  2.3901
 1977TIP3   OH227421   0.942   3.645   5.679  0.3574 -0.3900  0.0335
 1977TIP3    H127422   0.887   3.597   5.617 -0.4518 -0.6217  0.9154
 1977TIP3    H227423   0.968   3.579   5.744 -0.3867  0.2603  1.0046
 1978TIP3   OH227424   0.854   3.470  14.679  0.2107 -0.4380 -0.1130
 1978TIP3    H127425   0.784   3.475  14.614 -1.2117 -1.1897  1.2908
 1978TIP3    H227426   0.845   3.549  14.731  0.5290 -0.4428 -0.0470
 1979TIP3   OH227427   1.636   2.491  13.720  0.2443 -0.0468 -0.4499
 1979TIP3    H127428   1.674   2.410  13.754 -1.1383 -0.8568 -0.7596
 1979TIP3    H227429   1.676   2.502  13.633  2.5216  1.1418  0.6345
 1980TIP3   OH227430   0.540   3.345  13.546 -0.8451 -0.3964  0.4744
 1980TIP3    H127431   0.621   3.364  13.499 -1.0476 -1.1596 -0.2147
 1980TIP3    H227432   0.568   3.329  13.636 -0.1408 -1.2940  0.1101
 1981TIP3   OH227433   1.921   2.320  12.576  0.0934 -0.5584  0.2406
 1981TIP3    H127434   1.917   2.380  12.502  0.0532  1.7555  2.0233
 1981TIP3    H227435   2.014   2.314  12.598  0.0487 -0.7754  0.3814
 1982TIP3   OH227436   3.418   3.763  15.308  0.2836 -0.0229 -0.7915
 1982TIP3    H127437   3.512   3.751  15.293  0.7317  1.1053  0.8193
 1982TIP3    H227438   3.412   3.839  15.367 -1.7019  0.5324 -1.6061
 1983TIP3   OH227439   4.675   6.310   3.643 -0.6092  0.1763  0.1311
 1983TIP3    H127440   4.654   6.256   3.567 -0.1126 -0.2670  0.3022
 1983TIP3    H227441   4.606   6.291   3.706 -0.4444 -0.2557  0.1844
 1984TIP3   OH227442   2.360   5.050   2.807 -0.4698  0.2238 -0.6712
 1984TIP3    H127443   2.403   4.983   2.754 -3.2344 -0.1340 -2.6352
 1984TIP3    H227444   2.352   5.125   2.749  0.0815  1.3119  0.6157
 1985TIP3   OH227445   0.243   6.449   5.659  0.0885 -0.5954 -0.0081
 1985TIP3    H127446   0.265   6.463   5.567 -0.1551 -0.9991 -0.1286
 1985TIP3    H227447   0.249   6.536   5.699  3.1877 -0.8197  0.2491
 1986TIP3   OH227448   6.155   1.487  16.099 -0.0958 -0.1577 -0.1543
 1986TIP3    H127449   6.213   1.563  16.105  0.3012 -0.5406  1.2861
 1986TIP3    H227450   6.196   1.432  16.032 -2.2330  2.3264 -3.8836
 1987TIP3   OH227451   4.959   4.510   4.821 -0.3176  0.1440 -0.1462
 1987TIP3    H127452   4.880   4.514   4.767 -0.8215 -1.0399  0.4688
 1987TIP3    H227453   4.993   4.422   4.806  0.4365  0.3707  0.2163
 1988TIP3   OH227454   6.141   5.078  12.080 -0.1672 -0.3567 -0.1671
 1988TIP3    H127455   6.203   5.133  12.129 -0.8052 -1.1178  1.5636
 1988TIP3    H227456   6.126   5.002  12.137 -0.8203 -1.3772 -1.6392
 1989TIP3   OH227457   1.247   3.585  10.485 -0.5407  0.4427 -0.0387
 1989TIP3    H127458   1.206   3.592  10.571  0.0348 -0.6726  0.3473
 1989TIP3    H227459   1.341   3.586  10.503 -0.4135  0.0973 -0.6357
 1990TIP3   OH227460   3.947   3.649  16.458  0.1712  0.5541 -0.4702
 1990TIP3    H127461   3.911   3.614  16.376 -2.3330 -2.0934  1.5189
 1990TIP3    H227462   3.882   3.713  16.487 -0.4550 -0.5276  0.6677
 1991TIP3   OH227463   3.722   3.892  10.834  1.1690  0.2065 -0.0856
 1991TIP3    H127464   3.735   3.866  10.925  2.0715  0.8307 -0.0303
 1991TIP3    H227465   3.799   3.944  10.812  1.1097 -0.1738 -1.2969
 1992TIP3   OH227466   2.470   5.517   6.449 -0.1178  0.2771  0.0756
 1992TIP3    H127467   2.488   5.593   6.504  1.6951  1.2568 -1.7220
 1992TIP3    H227468   2.541   5.517   6.385 -1.2590 -1.7212 -1.2984
 1993TIP3   OH227469   3.865   5.892   1.585  0.0399  0.0566 -0.3639
 1993TIP3    H127470   3.828   5.805   1.600  0.3472 -0.0340 -0.1194
 1993TIP3    H227471   3.909   5.913   1.666 -1.8568  1.3730  0.3970
 1994TIP3   OH227472   2.425   6.603  11.747 -0.2588 -0.5234 -0.3431
 1994TIP3    H127473   2.362   6.651  11.801 -1.6579  0.7930 -2.9528
 1994TIP3    H227474   2.511   6.630  11.781 -1.0495 -0.8315  2.0333
 1995TIP3   OH227475   3.076   3.147   2.217  0.2218  0.2047 -0.4774
 1995TIP3    H127476   3.163   3.117   2.191  0.5243  0.3218  0.3501
 1995TIP3    H227477   3.027   3.066   2.232 -0.0232  0.1379 -1.5892
 1996TIP3   OH227478   3.934   1.609   4.590 -0.1009  0.1278 -0.2789
 1996TIP3    H127479   3.895   1.523   4.575 -0.9786  0.3111  0.7875
 1996TIP3    H227480   4.017   1.591   4.633 -0.2671 -0.1920 -0.0906
 1997TIP3   OH227481   4.078   4.313   6.099 -0.0553  0.5686  0.0076
 1997TIP3    H127482   4.000   4.261   6.119  0.7104 -0.0362  1.5406
 1997TIP3    H227483   4.130   4.256   6.043  1.8375 -1.4397  3.4502
 1998TIP3   OH227484   2.574   0.602   2.908 -0.1078  0.5439  0.0023
 1998TIP3    H127485   2.570   0.683   2.959 -0.9095 -0.2183  1.1946
 1998TIP3    H227486   2.602   0.535   2.971 -2.4965 -0.7051 -0.1414
 1999TIP3   OH227487   4.433   1.444  17.258 -0.1689 -0.4387  0.1904
 1999TIP3    H127488   4.373   1.386  17.305 -0.3944  0.3083  0.8572
 1999TIP3    H227489   4.427   1.416  17.166 -1.4159 -0.4919  0.2669
 2000TIP3   OH227490   4.919   4.067  16.989  0.1546  0.3832  0.1685
 2000TIP3    H127491   4.982   4.039  17.056 -0.6337  0.1655  0.8407
 2000TIP3    H227492   4.971   4.076  16.909  1.0802  0.4620  0.7673
 2001TIP3   OH227493   2.047   6.632  14.214  0.0591 -0.1594 -0.0464
 2001TIP3    H127494   1.976   6.568  14.224  0.0713 -0.1537  0.0883
 2001TIP3    H227495   2.116   6.601  14.273  0.3495 -0.4106 -0.5165
 2002TIP3   OH227496   4.180   0.996  13.534 -1.0916  0.2535 -0.1082
 2002TIP3    H127497   4.187   1.070  13.594 -1.0510  1.0013 -1.0254
 2002TIP3    H227498   4.168   1.035  13.448  1.1261 -0.7296 -0.9545
 2003TIP3   OH227499   1.273   4.846  17.143 -0.0723  0.2662  0.3812
 2003TIP3    H127500   1.260   4.751  17.152  0.6272 -0.1152 -1.9226
 2003TIP3    H227501   1.298   4.875  17.231  1.1719 -1.9541  0.8515
 2004TIP3   OH227502   1.164   5.335   6.085  0.2759 -0.0707  0.2482
 2004TIP3    H127503   1.193   5.252   6.047  1.2231  0.5764 -0.4987
 2004TIP3    H227504   1.095   5.366   6.025 -1.0227 -0.9414  1.2593
 2005TIP3   OH227505   5.524   2.956   6.256 -0.1536 -0.1557 -0.6590
 2005TIP3    H127506   5.618   2.955   6.272 -0.3321  0.1790  0.5496
 2005TIP3    H227507   5.515   2.975   6.163  0.9586  0.8763 -0.5723
 2006TIP3   OH227508   0.732   3.971  11.551  0.4878 -0.8452  0.3070
 2006TIP3    H127509   0.641   3.996  11.567  0.4654 -1.3432  1.0069
 2006TIP3    H227510   0.783   4.027  11.611  0.5609 -1.2922  0.6658
 2007TIP3   OH227511   3.129   1.358  17.178  0.1892  0.2058  0.1842
 2007TIP3    H127512   3.104   1.272  17.144  0.6938  0.7287 -1.6301
 2007TIP3    H227513   3.058   1.416  17.151  0.0838  0.4493  0.9740
 2008TIP3   OH227514   5.322   0.311   1.452  0.1710 -0.0506 -0.7617
 2008TIP3    H127515   5.351   0.337   1.364  0.7340 -0.2472 -0.6365
 2008TIP3    H227516   5.368   0.228   1.469 -1.8261 -1.3433 -1.2906
 2009TIP3   OH227517   4.793   1.112  15.281 -0.3914  0.0071 -0.4076
 2009TIP3    H127518   4.753   1.064  15.209 -2.5696  0.4083  0.4689
 2009TIP3    H227519   4.827   1.192  15.241 -1.2037  0.0319 -1.0553
 2010TIP3   OH227520   3.663   5.803   2.564 -0.0845 -0.3735 -0.2476
 2010TIP3    H127521   3.737   5.744   2.551  0.1722  0.0792 -0.9248
 2010TIP3    H227522   3.702   5.882   2.601 -0.3647 -0.4726  0.2617
 2011TIP3   OH227523   2.399   6.790  14.960  0.1255 -0.2849  0.1192
 2011TIP3    H127524   2.476   6.738  14.983  0.5489  0.3931  0.2651
 2011TIP3    H227525   2.381   6.842  15.038  0.8823  1.2004 -0.6704
 2012TIP3   OH227526   5.582   4.949  12.114 -0.5416 -0.2485 -0.3230
 2012TIP3    H127527   5.574   4.874  12.054 -0.6921 -0.8995  0.4824
 2012TIP3    H227528   5.525   5.016  12.076  2.2160  0.8351 -2.9932
 2013TIP3   OH227529   1.610   3.974  14.154  0.1059  0.6424 -0.5599
 2013TIP3    H127530   1.705   3.981  14.144  0.0139  1.2174 -1.1345
 2013TIP3    H227531   1.588   3.888  14.119  0.5224  0.0934  0.4900
 2014TIP3   OH227532   1.504   3.159  16.235 -0.5569 -0.0554 -0.0697
 2014TIP3    H127533   1.464   3.199  16.157  0.0573 -0.3206 -0.5250
 2014TIP3    H227534   1.569   3.223  16.264 -1.6938  0.6504  1.0298
 2015TIP3   OH227535   4.376   2.667   4.591 -0.0266 -0.7045 -0.0443
 2015TIP3    H127536   4.318   2.706   4.525 -0.2923 -1.1043 -0.0495
 2015TIP3    H227537   4.331   2.588   4.619  1.0288 -1.6365 -0.8782
 2016TIP3   OH227538   2.118   0.823  11.688 -0.2095  0.0073  0.1724
 2016TIP3    H127539   2.196   0.834  11.743 -0.2287  0.8346  0.0526
 2016TIP3    H227540   2.136   0.745  11.637  1.2839  1.0574 -1.0069
 2017TIP3   OH227541   1.593   4.324  16.324  0.0923 -0.7151  0.0575
 2017TIP3    H127542   1.576   4.243  16.278 -1.8298 -0.9674  1.1010
 2017TIP3    H227543   1.527   4.385  16.291  1.2186  0.3000 -0.3801
 2018TIP3   OH227544   2.118   5.186   3.598  0.1803 -0.4573 -0.4194
 2018TIP3    H127545   2.184   5.124   3.567  1.8959  0.7651  0.6143
 2018TIP3    H227546   2.070   5.138   3.665  0.8943 -0.9802 -0.2685
 2019TIP3   OH227547   5.217   6.091   4.906  0.2649  0.0042 -0.1384
 2019TIP3    H127548   5.131   6.080   4.866 -0.2578  0.1955  0.8849
 2019TIP3    H227549   5.213   6.178   4.947  2.0577  1.4289 -2.6802
 2020TIP3   OH227550   1.046   5.797  11.462 -0.5167 -0.1038 -0.0267
 2020TIP3    H127551   0.967   5.750  11.487 -0.3440 -1.4280 -1.7330
 2020TIP3    H227552   1.021   5.889  11.463 -1.6410 -0.4001  0.8809
 2021TIP3   OH227553   1.596   0.266   4.325  0.2945  0.0811 -0.4480
 2021TIP3    H127554   1.681   0.224   4.338  1.1599  2.1085  1.1004
 2021TIP3    H227555   1.579   0.259   4.231  1.0745 -2.2902 -0.4630
 2022TIP3   OH227556   1.714   1.118   5.202 -0.1966  0.0383 -0.4393
 2022TIP3    H127557   1.785   1.060   5.173 -1.0703 -1.0876 -0.3659
 2022TIP3    H227558   1.640   1.095   5.146 -0.6101  0.9896 -0.3017
 2023TIP3   OH227559   2.957   0.098  13.615 -0.0709 -0.1370  0.1457
 2023TIP3    H127560   2.877   0.134  13.577 -1.1875 -2.0656  0.5344
 2023TIP3    H227561   3.023   0.108  13.547 -1.6681 -2.2074 -1.8849
 2024TIP3   OH227562   0.199   3.897   4.702  0.4238 -0.4673  0.1963
 2024TIP3    H127563   0.186   3.821   4.759  0.3065 -0.7550 -0.2087
 2024TIP3    H227564   0.131   3.888   4.635 -1.2853  1.3356  1.5359
 2025TIP3   OH227565   4.257   5.542   4.296  0.2443  0.3106 -0.3041
 2025TIP3    H127566   4.197   5.616   4.301  1.9755  1.7686 -0.2584
 2025TIP3    H227567   4.285   5.539   4.204 -2.0350 -2.2071 -1.0454
 2026TIP3   OH227568   6.408   0.916  12.150 -0.0553 -0.3494 -0.1148
 2026TIP3    H127569   6.363   0.973  12.212  1.0708 -0.7509  1.1067
 2026TIP3    H227570   6.495   0.903  12.188  0.4819 -1.0344 -1.5229
 2027TIP3   OH227571   0.990   1.301   4.333 -0.1802  0.2217  0.5202
 2027TIP3    H127572   0.990   1.359   4.257 -1.1440  2.1089  1.8776
 2027TIP3    H227573   0.922   1.236   4.313  0.4611 -0.1016 -0.7355
 2028TIP3   OH227574   4.420   2.522   6.447 -0.8321 -0.8382  0.3839
 2028TIP3    H127575   4.410   2.428   6.460 -0.6125 -1.0469 -0.8881
 2028TIP3    H227576   4.333   2.558   6.468 -0.9325 -1.3185  0.8237
 2029TIP3   OH227577   6.805   5.322   5.598  0.1489 -0.5961 -0.1151
 2029TIP3    H127578   6.790   5.416   5.614  0.8327 -0.4519 -0.2742
 2029TIP3    H227579   6.730   5.279   5.637  0.2540 -0.0336  0.7320
 2030TIP3   OH227580   4.021   2.304   1.431 -0.1683  0.6181  0.1073
 2030TIP3    H127581   4.070   2.234   1.388  0.1991  1.3764 -0.7584
 2030TIP3    H227582   3.983   2.263   1.508 -0.3115 -0.6333 -0.5987
 2031TIP3   OH227583   0.998   0.662   2.336 -0.5868  0.7808 -0.0724
 2031TIP3    H127584   1.015   0.673   2.243 -0.3833  1.8540  0.0762
 2031TIP3    H227585   0.907   0.636   2.341 -0.5697  0.6148 -0.5748
 2032TIP3   OH227586   6.101   0.125   0.494  0.1804 -0.2278 -0.1429
 2032TIP3    H127587   6.014   0.095   0.518  0.4398 -1.5493 -0.7492
 2032TIP3    H227588   6.099   0.219   0.510 -1.9411  0.0911 -1.8031
 2033TIP3   OH227589   1.337   0.155   0.700 -0.3798  0.2055  0.2975
 2033TIP3    H127590   1.367   0.100   0.773 -0.6511  0.6187  0.7268
 2033TIP3    H227591   1.259   0.110   0.667 -2.3360  1.7531  2.4892
 2034TIP3   OH227592   3.597   1.399  13.354 -0.1640  0.0582  0.3604
 2034TIP3    H127593   3.628   1.442  13.274  1.3699  1.1521  1.4790
 2034TIP3    H227594   3.622   1.308  13.343  2.7865  0.7046  0.7631
 2035TIP3   OH227595   6.803   5.482   1.134  0.2460 -0.5997 -0.1617
 2035TIP3    H127596   6.711   5.479   1.106  0.2002 -1.6701  0.0382
 2035TIP3    H227597   6.799   5.503   1.227  0.1585 -1.2138 -0.0195
 2036TIP3   OH227598   5.611   5.216   4.601 -0.0810  0.1513 -0.0844
 2036TIP3    H127599   5.638   5.131   4.637  0.6817  0.5767  0.3599
 2036TIP3    H227600   5.670   5.231   4.527  0.8635  1.0304  0.8211
 2037TIP3   OH227601   0.809   5.719  11.756  0.6264 -0.0093  0.6403
 2037TIP3    H127602   0.780   5.810  11.764 -3.7253 -0.9327 -1.1669
 2037TIP3    H227603   0.758   5.672  11.822 -0.8334 -1.5933 -1.4718
 2038TIP3   OH227604   1.384   0.827  15.312  0.6888 -0.6166 -0.1882
 2038TIP3    H127605   1.290   0.807  15.310 -0.0068  1.9086  1.4610
 2038TIP3    H227606   1.404   0.858  15.224 -0.1584 -0.7916 -0.4490
 2039TIP3   OH227607   3.731   6.119   1.188 -0.0670  0.0577  0.0549
 2039TIP3    H127608   3.749   6.027   1.210 -1.4712 -0.3620 -0.4225
 2039TIP3    H227609   3.757   6.168   1.266 -2.1032 -1.0730  1.5408
 2040TIP3   OH227610   0.551   0.132   2.854 -0.3725 -0.0762  0.1949
 2040TIP3    H127611   0.462   0.114   2.885 -0.8097  2.4660  0.5713
 2040TIP3    H227612   0.607   0.113   2.929 -0.3213 -3.0753 -0.4506
 2041TIP3   OH227613   3.242   4.341   5.888  0.1866 -0.4392  0.2609
 2041TIP3    H127614   3.332   4.311   5.902 -0.8531 -2.8090  2.5421
 2041TIP3    H227615   3.198   4.269   5.844 -1.1715 -0.3090  1.3266
 2042TIP3   OH227616   6.416   0.958  11.882 -0.1001 -0.3907  0.4624
 2042TIP3    H127617   6.418   0.973  11.977 -0.3331  0.4094  0.3429
 2042TIP3    H227618   6.370   1.034  11.847  0.0629 -0.6447 -0.3051
 2043TIP3   OH227619   4.890   1.014   4.441 -0.6280 -0.3765  0.8120
 2043TIP3    H127620   4.866   1.022   4.348  0.2453  1.4021  0.6918
 2043TIP3    H227621   4.870   0.923   4.463 -1.0098 -0.7986 -1.0746
 2044TIP3   OH227622   0.028   5.525  15.627  0.1998  0.4623  0.0078
 2044TIP3    H127623   0.035   5.454  15.690  2.8336  0.8046  0.1808
 2044TIP3    H227624  -0.067   5.542  15.621 -0.2136  0.3010  3.7260
 2045TIP3   OH227625   3.664   2.472   2.655 -0.6368  0.1930 -0.6344
 2045TIP3    H127626   3.630   2.389   2.621 -1.0397 -0.3386  0.9892
 2045TIP3    H227627   3.611   2.490   2.733 -0.3198  1.8076 -0.7513
 2046TIP3   OH227628   3.976   6.379  13.731 -0.2876  0.1641  0.0600
 2046TIP3    H127629   3.923   6.454  13.756 -2.7520 -1.5004  0.1488
 2046TIP3    H227630   4.027   6.410  13.656 -1.9315  1.6430 -0.5054
 2047TIP3   OH227631   4.067   2.686  13.363  0.0482 -0.7470 -0.8193
 2047TIP3    H127632   4.059   2.591  13.376  1.0885 -0.7340  0.0773
 2047TIP3    H227633   4.106   2.718  13.444 -2.8146  0.8742  0.0591
 2048TIP3   OH227634   3.079   2.358   6.005  0.0130 -0.0793 -0.1315
 2048TIP3    H127635   3.097   2.444   6.043  0.0415  0.0728 -0.4914
 2048TIP3    H227636   2.983   2.355   5.998 -0.0369 -0.3918  0.6153
 2049TIP3   OH227637   2.874   2.764  11.115 -0.8048  0.2588  0.0835
 2049TIP3    H127638   2.831   2.695  11.064  1.0829  0.8156 -2.4816
 2049TIP3    H227639   2.884   2.836  11.053  1.2703  1.1676  1.3662
 2050TIP3   OH227640   3.445   4.870  16.657 -0.0588 -0.4990 -0.6426
 2050TIP3    H127641   3.454   4.823  16.740 -0.6942  0.7484  0.1566
 2050TIP3    H227642   3.444   4.962  16.682 -0.8829 -0.1300 -1.9861
 2051TIP3   OH227643   1.104   0.803   2.749 -0.8149 -0.0648  0.0004
 2051TIP3    H127644   1.015   0.822   2.720 -0.6751  0.0620 -0.3586
 2051TIP3    H227645   1.132   0.730   2.695 -0.6864 -0.0761  0.0817
 2052TIP3   OH227646   1.841   6.257  10.879  0.3857  0.0693 -0.7304
 2052TIP3    H127647   1.879   6.217  10.800 -1.6553 -0.2957 -1.5817
 2052TIP3    H227648   1.760   6.208  10.894  0.3892  0.5753  1.2411
 2053TIP3   OH227649   6.819   5.674  15.391  0.7967  0.0111 -0.1051
 2053TIP3    H127650   6.871   5.674  15.311 -0.5923 -0.6433 -1.0509
 2053TIP3    H227651   6.862   5.610  15.448 -0.3489 -2.4895 -1.8610
 2054TIP3   OH227652   3.241   3.756  14.000  0.1630 -0.2292 -0.2576
 2054TIP3    H127653   3.157   3.783  13.962 -0.0133 -0.3427  0.0445
 2054TIP3    H227654   3.226   3.760  14.095  0.5277 -0.1640 -0.2026
 2055TIP3   OH227655   6.372   5.609   6.073 -0.4288  0.0680 -0.6262
 2055TIP3    H127656   6.421   5.613   6.155  0.0053  2.0549 -0.9350
 2055TIP3    H227657   6.427   5.556   6.015 -0.4126 -0.7713  0.1275
 2056TIP3   OH227658   6.142   6.410   5.446 -0.6191  0.1287  0.3433
 2056TIP3    H127659   6.189   6.341   5.400 -1.3647 -0.1508 -0.0086
 2056TIP3    H227660   6.094   6.365   5.516 -0.3955  0.4079  0.6806
 2057TIP3   OH227661   6.380   0.480  13.683  0.1555  0.0495 -0.3821
 2057TIP3    H127662   6.305   0.420  13.672  1.0976 -1.4882  1.0426
 2057TIP3    H227663   6.340   0.565  13.702 -1.2452 -0.6721  0.0625
 2058TIP3   OH227664   4.896   2.435  10.448  0.3465 -0.3705  0.1220
 2058TIP3    H127665   4.887   2.520  10.490  2.0775 -0.9684  1.8618
 2058TIP3    H227666   4.945   2.454  10.367  0.6632  0.3001  0.4610
 2059TIP3   OH227667   5.901   2.045  17.184 -0.2400  1.0923 -0.2082
 2059TIP3    H127668   5.828   2.096  17.220 -0.8786  1.1055 -1.4591
 2059TIP3    H227669   5.885   2.043  17.090  0.9319  0.3711 -0.4189
 2060TIP3   OH227670   2.036   3.847  14.889  0.2246 -0.4457  0.2860
 2060TIP3    H127671   2.124   3.872  14.862  0.0296 -0.4522 -0.3838
 2060TIP3    H227672   2.035   3.752  14.885  0.1328 -0.4384  0.0994
 2061TIP3   OH227673   1.020   1.635   3.294  0.5334  0.2704  0.0457
 2061TIP3    H127674   0.963   1.679   3.231  0.5923  2.5524  1.4775
 2061TIP3    H227675   1.102   1.684   3.290  0.7686  0.0239  1.3810
 2062TIP3   OH227676   1.236   2.063  16.997  0.5589 -0.0832  0.4413
 2062TIP3    H127677   1.166   2.006  16.966  0.8120 -1.5744  2.4215
 2062TIP3    H227678   1.315   2.031  16.953  0.3437  0.3327 -0.2763
 2063TIP3   OH227679   0.396   3.184  15.442  0.3104 -0.2130 -0.7399
 2063TIP3    H127680   0.378   3.174  15.535  0.9895  0.2775 -0.5522
 2063TIP3    H227681   0.457   3.113  15.421  0.9896  0.3193 -0.5742
 2064TIP3   OH227682   2.901   0.705  11.809 -0.0598  0.0019  0.8934
 2064TIP3    H127683   2.897   0.770  11.740 -2.0131  1.9182  2.6516
 2064TIP3    H227684   2.985   0.720  11.852 -0.9553  2.3331  2.0216
 2065TIP3   OH227685   5.160   0.146   4.648  0.4410  0.3920  0.1096
 2065TIP3    H127686   5.198   0.067   4.687  1.7714  0.2637 -1.3467
 2065TIP3    H227687   5.088   0.169   4.706  0.9730 -1.0250  1.4018
 2066TIP3   OH227688   1.215   1.811   5.441 -0.0352  0.3776 -0.6751
 2066TIP3    H127689   1.152   1.879   5.418 -0.5769  0.8834  1.9306
 2066TIP3    H227690   1.233   1.825   5.534  0.4857 -2.5347 -0.2191
 2067TIP3   OH227691   3.239   3.552  13.455  0.1314 -0.3665 -0.1089
 2067TIP3    H127692   3.188   3.630  13.477  1.1942  0.3565 -0.1145
 2067TIP3    H227693   3.330   3.580  13.462  0.5615 -1.8553  0.7902
 2068TIP3   OH227694   4.171   2.262   4.513 -0.2850  0.2788 -0.7490
 2068TIP3    H127695   4.094   2.227   4.467  0.4251 -1.9447 -0.3898
 2068TIP3    H227696   4.238   2.270   4.446 -0.3156  0.5010 -0.7513
 2069TIP3   OH227697   4.737   2.048  11.336 -0.2083 -0.1692 -0.2071
 2069TIP3    H127698   4.654   2.014  11.301 -0.2872 -0.9226  0.6640
 2069TIP3    H227699   4.801   2.027  11.268 -0.6571  0.0214 -0.6997
 2070TIP3   OH227700   4.467   4.409   0.470  0.2061  0.1813  0.7071
 2070TIP3    H127701   4.471   4.338   0.406  2.0870  1.5969 -0.8651
 2070TIP3    H227702   4.373   4.426   0.480 -0.1850 -0.7679 -0.8934
 2071TIP3   OH227703   4.191   5.548   5.315  0.3297  0.3837  0.3725
 2071TIP3    H127704   4.239   5.552   5.397 -0.6099 -1.3387  1.0638
 2071TIP3    H227705   4.256   5.521   5.250  1.1876  2.2502  0.4031
 2072TIP3   OH227706   6.202   4.568  15.724 -0.4758  0.0353 -0.3623
 2072TIP3    H127707   6.185   4.474  15.724 -2.2974  0.3206  1.1170
 2072TIP3    H227708   6.292   4.576  15.757 -0.2834 -1.1627 -0.5446
 2073TIP3   OH227709   6.543   5.869  15.151  0.1273 -0.6237 -0.0915
 2073TIP3    H127710   6.520   5.916  15.231 -1.9807  2.4344 -2.2800
 2073TIP3    H227711   6.627   5.905  15.125 -0.4812  0.4685 -0.6293
 2074TIP3   OH227712   2.894   2.009  11.773  0.0639  0.5950 -0.5034
 2074TIP3    H127713   2.891   1.990  11.679 -1.7592  0.2215 -0.4051
 2074TIP3    H227714   2.814   1.969  11.808  0.7307  0.6874  1.2221
 2075TIP3   OH227715   3.066   3.195   1.594 -0.1139 -0.0160  0.0540
 2075TIP3    H127716   3.105   3.282   1.587 -0.6754  0.2221 -0.1866
 2075TIP3    H227717   3.008   3.202   1.670 -0.4450 -0.0635 -0.1931
 2076TIP3   OH227718   5.210   4.853   4.339  0.8320  1.1854  0.5145
 2076TIP3    H127719   5.139   4.904   4.301 -0.9495 -1.1741  0.4318
 2076TIP3    H227720   5.190   4.848   4.433  1.4541  1.3214  0.6641
 2077TIP3   OH227721   5.094   4.449   0.230 -0.3140 -0.1425  0.4759
 2077TIP3    H127722   5.121   4.448   0.139 -3.8113 -1.0180 -0.7176
 2077TIP3    H227723   5.153   4.388   0.274  0.7822 -0.5221 -1.4172
 2078TIP3   OH227724   5.102   3.625   2.816  0.0926  1.0684 -0.2470
 2078TIP3    H127725   5.015   3.585   2.819  1.1520 -1.6060 -1.7617
 2078TIP3    H227726   5.143   3.599   2.898  0.4176 -0.2050 -0.7841
 2079TIP3   OH227727   6.705   5.878  12.304  0.1127 -0.6262 -0.1922
 2079TIP3    H127728   6.780   5.827  12.333  0.9547  0.6407 -0.0815
 2079TIP3    H227729   6.739   5.967  12.292 -1.3845 -0.0042 -0.0470
 2080TIP3   OH227730   2.812   1.886  11.366 -0.1359 -0.0320  0.0079
 2080TIP3    H127731   2.815   1.979  11.388 -1.3681  0.1926 -0.7039
 2080TIP3    H227732   2.756   1.846  11.432 -0.3065 -0.1161 -0.1854
 2081TIP3   OH227733   6.011   4.528   0.275  0.4210  0.4790 -0.4574
 2081TIP3    H127734   5.966   4.581   0.340 -0.3187 -1.9108  1.1021
 2081TIP3    H227735   5.942   4.496   0.217  0.7132  0.2992 -0.7154
 2082TIP3   OH227736   2.855   0.000   3.308 -0.3497  0.1557  0.6245
 2082TIP3    H127737   2.885  -0.081   3.268 -1.5771  0.1771 -0.3829
 2082TIP3    H227738   2.868   0.067   3.240 -0.2778  0.6321  1.0949
 2083TIP3   OH227739   6.260   2.041   0.741 -0.0392 -0.0333  0.5163
 2083TIP3    H127740   6.322   2.026   0.670  0.3237  0.0093  0.8223
 2083TIP3    H227741   6.272   2.133   0.764 -0.4074  0.0463  0.3988
 2084TIP3   OH227742   6.141   2.774  16.860 -0.6676 -0.5146 -0.1777
 2084TIP3    H127743   6.057   2.729  16.870  0.4949 -2.4226  1.9933
 2084TIP3    H227744   6.122   2.865  16.881 -2.0040 -1.1192  1.4527
 2085TIP3   OH227745   3.532   2.745   6.177 -0.7006 -0.1596 -0.3168
 2085TIP3    H127746   3.587   2.734   6.100 -1.9427 -2.0163 -1.0020
 2085TIP3    H227747   3.589   2.724   6.251 -0.3453 -1.5808 -0.9735
 2086TIP3   OH227748   4.697   1.415  13.682 -0.0849  0.5883 -0.5775
 2086TIP3    H127749   4.659   1.335  13.645 -0.0492  0.4933 -0.4080
 2086TIP3    H227750   4.626   1.454  13.733  0.1226  0.2695 -0.0379
 2087TIP3   OH227751   6.093   5.712   5.246  0.1379  0.1964 -0.1726
 2087TIP3    H127752   6.173   5.764   5.246  0.1905  0.1328 -0.8725
 2087TIP3    H227753   6.122   5.624   5.222 -0.2403  0.3670 -1.3390
 2088TIP3   OH227754   0.667   0.750   4.418 -0.3553  0.2236 -0.6991
 2088TIP3    H127755   0.719   0.735   4.339 -1.2122 -0.0709 -1.2176
 2088TIP3    H227756   0.581   0.776   4.386 -0.1375  2.2035  0.1549
 2089TIP3   OH227757   1.415   2.636  13.770  0.6398 -0.3900  0.2378
 2089TIP3    H127758   1.375   2.609  13.853  2.0989  0.5649  1.3113
 2089TIP3    H227759   1.480   2.569  13.751 -0.9222 -1.6072 -1.1813
 2090TIP3   OH227760   5.186   0.138  11.526 -0.2739  0.3443 -0.0487
 2090TIP3    H127761   5.208   0.107  11.438  0.4535 -0.0632  0.2637
 2090TIP3    H227762   5.223   0.226  11.530 -1.9734  1.1473 -0.7920
 2091TIP3   OH227763   5.658   5.565   5.899 -1.0195 -0.1010  0.4652
 2091TIP3    H127764   5.730   5.503   5.903 -0.9444 -0.3641 -2.6735
 2091TIP3    H227765   5.699   5.650   5.918 -0.1889 -0.4511  0.3002
 2092TIP3   OH227766   5.305   6.497  16.896  0.1288 -0.2388 -0.8627
 2092TIP3    H127767   5.318   6.479  16.803 -0.0138  1.4519 -1.2384
 2092TIP3    H227768   5.210   6.504  16.906  0.0910 -1.1305 -0.4184
 2093TIP3   OH227769   1.673   1.986   4.991  0.1258 -0.8989  0.0665
 2093TIP3    H127770   1.697   2.079   4.986 -1.0097 -0.5172  1.0927
 2093TIP3    H227771   1.726   1.952   5.063 -0.8410 -0.5526  0.9721
 2094TIP3   OH227772   5.271   5.102   2.136 -0.1921  0.1006  0.8423
 2094TIP3    H127773   5.246   5.175   2.079  1.3960 -0.2316 -0.3370
 2094TIP3    H227774   5.189   5.056   2.153 -0.7579  0.3442 -0.9960
 2095TIP3   OH227775   0.629   6.720  12.778 -0.0310  0.2845 -1.0602
 2095TIP3    H127776   0.642   6.685  12.866  1.3019  0.2552 -1.2441
 2095TIP3    H227777   0.538   6.750  12.777  0.2201  1.2501  0.6717
 2096TIP3   OH227778   0.077   4.488  13.217  0.5481 -0.3655 -0.2293
 2096TIP3    H127779   0.168   4.482  13.245  0.9939  0.0778 -1.5312
 2096TIP3    H227780   0.034   4.413  13.259  1.5251 -0.6479  0.2926
 2097TIP3   OH227781   1.550   5.272  13.720  0.8333 -0.2712  0.1596
 2097TIP3    H127782   1.460   5.304  13.716  0.4538 -1.3983 -1.7467
 2097TIP3    H227783   1.548   5.203  13.786  0.3212 -0.2111  0.2132
 2098TIP3   OH227784   3.458   1.756  17.000 -0.0229 -0.0309 -0.6016
 2098TIP3    H127785   3.539   1.704  16.992  0.4432  0.4198  0.7819
 2098TIP3    H227786   3.402   1.702  17.056 -0.0574  0.3573 -0.2621
 2099TIP3   OH227787   2.548   2.407  16.184 -0.1973  0.2347  0.2648
 2099TIP3    H127788   2.591   2.458  16.115  0.4222 -0.4772  0.1200
 2099TIP3    H227789   2.612   2.401  16.254  1.0797 -3.1143 -0.9964
 2100TIP3   OH227790   3.485   5.193  14.423  0.2831 -0.5344  0.2171
 2100TIP3    H127791   3.522   5.106  14.406  0.2816 -0.4396 -0.2975
 2100TIP3    H227792   3.469   5.195  14.517 -1.4052 -1.7755  0.0067
 2101TIP3   OH227793   5.177   2.867  13.311 -0.3425 -0.8001  0.6345
 2101TIP3    H127794   5.159   2.892  13.401  0.5208  2.4514  0.0432
 2101TIP3    H227795   5.092   2.866  13.268 -0.5301  0.2644  0.9503
 2102TIP3   OH227796   6.255   4.293  16.723 -0.2484 -0.0644 -0.1801
 2102TIP3    H127797   6.235   4.201  16.705 -0.0500 -0.1506  0.0440
 2102TIP3    H227798   6.314   4.319  16.652 -0.6246  0.0084 -0.4748
 2103TIP3   OH227799   0.851   4.171  12.261  0.4689  0.1492  0.6294
 2103TIP3    H127800   0.816   4.103  12.202  1.3240  0.9793 -0.9059
 2103TIP3    H227801   0.809   4.154  12.345 -1.4986 -0.5619 -0.4284
 2104TIP3   OH227802   0.916   1.234   0.652  0.0739  0.2060 -0.1236
 2104TIP3    H127803   0.970   1.160   0.622  2.3987  2.5236 -2.1813
 2104TIP3    H227804   0.828   1.214   0.619  0.7206 -1.4065 -1.0207
 2105TIP3   OH227805   1.013   1.582  12.455  0.3530  0.2195  0.2564
 2105TIP3    H127806   1.100   1.612  12.431  0.0460  1.5216  0.6809
 2105TIP3    H227807   0.954   1.646  12.414 -0.5982 -2.1533 -2.3974
 2106TIP3   OH227808   1.855   0.190  15.705  0.4516  0.1891  0.3549
 2106TIP3    H127809   1.926   0.167  15.764  1.1565  1.1334 -0.0935
 2106TIP3    H227810   1.866   0.284  15.690 -0.5075  0.2228 -0.2327
 2107TIP3   OH227811   4.533   1.897  11.840 -0.2875 -0.5738 -0.1274
 2107TIP3    H127812   4.485   1.828  11.795  0.5318 -0.3238 -1.4026
 2107TIP3    H227813   4.599   1.851  11.892 -1.6106 -0.8979  1.3664
 2108TIP3   OH227814   5.352   3.857  12.074  0.1276  0.0405  0.5025
 2108TIP3    H127815   5.342   3.810  12.157  0.1638 -0.3338  0.2952
 2108TIP3    H227816   5.349   3.949  12.099  0.3308 -0.0694  0.9458
 2109TIP3   OH227817   6.333   5.300  14.489 -0.4993 -0.3884 -0.5045
 2109TIP3    H127818   6.362   5.262  14.406  0.3495  0.0805 -0.4304
 2109TIP3    H227819   6.349   5.231  14.553 -1.6033 -0.9312 -0.7825
 2110TIP3   OH227820   4.217   2.715   0.399 -0.2052  0.2137 -0.2789
 2110TIP3    H127821   4.300   2.684   0.365 -0.3128 -1.3324  0.7856
 2110TIP3    H227822   4.241   2.770   0.474 -0.1450 -1.4521  0.9722
 2111TIP3   OH227823   3.905   2.814   1.695  0.1669 -0.6199 -0.2007
 2111TIP3    H127824   3.819   2.830   1.658  0.3088 -1.4249 -0.9162
 2111TIP3    H227825   3.966   2.857   1.635  0.2841 -0.2980  0.1453
 2112TIP3   OH227826   3.365   2.475   1.219 -0.2446  0.1921 -0.3677
 2112TIP3    H127827   3.392   2.526   1.142 -1.2443 -0.9072 -1.5033
 2112TIP3    H227828   3.325   2.539   1.277 -0.3452  0.9016 -1.1971
 2113TIP3   OH227829   3.805   0.275   0.789 -0.3956 -0.3719 -0.3031
 2113TIP3    H127830   3.876   0.251   0.729  0.7843  3.3515 -0.6474
 2113TIP3    H227831   3.805   0.206   0.855  3.6315 -0.5419 -0.2426
 2114TIP3   OH227832   6.000   5.907  17.127 -0.2148  0.4151 -0.6851
 2114TIP3    H127833   5.930   5.941  17.072  0.1271 -0.0589 -1.4332
 2114TIP3    H227834   6.001   5.813  17.109 -0.9896  0.0199  1.1659
 2115TIP3   OH227835   5.002   5.185   3.513  0.0106  0.2120 -0.7300
 2115TIP3    H127836   5.092   5.210   3.535 -0.6248  1.1052  1.0179
 2115TIP3    H227837   4.975   5.128   3.584  0.0265 -2.2806 -2.5850
 2116TIP3   OH227838   5.743   0.689   0.846 -0.4341  0.1266 -0.3873
 2116TIP3    H127839   5.761   0.628   0.917  2.6426  0.7735 -0.4785
 2116TIP3    H227840   5.684   0.753   0.884 -2.8349 -2.1821  0.0331
 2117TIP3   OH227841   0.761   2.059  14.617  0.1871 -0.4666  0.3547
 2117TIP3    H127842   0.679   2.013  14.602 -0.1535 -0.2169  1.3830
 2117TIP3    H227843   0.788   2.034  14.705  0.7830  0.1029  0.3473
 2118TIP3   OH227844   3.574   2.051  15.816 -0.1878  0.4355 -0.6835
 2118TIP3    H127845   3.486   2.030  15.786 -0.2560 -0.6259  0.1780
 2118TIP3    H227846   3.603   2.122  15.760 -2.2241  1.9641  0.1028
 2119TIP3   OH227847   4.870   6.410  13.758 -0.1489  0.7721 -0.1252
 2119TIP3    H127848   4.891   6.328  13.803 -0.3125  0.2121 -1.0318
 2119TIP3    H227849   4.774   6.415  13.761 -0.1716  0.6515 -0.5272
 2120TIP3   OH227850   6.053   3.463   6.635  0.0577  0.3098 -0.0782
 2120TIP3    H127851   6.073   3.539   6.691  0.9372  1.4782 -1.8900
 2120TIP3    H227852   6.068   3.494   6.546 -1.7530 -1.3606 -1.0397
 2121TIP3   OH227853   3.915   2.898   3.568  0.3924 -0.4784  0.0218
 2121TIP3    H127854   3.996   2.870   3.524  1.2522  1.5768  0.1616
 2121TIP3    H227855   3.909   2.991   3.548 -0.5890 -0.0412  2.1373
 2122TIP3   OH227856   5.406   2.240   2.795  0.5815  0.0243 -0.3488
 2122TIP3    H127857   5.461   2.198   2.861 -1.5391 -0.9159  0.9420
 2122TIP3    H227858   5.317   2.208   2.814 -0.7311  2.8879 -1.1140
 2123TIP3   OH227859   3.752   2.229   3.700 -0.0341 -0.0073  0.2555
 2123TIP3    H127860   3.708   2.313   3.696 -1.4457 -0.6572  1.4776
 2123TIP3    H227861   3.688   2.169   3.738  0.7605 -1.7633 -1.0365
 2124TIP3   OH227862   4.324   4.076  11.550  0.0519  0.0403 -0.3512
 2124TIP3    H127863   4.281   4.161  11.542 -0.9260 -0.2782  1.2120
 2124TIP3    H227864   4.373   4.067  11.468  2.2834  3.2153  0.4550
 2125TIP3   OH227865   0.531   2.375  12.778 -0.1712 -0.3789 -0.2320
 2125TIP3    H127866   0.602   2.388  12.841  0.1905  0.8562 -0.8582
 2125TIP3    H227867   0.572   2.386  12.692 -1.5116  2.8973 -0.5889
 2126TIP3   OH227868   2.518   5.074  13.561 -0.4574  0.5425 -0.0429
 2126TIP3    H127869   2.503   5.120  13.643  1.3060  1.4473 -0.1901
 2126TIP3    H227870   2.449   5.106  13.503  0.2822  2.5043  0.0811
 2127TIP3   OH227871   3.354   1.200   5.390  0.1822 -0.5539 -0.0919
 2127TIP3    H127872   3.393   1.153   5.316  0.7040 -0.4253  0.1029
 2127TIP3    H227873   3.282   1.250   5.350  0.6129 -0.2949 -0.5527
 2128TIP3   OH227874   0.345   3.493  11.570  0.4855 -0.1942 -0.1980
 2128TIP3    H127875   0.286   3.511  11.643  1.0466 -1.3019  0.5627
 2128TIP3    H227876   0.433   3.503  11.607  0.7806 -0.7501 -0.7293
 2129TIP3   OH227877   3.736   2.673   4.158 -0.1031 -0.1578  0.2285
 2129TIP3    H127878   3.736   2.636   4.246 -0.8679 -0.4786  0.0960
 2129TIP3    H227879   3.793   2.614   4.108  1.5271  0.8408  0.8249
 2130TIP3   OH227880   3.033   0.162  14.217  0.0642  0.7076  0.1955
 2130TIP3    H127881   3.095   0.127  14.153 -0.3174  0.4290 -0.0291
 2130TIP3    H227882   3.043   0.105  14.293 -0.4589  0.1817 -0.1194
 2131TIP3   OH227883   6.378   2.987  11.884 -0.4993  0.3810  0.0434
 2131TIP3    H127884   6.451   2.942  11.926  2.0397  3.5259 -0.6355
 2131TIP3    H227885   6.341   3.042  11.953  0.3381  1.6648 -0.4887
 2132TIP3   OH227886   5.130   4.962   2.835  0.4035  0.2275 -0.2318
 2132TIP3    H127887   5.048   4.997   2.802  1.1156  1.5019 -0.7067
 2132TIP3    H227888   5.109   4.929   2.923 -0.2579  2.1468  0.3823
 2133TIP3   OH227889   4.561   3.946  15.130 -0.2910 -0.1354 -0.7683
 2133TIP3    H127890   4.561   4.032  15.174 -0.2894 -1.5072  2.1408
 2133TIP3    H227891   4.500   3.957  15.057 -2.9719  1.4630  1.4784
 2134TIP3   OH227892   4.461   3.093  17.267  0.3110 -0.6045 -0.2290
 2134TIP3    H127893   4.492   3.018  17.317  1.7097 -0.6773 -1.1415
 2134TIP3    H227894   4.531   3.110  17.204 -1.3413 -0.5318 -2.1689
 2135TIP3   OH227895   3.663   1.302   1.496  0.2534 -0.2655 -0.5593
 2135TIP3    H127896   3.584   1.347   1.527  1.2506  0.9586  0.2944
 2135TIP3    H227897   3.719   1.373   1.464  1.0855 -1.1096 -1.0049
 2136TIP3   OH227898   5.959   2.652  11.208  0.4529  0.4522 -0.0292
 2136TIP3    H127899   5.994   2.646  11.296  0.5504  0.7160 -0.0496
 2136TIP3    H227900   5.865   2.666  11.220  0.1336 -1.4560  0.0229
 2137TIP3   OH227901   3.170   4.212   5.065 -0.3099 -0.0047 -0.2303
 2137TIP3    H127902   3.140   4.125   5.089  0.5934 -1.3292 -3.4892
 2137TIP3    H227903   3.265   4.205   5.061 -0.1300  1.4778  0.4630
 2138TIP3   OH227904   6.145   5.950  13.440  0.2015 -0.0603  0.2896
 2138TIP3    H127905   6.071   5.928  13.497  0.4886  0.6705  0.9655
 2138TIP3    H227906   6.211   5.884  13.460  0.1213 -0.0891  0.4626
 2139TIP3   OH227907   6.562   0.651  14.251  0.2575 -0.1166  0.2995
 2139TIP3    H127908   6.612   0.729  14.228 -2.6868  1.7207 -0.2890
 2139TIP3    H227909   6.554   0.603  14.168 -2.6666  1.9267 -0.7438
 2140TIP3   OH227910   5.551   4.040  11.034 -0.2971  0.2382  0.3285
 2140TIP3    H127911   5.573   4.130  11.058 -0.7830  1.4632 -3.2513
 2140TIP3    H227912   5.513   4.047  10.947 -0.1154 -3.5041 -0.2131
 2141TIP3   OH227913   5.336   6.040   5.943  0.3429 -0.3871  0.8531
 2141TIP3    H127914   5.372   6.022   5.857  1.8881 -2.0339  1.7675
 2141TIP3    H227915   5.299   5.956   5.971 -1.6608  0.5295  1.1593
 2142TIP3   OH227916   5.150   4.571   5.908 -0.4024  0.0694 -0.5036
 2142TIP3    H127917   5.160   4.627   5.830 -0.1286  2.7112  1.2905
 2142TIP3    H227918   5.232   4.584   5.957 -1.4332  0.2183  1.2441
 2143TIP3   OH227919   5.625   6.306  14.569 -0.6610 -0.7294 -0.1191
 2143TIP3    H127920   5.616   6.402  14.571  1.6660 -0.4263 -0.6435
 2143TIP3    H227921   5.553   6.276  14.514 -1.1885  0.7655 -0.2986
 2144TIP3   OH227922   1.006   2.288   1.827  0.3670  0.0626 -0.3609
 2144TIP3    H127923   0.919   2.288   1.785 -0.2185 -0.7018  0.8009
 2144TIP3    H227924   0.993   2.340   1.906  0.3223 -1.9743  1.0396
 2145TIP3   OH227925   4.581   1.241  16.309  0.1725  0.3943 -0.3165
 2145TIP3    H127926   4.601   1.284  16.226  1.6538  1.2022  0.4175
 2145TIP3    H227927   4.490   1.263  16.326  0.4473  1.9544 -0.7390
 2146TIP3   OH227928   6.132   2.839   6.346  0.2091 -0.6772 -0.0550
 2146TIP3    H127929   6.105   2.847   6.255 -1.2996 -0.9014  0.3320
 2146TIP3    H227930   6.070   2.895   6.394  2.1347  0.9408  0.6743
 2147TIP3   OH227931   5.522   0.514  15.514 -0.0658  1.0267  0.4056
 2147TIP3    H127932   5.530   0.418  15.511  1.1515  1.1210 -0.4608
 2147TIP3    H227933   5.504   0.534  15.606 -1.1434 -0.0723  0.4578
 2148TIP3   OH227934   4.504   6.389  13.122  0.3550 -0.1443 -0.3007
 2148TIP3    H127935   4.437   6.385  13.054  0.4725  0.8590 -0.4979
 2148TIP3    H227936   4.503   6.302  13.162 -0.5116 -0.3889 -0.8182
 2149TIP3   OH227937   0.434   0.388  14.507  0.6454 -0.1272 -0.3936
 2149TIP3    H127938   0.497   0.454  14.538 -1.0019  1.5105 -0.3701
 2149TIP3    H227939   0.450   0.312  14.563 -0.0956  1.6442  2.4445
 2150TIP3   OH227940   2.448   2.102  14.413 -0.1927  0.3283  0.0336
 2150TIP3    H127941   2.526   2.129  14.363 -0.5058 -0.0240 -0.6581
 2150TIP3    H227942   2.385   2.074  14.346 -0.0499 -1.6736  0.6656
 2151TIP3   OH227943   4.990   2.929  14.695 -0.6442 -0.5907 -0.2322
 2151TIP3    H127944   5.025   2.911  14.782 -0.7305 -1.2506 -0.3245
 2151TIP3    H227945   4.896   2.937  14.708 -0.6265 -0.3908 -0.2208
 2152TIP3   OH227946   5.704   3.895   2.909 -0.1895  0.1319 -0.2858
 2152TIP3    H127947   5.721   3.911   2.816  1.6907 -2.8394 -0.5836
 2152TIP3    H227948   5.767   3.827   2.933 -2.1224 -0.8128  2.5950
 2153TIP3   OH227949   5.516   4.556   6.487  0.2516  0.1465 -0.0585
 2153TIP3    H127950   5.602   4.598   6.487 -0.5734  1.9620  0.7231
 2153TIP3    H227951   5.461   4.613   6.542 -1.4816 -0.9015 -0.6025
 2154TIP3   OH227952   1.512   6.055   2.934 -0.1349  0.2859  0.2480
 2154TIP3    H127953   1.514   6.016   2.846  0.6088  0.2071  0.2946
 2154TIP3    H227954   1.566   6.134   2.926  3.1845 -1.6582  1.5130
 2155TIP3   OH227955   1.621   0.248  16.497  0.6351 -0.5046  0.8371
 2155TIP3    H127956   1.540   0.279  16.538 -0.2018  0.4444 -1.3882
 2155TIP3    H227957   1.657   0.326  16.454  1.9483 -1.2445  0.5433
 2156TIP3   OH227958   6.219   2.142   5.758 -0.2994 -0.2582 -0.0765
 2156TIP3    H127959   6.173   2.191   5.691 -1.7064  0.7651  1.5551
 2156TIP3    H227960   6.310   2.170   5.750 -0.1910 -1.0435 -2.2632
 2157TIP3   OH227961   1.384   0.122   1.223  0.4371 -0.4487 -0.3349
 2157TIP3    H127962   1.448   0.184   1.189  1.2168 -0.5406  0.8846
 2157TIP3    H227963   1.321   0.111   1.152  0.2144  1.7993 -0.5754
 2158TIP3   OH227964   2.102   0.855  16.149  0.2097  0.1092  0.7270
 2158TIP3    H127965   2.100   0.908  16.069  0.1620 -0.6024  0.2499
 2158TIP3    H227966   2.195   0.844  16.169  0.2251  1.4769  1.5946
 2159TIP3   OH227967   3.843   1.405   5.238  0.8698  0.0922  0.3847
 2159TIP3    H127968   3.801   1.421   5.154  0.8162 -0.9803  0.1916
 2159TIP3    H227969   3.780   1.354   5.288  1.2244  0.0299  0.7786
 2160TIP3   OH227970   4.637   5.420  14.641  0.3476 -0.1017  0.0543
 2160TIP3    H127971   4.675   5.506  14.659 -0.8220  0.9835 -2.2864
 2160TIP3    H227972   4.560   5.438  14.588 -1.2757 -2.4876  1.3974
 2161TIP3   OH227973   1.334   1.036  13.890  0.0159 -0.7704  0.1915
 2161TIP3    H127974   1.349   1.038  13.796  1.0122 -0.9785  0.3338
 2161TIP3    H227975   1.419   1.057  13.929 -0.6881  0.7158  1.0404
 2162TIP3   OH227976   0.097   1.567  17.207 -0.4320 -0.6604 -0.5955
 2162TIP3    H127977   0.005   1.543  17.217  0.1742 -2.3131  1.8086
 2162TIP3    H227978   0.101   1.609  17.121 -3.1916 -1.6082 -1.3075
 2163TIP3   OH227979   1.191   6.597  14.649  0.2297 -0.1414  0.0926
 2163TIP3    H127980   1.123   6.539  14.614  1.1843 -1.7492  0.7976
 2163TIP3    H227981   1.147   6.646  14.718 -0.3489 -0.8059  0.2058
 2164TIP3   OH227982   0.403   0.801   3.735 -0.1505 -0.2658 -0.2151
 2164TIP3    H127983   0.450   0.797   3.818  1.7892 -0.3357 -1.2543
 2164TIP3    H227984   0.311   0.802   3.759  0.3114 -1.7082  1.8856
 2165TIP3   OH227985   4.078   6.380  12.063 -0.6360  0.3033  0.1836
 2165TIP3    H127986   4.044   6.428  12.139 -1.7454  0.4355 -0.3818
 2165TIP3    H227987   4.047   6.291  12.075 -0.9471  0.3613 -0.2035
 2166TIP3   OH227988   6.761   1.702   2.896  0.3352  1.0739  0.4294
 2166TIP3    H127989   6.829   1.720   2.961  0.3516 -1.9240  1.3873
 2166TIP3    H227990   6.698   1.646   2.941 -0.7819  0.6236 -1.5439
 2167TIP3   OH227991   1.730   5.376   3.478  0.7133  0.4941 -0.0755
 2167TIP3    H127992   1.666   5.435   3.518  0.8447  1.2826 -1.0172
 2167TIP3    H227993   1.682   5.293   3.467  0.2123  0.7313  0.2699
 2168TIP3   OH227994   1.259   4.629  12.900  0.5744  0.4131  0.2411
 2168TIP3    H127995   1.324   4.604  12.834  0.1958  1.8097 -0.7083
 2168TIP3    H227996   1.261   4.725  12.901 -1.4901  0.5090  0.1349
 2169TIP3   OH227997   3.345   4.216   3.863  0.5425 -0.2795  0.2567
 2169TIP3    H127998   3.281   4.273   3.822  0.8052  1.2653  1.8777
 2169TIP3    H227999   3.429   4.260   3.847  0.7834 -0.3595  1.2636
 2170TIP3   OH228000   6.068   3.284   3.315 -0.1562 -0.1748 -0.4237
 2170TIP3    H128001   6.040   3.230   3.241 -1.2072  3.0621 -2.6613
 2170TIP3    H228002   5.988   3.297   3.366 -0.9802  2.3426 -2.1675
 2171TIP3   OH228003   0.093   3.622  14.682 -0.2752 -0.0930 -0.1105
 2171TIP3    H128004   0.120   3.530  14.672  2.0165  0.4586  0.3907
 2171TIP3    H228005   0.033   3.621  14.756 -0.1688 -1.1852 -0.0134
 2172TIP3   OH228006   2.129   4.968  12.688  0.6926  0.0651  0.2144
 2172TIP3    H128007   2.161   4.993  12.774 -2.7033 -0.5519  1.8296
 2172TIP3    H228008   2.121   4.873  12.692 -1.6963  0.2024  0.1939
 2173TIP3   OH228009   1.146   0.136   1.453  0.0465  0.1346 -0.1943
 2173TIP3    H128010   1.092   0.112   1.529  0.4713  2.8281  1.1171
 2173TIP3    H228011   1.083   0.167   1.388 -0.3290 -2.2838 -1.0622
 2174TIP3   OH228012   0.230   1.023   5.280  0.1092 -0.7454 -0.2458
 2174TIP3    H128013   0.175   1.010   5.202  0.9230 -0.4016 -0.8904
 2174TIP3    H228014   0.168   1.051   5.348 -0.4468  0.2100 -1.1137
 2175TIP3   OH228015   5.096   5.557   2.139 -0.2177  0.4253 -0.0812
 2175TIP3    H128016   5.043   5.480   2.120 -1.6540  1.6445 -1.2835
 2175TIP3    H228017   5.049   5.602   2.209 -0.7357  1.4425 -1.0536
 2176TIP3   OH228018   3.768   6.223   5.053 -0.3092 -0.2337 -0.3855
 2176TIP3    H128019   3.751   6.253   4.964  1.9018  2.6465  0.0284
 2176TIP3    H228020   3.864   6.224   5.061 -0.4294 -0.8958  1.8945
 2177TIP3   OH228021   4.703   1.220   3.702  0.4230  0.1140  0.6047
 2177TIP3    H128022   4.773   1.283   3.717 -0.8649  1.6779  0.4421
 2177TIP3    H228023   4.731   1.169   3.626  1.9027 -0.1322  1.3004
 2178TIP3   OH228024   0.384   2.519   1.278  0.3685 -0.1614 -0.4760
 2178TIP3    H128025   0.367   2.428   1.253  1.4099 -0.5517  0.2013
 2178TIP3    H228026   0.341   2.528   1.363  1.5594 -0.4803  0.1719
 2179TIP3   OH228027   2.480   0.162   2.261  0.7599  0.0940  0.1854
 2179TIP3    H128028   2.452   0.198   2.177  0.5802 -2.3371 -0.8780
 2179TIP3    H228029   2.570   0.132   2.246  1.6519  1.7767  1.6338
 2180TIP3   OH228030   3.264   4.527  14.090 -0.1813  0.3496 -0.4293
 2180TIP3    H128031   3.190   4.529  14.029 -0.1166  2.3377 -0.5269
 2180TIP3    H228032   3.225   4.508  14.175 -0.3849 -1.5949 -0.9200
 2181TIP3   OH228033   5.780   1.687   2.715 -0.4259  0.1494  0.8176
 2181TIP3    H128034   5.798   1.639   2.796 -2.2580  1.7938  2.2872
 2181TIP3    H228035   5.725   1.761   2.742 -2.4825 -0.1163 -2.1552
 2182TIP3   OH228036   2.561   6.297   0.710 -0.0356 -0.2637 -0.0406
 2182TIP3    H128037   2.572   6.369   0.648  0.0357  0.7501  1.1157
 2182TIP3    H228038   2.593   6.332   0.794  2.3123 -2.4335  0.0873
 2183TIP3   OH228039   5.311   3.918   3.732  0.2853 -0.4748  0.0997
 2183TIP3    H128040   5.246   3.933   3.662 -0.6188 -2.2050  0.4911
 2183TIP3    H228041   5.359   4.000   3.738 -0.5327  0.1976 -1.6088
 2184TIP3   OH228042   5.113   3.469  11.079 -0.4818  0.3073  0.3339
 2184TIP3    H128043   5.112   3.535  11.009 -0.1217 -0.6742 -0.6191
 2184TIP3    H228044   5.061   3.508  11.149 -0.1837  1.6587 -0.1563
 2185TIP3   OH228045   5.993   4.279  15.676  0.1150  0.4291 -1.0384
 2185TIP3    H128046   5.968   4.301  15.586 -4.3430  0.7622  0.0464
 2185TIP3    H228047   5.924   4.318  15.730  2.7360  0.5072  2.6246
 2186TIP3   OH228048   4.320   6.270  17.164  0.4184 -0.1773  0.2073
 2186TIP3    H128049   4.319   6.200  17.100  0.7876  0.0891 -0.0960
 2186TIP3    H228050   4.237   6.315  17.153 -0.3763 -1.3128  1.2469
 2187TIP3   OH228051   6.154   5.701  15.935 -0.6873  0.4325 -0.9137
 2187TIP3    H128052   6.235   5.732  15.974 -0.0363  0.1226 -1.9737
 2187TIP3    H228053   6.095   5.686  16.010  0.4415  0.0298 -0.0858
 2188TIP3   OH228054   2.087   4.143   1.549  0.1344  0.3411 -0.2455
 2188TIP3    H128055   2.106   4.177   1.636 -0.2108 -0.7371  0.2657
 2188TIP3    H228056   1.998   4.175   1.529  0.0228  0.1903  0.0064
 2189TIP3   OH228057   5.470   4.501  11.595 -0.2784 -0.0849 -0.1121
 2189TIP3    H128058   5.548   4.495  11.540  0.1354 -0.5614  0.5051
 2189TIP3    H228059   5.455   4.595  11.604  1.7075  0.1454  1.7446
 2190TIP3   OH228060   5.453   2.672   2.595 -0.2692 -0.7393 -0.5162
 2190TIP3    H128061   5.414   2.746   2.547 -1.7304 -1.7101 -0.9006
 2190TIP3    H228062   5.478   2.610   2.527 -0.5324 -1.2785 -0.1283
 2191TIP3   OH228063   1.003   4.794  12.700 -0.4170  0.0965 -0.3216
 2191TIP3    H128064   1.007   4.767  12.609 -1.3701 -0.1029 -0.3146
 2191TIP3    H228065   1.015   4.712  12.749  1.4823  0.3957 -0.2373
 2192TIP3   OH228066   1.922   4.639  13.077  0.0275 -0.0979 -0.0044
 2192TIP3    H128067   1.883   4.688  13.150  0.4008 -3.1318  2.4237
 2192TIP3    H228068   2.003   4.686  13.057 -0.5473  1.3292  0.8692
 2193TIP3   OH228069   2.408   0.855   5.321  0.5697 -0.1142 -0.0593
 2193TIP3    H128070   2.470   0.900   5.265  0.9819 -0.7166 -0.0914
 2193TIP3    H228071   2.461   0.812   5.388  0.1742 -0.4318  0.0585
 2194TIP3   OH228072   2.729   4.459  12.485 -0.4240  0.3598 -0.5024
 2194TIP3    H128073   2.709   4.535  12.430 -0.5114  0.5589 -0.1997
 2194TIP3    H228074   2.679   4.387  12.448  1.7782 -0.2610 -2.5326
 2195TIP3   OH228075   3.483   6.267   2.053 -0.3342  0.2563 -0.4053
 2195TIP3    H128076   3.409   6.220   2.017 -3.3609  3.2731  1.3086
 2195TIP3    H228077   3.520   6.315   1.979 -1.3421  0.1670 -0.9773
 2196TIP3   OH228078   4.345   3.872  13.191  0.1581  0.5297 -0.1123
 2196TIP3    H128079   4.431   3.882  13.232  0.8622  0.0005 -1.4037
 2196TIP3    H228080   4.286   3.852  13.264  1.4989 -1.0961  0.5911
 2197TIP3   OH228081   4.063   1.046  13.157  0.1784 -0.7710  0.0661
 2197TIP3    H128082   4.056   1.134  13.193  0.5638 -0.7776  0.1624
 2197TIP3    H228083   4.157   1.030  13.150  0.1141 -1.1847  0.0772
 2198TIP3   OH228084   4.998   1.198  14.237  0.2970  0.2123 -0.2649
 2198TIP3    H128085   4.996   1.255  14.160  1.6374  1.0899  0.3122
 2198TIP3    H228086   4.993   1.109  14.202  1.4105  0.5777 -1.4234
 2199TIP3   OH228087   3.489   3.466   1.609 -0.6719  0.2846  0.3968
 2199TIP3    H128088   3.530   3.498   1.528  2.5078  1.3233  2.2237
 2199TIP3    H228089   3.526   3.379   1.622 -0.8501  0.2892  0.9517
 2200TIP3   OH228090   1.748   0.497  11.367 -0.0942  0.2541 -0.3597
 2200TIP3    H128091   1.662   0.495  11.327  0.0237  0.8158 -0.6466
 2200TIP3    H228092   1.785   0.582  11.343  0.6788 -0.1182 -0.5387
 2201TIP3   OH228093   5.068   6.221  14.998  0.6047 -0.0195 -0.6766
 2201TIP3    H128094   5.087   6.265  14.915 -0.2024  0.2289 -0.7439
 2201TIP3    H228095   5.106   6.278  15.065 -0.0268  0.5575 -0.7930
 2202TIP3   OH228096   4.656   5.658   3.204  0.2201 -0.3332 -0.0424
 2202TIP3    H128097   4.575   5.612   3.180  0.0202 -0.0878  0.1536
 2202TIP3    H228098   4.685   5.699   3.122  0.3319 -0.6997 -0.1900
 2203TIP3   OH228099   4.915   0.183  13.155  0.0234 -0.0338  0.1693
 2203TIP3    H128100   4.911   0.100  13.202 -1.5463 -0.9331 -1.4641
 2203TIP3    H228101   5.009   0.198  13.141  0.3362 -3.2573 -2.3468
 2204TIP3   OH228102   1.450   2.938  14.666 -0.0442 -0.3919  0.1478
 2204TIP3    H128103   1.389   3.007  14.638 -1.0565 -0.2514  2.4414
 2204TIP3    H228104   1.536   2.980  14.661 -0.4640  0.4746 -0.1645
 2205TIP3   OH228105   4.713   4.314   5.144 -0.6354  0.3497 -0.6533
 2205TIP3    H128106   4.714   4.301   5.050  0.2306 -0.4882 -0.5381
 2205TIP3    H228107   4.716   4.226   5.181  0.5507  0.7038  0.1501
 2206TIP3   OH228108   0.127   3.578  14.987  0.5497  0.2801  0.1003
 2206TIP3    H128109   0.043   3.618  15.009 -0.0120  1.2524 -3.2232
 2206TIP3    H228110   0.108   3.484  14.984 -0.1556  0.4055  0.3216
 2207TIP3   OH228111   4.502   5.499  11.730 -0.0334 -0.1057 -0.8315
 2207TIP3    H128112   4.527   5.553  11.805 -2.4830  1.8363 -1.2985
 2207TIP3    H228113   4.562   5.424  11.735  0.9056  0.6662  2.1584
 2208TIP3   OH228114   0.027   4.233  16.324  0.2422  0.0998  0.0629
 2208TIP3    H128115  -0.029   4.266  16.395  0.8801  0.0121  0.6160
 2208TIP3    H228116   0.023   4.138  16.332 -1.5846 -0.0018 -1.5286
 2209TIP3   OH228117   0.381   5.305   0.131 -0.1140 -0.1727  0.4693
 2209TIP3    H128118   0.472   5.293   0.104 -0.0552  2.0145 -0.4710
 2209TIP3    H228119   0.330   5.289   0.052 -0.5686 -1.2536  0.9602
 2210TIP3   OH228120   3.327   2.670  12.005 -0.1086 -0.6379 -0.2451
 2210TIP3    H128121   3.294   2.602  11.946 -0.7528 -0.7435  0.2232
 2210TIP3    H228122   3.350   2.743  11.948  1.6110 -1.6132 -0.8723
 2211TIP3   OH228123   2.880   3.797  13.145 -0.0102  0.2395 -0.0267
 2211TIP3    H128124   2.965   3.838  13.125  0.1335 -0.8914 -2.0403
 2211TIP3    H228125   2.900   3.735  13.215  0.6109  0.6554  0.1848
 2212TIP3   OH228126   2.154   1.616   4.765 -0.3206  0.1600  0.0181
 2212TIP3    H128127   2.165   1.710   4.750  0.7287  0.4787  2.3279
 2212TIP3    H228128   2.184   1.576   4.684  2.4861  1.7544  0.1254
 2213TIP3   OH228129   5.544   1.426   5.161 -0.0160  0.1600 -0.2189
 2213TIP3    H128130   5.486   1.352   5.146  0.0541  0.0751 -0.0814
 2213TIP3    H228131   5.486   1.502   5.161 -0.0660  0.1226 -0.5217
 2214TIP3   OH228132   4.546   2.571  14.403  0.5144 -0.1224 -0.4343
 2214TIP3    H128133   4.630   2.597  14.364  0.5744  1.1486  0.4644
 2214TIP3    H228134   4.569   2.506  14.469  0.9355  0.9067  0.4653
 2215TIP3   OH228135   1.279   3.890  12.747  0.4299 -0.5512 -0.2531
 2215TIP3    H128136   1.191   3.862  12.771  0.1506  0.6145  0.1633
 2215TIP3    H228137   1.279   3.889  12.651  0.0922 -0.9354 -0.2511
 2216TIP3   OH228138   0.347   4.942   1.501 -0.1656  0.3240 -0.0875
 2216TIP3    H128139   0.407   4.961   1.429 -0.7017  0.9777 -0.3716
 2216TIP3    H228140   0.363   5.013   1.564 -1.5665  1.2682 -0.7611
 2217TIP3   OH228141   4.173   6.106  14.058  0.1739  0.1639 -0.1061
 2217TIP3    H128142   4.199   6.016  14.074 -2.4890 -0.7656 -0.4906
 2217TIP3    H228143   4.218   6.130  13.977  0.6938 -0.9140 -0.1535
 2218TIP3   OH228144   4.632   0.116  16.011 -0.0657  0.3180 -0.0298
 2218TIP3    H128145   4.645   0.025  16.036  1.0734  0.5281  0.1588
 2218TIP3    H228146   4.714   0.142  15.970 -0.1388  1.4635  0.5189
 2219TIP3   OH228147   1.955   5.948  11.949  0.3398  0.8185  0.5256
 2219TIP3    H128148   1.902   5.906  12.016  0.8542 -0.0105  0.4285
 2219TIP3    H228149   2.042   5.911  11.960  0.1134 -0.5869 -1.5881
 2220TIP3   OH228150   4.209   6.569  11.688  0.0708  0.5939  0.2294
 2220TIP3    H128151   4.243   6.589  11.775 -0.2796  1.3736  0.1918
 2220TIP3    H228152   4.129   6.520  11.704  0.3541  0.1550  0.3329
 2221TIP3   OH228153   0.907   6.167   4.465  0.6200  0.4936  0.1881
 2221TIP3    H128154   0.898   6.161   4.560 -2.5616 -0.8094 -0.0956
 2221TIP3    H228155   0.820   6.191   4.434  0.5697 -2.6568 -2.5957
 2222TIP3   OH228156   1.746   4.804   5.490 -0.0436  0.2704 -0.0817
 2222TIP3    H128157   1.732   4.829   5.399 -3.1718  0.9081  0.4819
 2222TIP3    H228158   1.794   4.721   5.484  1.0942  0.9868 -2.2111
 2223TIP3   OH228159   2.090   0.072  12.025  0.1103  0.3573 -0.1672
 2223TIP3    H128160   2.019   0.112  11.976 -1.6021 -1.4786  0.6318
 2223TIP3    H228161   2.115  -0.004  11.973 -0.5903 -0.6647  0.9203
 2224TIP3   OH228162   0.517   5.956  15.025  0.1356  0.9626 -0.3442
 2224TIP3    H128163   0.423   5.970  15.020 -0.0694  0.1552  0.9332
 2224TIP3    H228164   0.553   6.044  15.038 -0.4142  1.2914 -0.9704
 2225TIP3   OH228165   5.137   0.374   2.427 -0.3649 -0.0469 -0.2678
 2225TIP3    H128166   5.072   0.313   2.389  0.2933 -1.0297  0.1519
 2225TIP3    H228167   5.215   0.321   2.439 -0.1822  0.5533  1.3699
 2226TIP3   OH228168   3.302   3.342  13.004 -0.2760  0.1469  0.5283
 2226TIP3    H128169   3.348   3.377  12.928 -1.4319  1.1643  0.2665
 2226TIP3    H228170   3.294   3.248  12.986 -1.0461  0.4581 -0.9108
 2227TIP3   OH228171   0.581   6.442  12.018 -0.1528 -0.2154  0.0117
 2227TIP3    H128172   0.619   6.410  11.937  1.4402  0.0794  0.6120
 2227TIP3    H228173   0.545   6.364  12.061  2.6033 -1.0909  0.8961
 2228TIP3   OH228174   3.299   0.089   5.898  0.1367 -0.0652 -0.6063
 2228TIP3    H128175   3.322   0.182   5.904  0.1069  0.0446 -1.8695
 2228TIP3    H228176   3.317   0.066   5.807  1.8731 -1.7750  0.1033
 2229TIP3   OH228177   1.213   1.935   5.130  0.0926  0.3356 -0.0830
 2229TIP3    H128178   1.242   2.006   5.187 -0.9866  0.8048 -0.0825
 2229TIP3    H228179   1.293   1.890   5.103  0.9153  2.3010 -1.0843
 2230TIP3   OH228180   3.097   3.437   6.297 -0.2050 -0.1802  0.4231
 2230TIP3    H128181   3.061   3.361   6.251 -1.6172  0.9527 -0.4067
 2230TIP3    H228182   3.139   3.399   6.375  1.0422 -1.9977 -1.0348
 2231TIP3   OH228183   5.319   1.162  12.996 -0.6303  0.3126 -0.2014
 2231TIP3    H128184   5.268   1.084  12.974 -0.0771 -0.3446  0.7423
 2231TIP3    H228185   5.403   1.127  13.026  0.0308  1.3350 -0.8273
 2232TIP3   OH228186   2.353   0.137   3.551  0.4165 -0.3115 -0.3286
 2232TIP3    H128187   2.361   0.171   3.640 -0.8268 -0.8873  0.0330
 2232TIP3    H228188   2.365   0.213   3.494 -1.6836  0.6736  0.4357
 2233TIP3   OH228189   0.046   5.525  14.110  0.2484  0.2743 -0.2729
 2233TIP3    H128190   0.118   5.539  14.049 -1.8220  1.0546 -2.7804
 2233TIP3    H228191   0.010   5.440  14.085 -0.0366  0.1381  0.5731
 2234TIP3   OH228192   1.891   5.257  17.082  0.2730 -0.0845 -0.1375
 2234TIP3    H128193   1.801   5.255  17.050  1.0185  0.5196 -2.4365
 2234TIP3    H228194   1.885   5.226  17.172 -1.9057 -2.5970 -1.0086
 2235TIP3   OH228195   6.219   5.047  14.907 -0.1127  0.3797  0.2115
 2235TIP3    H128196   6.174   4.966  14.883 -1.4088  1.2845 -0.5400
 2235TIP3    H228197   6.312   5.023  14.912 -0.5393 -1.2885  0.7099
 2236TIP3   OH228198   3.990   5.601  12.268  0.3117 -0.7119 -0.3094
 2236TIP3    H128199   3.910   5.549  12.266 -0.3282  0.1609  0.8775
 2236TIP3    H228200   4.045   5.559  12.334 -0.2044  0.0681  0.6480
 2237TIP3   OH228201   2.904   2.396   2.351  0.6188 -0.0881  0.0964
 2237TIP3    H128202   2.838   2.346   2.400 -0.2864  0.6556 -0.3389
 2237TIP3    H228203   2.980   2.338   2.348  0.1251 -0.8097  0.9468
 2238TIP3   OH228204   5.528   2.348   3.955  0.0397 -0.2647  0.3043
 2238TIP3    H128205   5.576   2.407   3.897  1.0092 -1.0851  0.2617
 2238TIP3    H228206   5.594   2.314   4.016 -0.9374  0.5277  1.8854
 2239TIP3   OH228207   2.653   5.691   6.224  0.3373 -0.1602 -0.1769
 2239TIP3    H128208   2.651   5.764   6.286 -2.9219 -0.7908  0.6757
 2239TIP3    H228209   2.740   5.653   6.234  1.2046  2.0201  1.2519
 2240TIP3   OH228210   6.214   2.320  13.444 -0.2818 -0.1875  0.3179
 2240TIP3    H128211   6.212   2.314  13.349 -1.0235 -0.4274  0.3421
 2240TIP3    H228212   6.127   2.353  13.468 -0.6038 -1.4718  0.9927
 2241TIP3   OH228213   0.952   5.448   5.563 -0.0437 -0.2394 -0.1141
 2241TIP3    H128214   0.862   5.430   5.591 -0.4663  0.8875 -0.6879
 2241TIP3    H228215   0.970   5.536   5.597  2.7988 -2.3306  4.7404
 2242TIP3   OH228216   0.651   3.999   1.220  0.4769 -0.5933  0.5072
 2242TIP3    H128217   0.636   4.064   1.152 -1.0349 -2.4512 -1.0762
 2242TIP3    H228218   0.563   3.978   1.252  1.0463 -0.8615  1.9598
 2243TIP3   OH228219   4.414   6.634   0.083 -0.6947 -0.2499 -0.0996
 2243TIP3    H128220   4.349   6.627   0.013 -1.4059 -1.8575  0.6690
 2243TIP3    H228221   4.409   6.726   0.110 -0.8453  0.2545 -1.7206
 2244TIP3   OH228222   0.783   0.352   5.220  0.5870 -0.3046 -0.7763
 2244TIP3    H128223   0.725   0.338   5.145  0.6340 -0.8449 -0.7132
 2244TIP3    H228224   0.867   0.317   5.192  0.3936 -1.2876 -0.1650
 2245TIP3   OH228225   6.616   0.530   5.281 -0.1361  0.1811  0.2850
 2245TIP3    H128226   6.650   0.614   5.251 -0.3824  1.0599  2.3268
 2245TIP3    H228227   6.591   0.545   5.372 -2.3347 -1.4974  0.0338
 2246TIP3   OH228228   4.449   2.336  12.968 -0.4244  0.5749 -0.7238
 2246TIP3    H128229   4.416   2.259  13.015  2.1533 -0.2225 -0.0359
 2246TIP3    H228230   4.420   2.324  12.878  1.0847 -1.9915 -0.9371
 2247TIP3   OH228231   0.965   3.739   5.403  0.0028  0.3718 -0.5731
 2247TIP3    H128232   1.035   3.686   5.365 -1.3035 -2.5991  0.8347
 2247TIP3    H228233   0.990   3.749   5.495 -0.9853  0.0315 -0.2564
 2248TIP3   OH228234   1.842   1.867  11.449  0.1536  0.0778 -0.1011
 2248TIP3    H128235   1.870   1.801  11.385 -1.8518 -0.6266 -0.3395
 2248TIP3    H228236   1.899   1.853  11.524  0.2937 -1.4248 -0.4488
 2249TIP3   OH228237   6.430   0.427  11.497 -0.4357 -0.0634  0.3441
 2249TIP3    H128238   6.490   0.483  11.448 -0.4196 -0.7046 -0.3879
 2249TIP3    H228239   6.451   0.444  11.589 -1.4901  2.2828  0.2111
 2250TIP3   OH228240   5.681   3.703  17.153 -0.1132  0.5874  0.2449
 2250TIP3    H128241   5.629   3.625  17.170 -1.4077  1.0110 -1.5171
 2250TIP3    H228242   5.772   3.673  17.159 -0.5614 -0.6306  1.3450
 2251TIP3   OH228243   1.697   5.695  16.807 -0.1011  0.5815  0.3186
 2251TIP3    H128244   1.771   5.738  16.764  0.3394  1.5861  1.9917
 2251TIP3    H228245   1.622   5.714  16.751  0.6177  0.9663 -0.5335
 2252TIP3   OH228246   3.158   5.999   4.418 -0.4182  0.1186  0.2842
 2252TIP3    H128247   3.077   5.990   4.468 -0.5366  1.1518  0.3021
 2252TIP3    H228248   3.129   6.038   4.335  0.1544  1.2377  0.6000
 2253TIP3   OH228249   0.497   5.155   4.101 -0.1311  0.3436  0.1879
 2253TIP3    H128250   0.419   5.099   4.098 -0.2913  0.3158  2.5540
 2253TIP3    H228251   0.463   5.243   4.083 -0.5078  0.1727  0.0431
 2254TIP3   OH228252   5.454   0.152   0.989  0.9298 -0.4368 -0.2672
 2254TIP3    H128253   5.451   0.073   0.935  0.6995 -1.2759  0.9501
 2254TIP3    H228254   5.492   0.219   0.931  0.5099 -1.2478 -1.5278
 2255TIP3   OH228255   1.703   3.585   0.639 -0.0205 -0.4318  0.9645
 2255TIP3    H128256   1.641   3.573   0.567  1.2431 -0.9046 -0.0861
 2255TIP3    H228257   1.711   3.498   0.678  0.9993 -0.6945  0.2119
 2256TIP3   OH228258   2.023   2.920  14.439  0.0309  0.1070 -0.2134
 2256TIP3    H128259   1.973   2.998  14.416 -0.1172  0.0579 -0.0597
 2256TIP3    H228260   1.978   2.848  14.394 -1.0641 -0.1897  1.2624
 2257TIP3   OH228261   3.186   2.620   3.124  0.4456 -0.2435 -0.8047
 2257TIP3    H128262   3.166   2.667   3.205  0.0548  1.3365 -1.7597
 2257TIP3    H228263   3.232   2.685   3.070  0.4946 -1.1834 -1.9351
 2258TIP3   OH228264   5.617   0.529   5.676  0.0556 -0.3424  0.4589
 2258TIP3    H128265   5.636   0.585   5.600 -2.0857 -0.4879 -0.2652
 2258TIP3    H228266   5.525   0.504   5.664 -0.3906 -0.2602  3.2043
 2259TIP3   OH228267   4.916   4.563  10.762 -0.4014  0.1101 -0.3582
 2259TIP3    H128268   4.991   4.503  10.763 -1.6085 -1.5890 -2.5249
 2259TIP3    H228269   4.940   4.629  10.697 -0.9024 -0.6980 -1.4025
 2260TIP3   OH228270   2.152   1.411   0.341 -0.3332 -0.4849 -0.0459
 2260TIP3    H128271   2.201   1.383   0.418  2.2883  1.2475 -0.9441
 2260TIP3    H228272   2.137   1.330   0.292  0.4037 -1.2660  0.9687
 2261TIP3   OH228273   1.246   1.592   5.266  0.5145 -0.5102 -0.1472
 2261TIP3    H128274   1.339   1.570   5.256  0.6207  0.3609 -1.2103
 2261TIP3    H228275   1.244   1.653   5.339  0.6954 -1.0162  0.2872
 2262TIP3   OH228276   5.668   6.535   1.047 -0.0148 -0.2395  0.5813
 2262TIP3    H128277   5.673   6.445   1.013 -1.9981 -0.4604  0.7549
 2262TIP3    H228278   5.607   6.530   1.120 -0.7477  1.3839  0.1207
 2263TIP3   OH228279   4.757   5.470   0.073 -0.5992 -0.1304 -0.1609
 2263TIP3    H128280   4.773   5.502  -0.015  1.0084  1.3055  0.5879
 2263TIP3    H228281   4.845   5.457   0.111 -1.2380 -1.2659  1.0442
 2264TIP3   OH228282   4.374   3.840   1.242  0.3901  0.1614 -0.1523
 2264TIP3    H128283   4.431   3.906   1.281 -1.0747  0.0091  2.5316
 2264TIP3    H228284   4.318   3.812   1.315 -2.1818 -0.6349 -2.2934
 2265TIP3   OH228285   2.327   0.668   4.953  0.5138 -0.0833 -0.6399
 2265TIP3    H128286   2.369   0.611   4.888  1.5565  1.3558 -1.2783
 2265TIP3    H228287   2.379   0.748   4.952 -0.8698  0.8692  0.2933
 2266TIP3   OH228288   1.416   3.868  12.221  0.0596 -0.0611  0.5062
 2266TIP3    H128289   1.355   3.941  12.210  0.7912  0.5484  0.3857
 2266TIP3    H228290   1.400   3.812  12.145 -0.2707  0.1656  0.4077
 2267TIP3   OH228291   4.934   3.665   0.525 -0.1250 -0.2842 -0.5502
 2267TIP3    H128292   4.937   3.741   0.467 -0.6434  0.8372  0.8217
 2267TIP3    H228293   4.990   3.690   0.599  0.9472 -1.8869 -0.7770
 2268TIP3   OH228294   3.467   2.581  14.032  0.0522 -0.0081  0.7019
 2268TIP3    H128295   3.460   2.648  14.100  1.2473  0.9310 -0.0336
 2268TIP3    H228296   3.549   2.536  14.052  0.0075 -0.2479  0.3482
 2269TIP3   OH228297   5.640   0.923  13.962  0.0200 -0.1974  0.4717
 2269TIP3    H128298   5.651   1.006  13.915 -2.1991 -0.0879  0.0215
 2269TIP3    H228299   5.589   0.946  14.040 -0.0165 -1.0179  0.6993
 2270TIP3   OH228300   4.449   1.291   3.963  0.1888  0.1753  0.1491
 2270TIP3    H128301   4.360   1.284   3.929  0.5415  0.5306 -0.8811
 2270TIP3    H228302   4.439   1.331   4.049 -0.6224  0.4715 -0.0750
 2271TIP3   OH228303   6.645   0.745   3.689  0.0292  0.2267  0.0257
 2271TIP3    H128304   6.583   0.708   3.751 -0.9533  1.5548 -0.1194
 2271TIP3    H228305   6.663   0.833   3.721  0.0439  0.6918 -1.1862
 2272TIP3   OH228306   0.374   6.374  15.395 -0.1844  0.6645  0.0209
 2272TIP3    H128307   0.457   6.413  15.368 -0.3035  0.4145 -0.7521
 2272TIP3    H228308   0.399   6.296  15.444  0.0391  1.0152  0.4762
 2273TIP3   OH228309   3.783   4.474  13.929 -0.5268  0.0279 -0.0588
 2273TIP3    H128310   3.800   4.562  13.896 -0.6853 -0.1842 -0.7308
 2273TIP3    H228311   3.693   4.455  13.903 -0.4283 -0.4068 -0.0945
 2274TIP3   OH228312   6.097   3.887  14.367  0.4567  0.1893  0.9429
 2274TIP3    H128313   6.186   3.882  14.331  0.4071 -0.9932  0.9393
 2274TIP3    H228314   6.066   3.974  14.343  1.8072  0.8229  1.4048
 2275TIP3   OH228315   4.809   1.143   1.363  0.2292  0.5498  0.0444
 2275TIP3    H128316   4.811   1.048   1.378  0.8186  0.3034 -1.4227
 2275TIP3    H228317   4.855   1.155   1.280  0.0203  2.1149  0.1289
 2276TIP3   OH228318   6.773   0.133  15.004  0.1341 -0.2629 -0.7803
 2276TIP3    H128319   6.696   0.077  15.015  0.9823 -1.2876  0.1563
 2276TIP3    H228320   6.842   0.089  15.053  1.0282  1.2414 -0.6209
 2277TIP3   OH228321   4.626   5.990  13.394  0.1904  0.1048  0.1815
 2277TIP3    H128322   4.622   5.905  13.437 -1.4211 -0.4504 -0.9805
 2277TIP3    H228323   4.538   6.003  13.358  0.7104  1.7813 -0.5847
 2278TIP3   OH228324   4.231   3.218   1.576 -0.3993  0.3776  0.1304
 2278TIP3    H128325   4.291   3.219   1.651  0.6442 -0.5101 -0.6630
 2278TIP3    H228326   4.270   3.281   1.514 -0.5568  0.1616 -0.1871
 2279TIP3   OH228327   3.243   3.320   3.536  0.0385  0.2287  0.1907
 2279TIP3    H128328   3.173   3.270   3.579  2.2095 -0.5660  3.1328
 2279TIP3    H228329   3.282   3.259   3.474 -1.3806  0.4660 -0.9846
 2280TIP3   OH228330   5.698   2.262  10.417 -0.1527 -0.3648  0.0947
 2280TIP3    H128331   5.698   2.354  10.443  2.0598 -0.7637  1.8100
 2280TIP3    H228332   5.612   2.229  10.444 -0.3918  0.8349  0.8577
 2281TIP3   OH228333   5.120   4.286  12.585  0.2951  0.0052 -0.3469
 2281TIP3    H128334   5.087   4.200  12.612 -2.7267  1.4465  0.9874
 2281TIP3    H228335   5.054   4.348  12.616  3.8618  3.2033  1.7676
 2282TIP3   OH228336   2.718   5.153   1.923 -0.3779 -0.3819  0.2504
 2282TIP3    H128337   2.702   5.128   1.832 -0.0554  0.1957  0.0299
 2282TIP3    H228338   2.814   5.155   1.931 -0.3855 -1.6080  0.9379
 2283TIP3   OH228339   2.644   4.239  12.171  0.2729  0.4203 -0.7661
 2283TIP3    H128340   2.660   4.197  12.087 -1.4046  0.7237 -1.2594
 2283TIP3    H228341   2.594   4.318  12.150  0.6673  1.0258  0.4400
 2284TIP3   OH228342   0.901   5.967   1.952 -0.0292  0.3552  0.1533
 2284TIP3    H128343   0.907   5.884   1.904  1.5997  1.1675 -1.1491
 2284TIP3    H228344   0.888   6.033   1.884  2.5039  1.5570  0.7149
 2285TIP3   OH228345   6.163   1.584   1.692 -0.2529  0.6834  0.6641
 2285TIP3    H128346   6.231   1.578   1.759 -1.3746 -0.5590  1.7385
 2285TIP3    H228347   6.181   1.510   1.634 -1.9071 -1.0485  2.2067
 2286TIP3   OH228348   4.165   2.666   0.776 -0.1470  0.3871 -0.1169
 2286TIP3    H128349   4.225   2.737   0.796 -0.3031  0.4555  0.1075
 2286TIP3    H228350   4.087   2.709   0.741 -0.4101  0.3542  0.4241
 2287TIP3   OH228351   3.719   0.420  13.530 -0.1385  0.5916 -0.1830
 2287TIP3    H128352   3.635   0.398  13.570 -0.5181  0.1869 -1.1882
 2287TIP3    H228353   3.758   0.484  13.590 -0.7946  0.1769  0.7081
 2288TIP3   OH228354   5.767   6.072   5.641 -0.1155 -0.1495 -0.6062
 2288TIP3    H128355   5.709   6.145   5.622  1.4602  0.8157 -2.0866
 2288TIP3    H228356   5.747   6.008   5.573  0.2413  0.0001 -0.8546
 2289TIP3   OH228357   6.795   0.480  14.332  0.5796  0.4371 -0.2915
 2289TIP3    H128358   6.767   0.411  14.391 -1.0355  0.8490 -0.5192
 2289TIP3    H228359   6.727   0.547  14.340 -0.0679  0.2251 -3.0844
 2290TIP3   OH228360   2.177   4.578   0.016 -1.0203  0.3167  0.2092
 2290TIP3    H128361   2.198   4.485   0.026 -0.9466  0.2064 -0.8558
 2290TIP3    H228362   2.240   4.610  -0.048 -0.9429  1.1485  0.6812
 2291TIP3   OH228363   6.613   2.722   5.121 -0.0266 -0.1372  0.3797
 2291TIP3    H128364   6.691   2.718   5.176  0.6517 -2.2844 -0.6225
 2291TIP3    H228365   6.560   2.647   5.148 -1.6841  1.1545  0.8876
 2292TIP3   OH228366   2.092   0.226   5.923 -0.2406 -0.7824  0.0092
 2292TIP3    H128367   2.025   0.284   5.887  1.1485  0.0149 -1.4448
 2292TIP3    H228368   2.049   0.142   5.935 -2.4326  0.5576  2.5224
 2293TIP3   OH228369   4.741   5.998  14.443  0.0574  0.2911 -0.0218
 2293TIP3    H128370   4.680   6.068  14.419 -0.1636  0.1209  0.0529
 2293TIP3    H228371   4.824   6.026  14.403  0.0367  0.7338  0.2366
 2294TIP3   OH228372   0.766   0.711   2.744  0.4091 -0.3560  0.1112
 2294TIP3    H128373   0.727   0.626   2.724 -1.1665  0.3126  0.2311
 2294TIP3    H228374   0.799   0.743   2.660  0.5422 -0.8580 -0.0288
 2295TIP3   OH228375   3.861   1.118  13.687  0.5765  0.2713 -0.2738
 2295TIP3    H128376   3.829   1.039  13.730  0.4699  1.1285  1.3000
 2295TIP3    H228377   3.956   1.117  13.702  0.9178 -0.6235 -2.1461
 2296TIP3   OH228378   3.519   3.221   5.281  0.1559  0.5872  0.1633
 2296TIP3    H128379   3.465   3.224   5.360 -0.3815  0.3535 -0.1878
 2296TIP3    H228380   3.456   3.229   5.209  0.3279 -1.8188 -0.3303
 2297TIP3   OH228381   6.216   1.290  12.420  0.6254 -0.3118 -0.1929
 2297TIP3    H128382   6.127   1.285  12.454  0.4650  0.1536 -0.5316
 2297TIP3    H228383   6.268   1.320  12.495  0.1405  1.5061 -0.5308
 2298TIP3   OH228384   6.019   6.754  13.038  0.1974 -0.5123 -0.8151
 2298TIP3    H128385   5.946   6.782  12.982 -0.5740 -1.1228 -0.1342
 2298TIP3    H228386   6.093   6.745  12.977 -0.1379  0.6247 -1.4320
 2299TIP3   OH228387   5.285   5.858  12.071 -0.3131  0.1272 -0.2837
 2299TIP3    H128388   5.218   5.910  12.029  0.0077  1.8517  1.2025
 2299TIP3    H228389   5.317   5.800  12.003  1.5065  3.9840 -3.0729
 2300TIP3   OH228390   2.678   2.965  14.484 -0.5907  0.5715 -0.1574
 2300TIP3    H128391   2.695   2.897  14.549 -2.7398  0.9844  0.9346
 2300TIP3    H228392   2.764   3.002  14.465  0.7328 -2.7506 -1.2024
 2301TIP3   OH228393   6.239   0.139  10.750 -0.0616 -0.1322 -0.0753
 2301TIP3    H128394   6.236   0.127  10.845  1.2094 -0.8715 -0.1160
 2301TIP3    H228395   6.232   0.233  10.737 -0.7082 -0.0577  0.7140
 2302TIP3   OH228396   0.720   6.737  15.493 -0.5662  0.2847  0.2034
 2302TIP3    H128397   0.768   6.794  15.433 -1.1290  1.1578  0.5677
 2302TIP3    H228398   0.777   6.729  15.570  0.4014 -1.2733 -0.6239
 2303TIP3   OH228399   0.855   4.917   5.025 -0.2584 -0.2120  0.1267
 2303TIP3    H128400   0.944   4.943   5.002  0.9108 -1.6585  2.5781
 2303TIP3    H228401   0.814   4.998   5.057 -0.6391  0.9348 -2.9275
 2304TIP3   OH228402   0.272   6.705   3.638 -0.0337 -0.1662 -0.5023
 2304TIP3    H128403   0.235   6.680   3.553 -1.2348 -1.6431  0.3868
 2304TIP3    H228404   0.282   6.622   3.684 -0.8691  0.7068  1.3500
 2305TIP3   OH228405   5.898   6.526   4.442 -0.6062 -0.5144  0.5788
 2305TIP3    H128406   5.954   6.455   4.412 -0.0671 -0.6241  1.7946
 2305TIP3    H228407   5.845   6.550   4.366 -2.0293 -3.3646  0.5550
 2306TIP3   OH228408   5.201   5.407  10.930  0.5320  0.0626  0.5776
 2306TIP3    H128409   5.172   5.456  10.853 -1.7309  1.2881  2.0753
 2306TIP3    H228410   5.297   5.409  10.926  0.4718  0.3679 -1.9755
 2307TIP3   OH228411   2.518   0.640   1.858  1.0245 -0.3608 -0.7404
 2307TIP3    H128412   2.500   0.721   1.906  1.6034 -0.5798 -0.1317
 2307TIP3    H228413   2.502   0.662   1.767 -1.3524 -0.2837 -0.3689
 2308TIP3   OH228414   6.340   5.745   1.175 -0.3254 -0.2587  0.3573
 2308TIP3    H128415   6.370   5.659   1.204 -0.0777 -0.3472 -0.1509
 2308TIP3    H228416   6.267   5.726   1.116 -0.2287 -0.1285  0.1944
 2309TIP3   OH228417   1.794   4.061   4.010 -0.1325  0.2970 -0.6368
 2309TIP3    H128418   1.751   4.035   4.092  1.7430 -0.8821  0.0248
 2309TIP3    H228419   1.757   4.147   3.991 -1.4454  0.1129  0.8306
 2310TIP3   OH228420   5.171   3.362  16.486 -0.1039  0.6541  0.4793
 2310TIP3    H128421   5.132   3.416  16.417  0.1112  1.0660  0.6767
 2310TIP3    H228422   5.266   3.368  16.469 -0.1025 -0.1607  0.1301
 2311TIP3   OH228423   5.496   3.698  16.435 -0.3028  0.0898 -0.3220
 2311TIP3    H128424   5.557   3.625  16.445 -1.2111 -0.5970  0.3586
 2311TIP3    H228425   5.420   3.660  16.391 -2.0942 -0.1933  2.7252
 2312TIP3   OH228426   5.784   0.358  14.731  0.0214 -0.5799 -0.0907
 2312TIP3    H128427   5.761   0.383  14.821  0.1872 -1.6151  0.2472
 2312TIP3    H228428   5.880   0.366  14.728 -0.0860  0.7201 -0.5777
 2313TIP3   OH228429   0.627   0.084   2.581 -0.2364  0.1998  0.4380
 2313TIP3    H128430   0.719   0.111   2.589 -0.5478  1.4567  0.0750
 2313TIP3    H228431   0.589   0.103   2.667 -0.6417  1.7568 -0.0506
 2314TIP3   OH228432   4.490   1.319   3.555  0.1510  0.4620 -0.0893
 2314TIP3    H128433   4.486   1.414   3.565 -1.1222  0.5069 -0.7872
 2314TIP3    H228434   4.578   1.296   3.583  0.6907  1.9215 -0.4634
 2315TIP3   OH228435   4.318   4.630   3.568 -0.1299 -0.4095  0.5957
 2315TIP3    H128436   4.331   4.568   3.496 -0.6952 -1.6877  1.5535
 2315TIP3    H228437   4.405   4.638   3.609 -0.4785 -2.5115  1.9350
 2316TIP3   OH228438   3.811   4.953  16.566  0.2575 -0.2418  0.3191
 2316TIP3    H128439   3.766   5.037  16.577 -0.3116 -0.6149  0.9126
 2316TIP3    H228440   3.747   4.896  16.524  1.1854  0.0726 -1.6566
 2317TIP3   OH228441   2.068   0.894   4.817 -0.0656 -0.0275  0.0590
 2317TIP3    H128442   2.135   0.854   4.762  0.0749  1.9321 -1.3098
 2317TIP3    H228443   2.052   0.830   4.886 -0.3201 -2.6746 -2.2868
 2318TIP3   OH228444   6.081   5.822   0.498 -0.2421  0.0451  0.4799
 2318TIP3    H128445   6.022   5.790   0.566 -0.6706  0.5906  0.3721
 2318TIP3    H228446   6.037   5.802   0.416 -0.8486  1.4781  0.4181
 2319TIP3   OH228447   4.308   6.604   2.478 -0.2504 -0.0783 -0.3777
 2319TIP3    H128448   4.327   6.642   2.564  0.1620 -0.8510 -0.1173
 2319TIP3    H228449   4.315   6.510   2.492 -0.4647 -0.2205 -1.1988
 2320TIP3   OH228450   0.713   0.313  16.205  0.2786  0.0782  0.3352
 2320TIP3    H128451   0.752   0.231  16.234 -2.2502 -1.5924 -0.6793
 2320TIP3    H228452   0.787   0.374  16.201  1.7736 -1.1534  4.1872
 2321TIP3   OH228453   3.197   3.809   4.012 -0.0642 -0.3037 -0.2600
 2321TIP3    H128454   3.205   3.875   4.082  2.2648  0.6081 -1.2794
 2321TIP3    H228455   3.266   3.745   4.032 -1.4169 -1.7582 -0.0502
 2322TIP3   OH228456   5.346   4.097  15.126  0.1341  0.2793 -0.5733
 2322TIP3    H128457   5.417   4.130  15.182 -0.3555  1.8323 -0.7976
 2322TIP3    H228458   5.269   4.144  15.157 -1.0356 -2.0780  0.3017
 2323TIP3   OH228459   2.885   2.998  12.801 -0.0943 -0.2096 -0.5014
 2323TIP3    H128460   2.865   2.954  12.884  0.7244  2.2983  1.1739
 2323TIP3    H228461   2.969   2.962  12.775 -0.6073 -1.4135 -0.5549
 2324TIP3   OH228462   6.758   5.719   0.260 -0.3034  0.3530 -0.0957
 2324TIP3    H128463   6.794   5.712   0.171  2.1674 -0.3737  0.8851
 2324TIP3    H228464   6.754   5.813   0.277 -0.2528  0.4821 -0.7695
 2325TIP3   OH228465   1.414   0.865   6.381 -0.0092 -0.9113  0.1489
 2325TIP3    H128466   1.478   0.833   6.318  1.7614  1.6005  0.5584
 2325TIP3    H228467   1.385   0.949   6.345  0.2443  0.0632  2.1057
 2326TIP3   OH228468   3.585   6.052  13.612 -0.5703 -0.0631  0.0245
 2326TIP3    H128469   3.530   6.064  13.534 -0.2386 -2.8539 -0.7538
 2326TIP3    H228470   3.643   6.127  13.612 -1.2788  0.5609 -1.8266
 2327TIP3   OH228471   4.593   5.321   3.229  0.1535  0.2315  0.6090
 2327TIP3    H128472   4.630   5.232   3.233  0.3434  0.3282  1.1016
 2327TIP3    H228473   4.588   5.341   3.136 -1.4846 -0.9559  0.4019
 2328TIP3   OH228474   1.800   1.702   2.620  0.8042  0.1938  1.1742
 2328TIP3    H128475   1.863   1.640   2.656  0.7673 -0.0385  0.8486
 2328TIP3    H228476   1.836   1.788   2.641  1.2858  0.0630  0.9032
 2329TIP3   OH228477   1.064   1.380  13.474 -0.3342  0.2933 -0.2792
 2329TIP3    H128478   1.141   1.355  13.524 -0.6322  3.8233  2.2847
 2329TIP3    H228479   0.991   1.336  13.518 -0.3908  2.0239  1.5045
 2330TIP3   OH228480   6.104   0.569   1.975  0.4986  0.2370  0.1159
 2330TIP3    H128481   6.074   0.660   1.974  1.3870  0.5425 -1.0202
 2330TIP3    H228482   6.172   0.565   1.907  0.2080 -1.3618 -0.1311
 2331TIP3   OH228483   4.563   2.775   1.890 -0.0774 -0.5102 -0.2748
 2331TIP3    H128484   4.559   2.795   1.984  0.5735 -0.9194 -0.1526
 2331TIP3    H228485   4.491   2.714   1.875 -0.3826 -0.1943 -0.1090
 2332TIP3   OH228486   2.072   0.207  11.112 -0.0413  0.4063 -0.0065
 2332TIP3    H128487   2.019   0.283  11.085  0.4197  1.8100  2.6147
 2332TIP3    H228488   2.086   0.221  11.206  2.8361 -1.2484 -0.0844
 2333TIP3   OH228489   5.551   0.815  16.724  0.3434  0.1894 -0.0933
 2333TIP3    H128490   5.497   0.778  16.654 -1.1492 -1.7285  1.9468
 2333TIP3    H228491   5.585   0.739  16.771  2.6561  1.3951  0.3401
 2334TIP3   OH228492   2.821   6.717  12.691  0.2540 -0.5418 -0.6489
 2334TIP3    H128493   2.841   6.752  12.605 -1.4463  0.9084 -0.5036
 2334TIP3    H228494   2.779   6.789  12.738  1.9665 -0.9595  1.7661
 2335TIP3   OH228495   5.591   0.542  12.998 -0.1830  0.2456 -0.1192
 2335TIP3    H128496   5.544   0.496  12.929  0.0020  1.0238 -0.7686
 2335TIP3    H228497   5.676   0.499  13.002  0.2809  1.0004 -1.2637
 2336TIP3   OH228498   2.858   3.509  14.931 -0.1323 -0.8918  0.3356
 2336TIP3    H128499   2.862   3.567  14.855  1.7925 -2.4235 -0.8372
 2336TIP3    H228500   2.765   3.508  14.955 -0.2663  2.7062  0.5504
 2337TIP3   OH228501   0.615   0.949  13.764  0.4043 -0.1766 -0.0218
 2337TIP3    H128502   0.613   1.015  13.694 -1.6134 -1.9953 -1.8159
 2337TIP3    H228503   0.537   0.968  13.816  2.4236  1.8113  2.5424
 2338TIP3   OH228504   1.356   3.978  13.553  0.1385 -0.2391  0.1128
 2338TIP3    H128505   1.366   3.992  13.648 -0.2204 -1.1906  0.3038
 2338TIP3    H228506   1.446   3.983  13.519  0.0249  3.0428  0.0229
 2339TIP3   OH228507   4.835   0.985   1.087  0.6392 -0.0596  0.1677
 2339TIP3    H128508   4.789   0.913   1.044  1.1492  0.5941 -1.5570
 2339TIP3    H228509   4.856   1.046   1.016 -0.3847  2.1578  1.6375
 2340TIP3   OH228510   6.658   0.131   1.762 -0.2316 -0.6008  0.3070
 2340TIP3    H128511   6.570   0.149   1.794 -0.2315 -0.4733  0.2354
 2340TIP3    H228512   6.657   0.158   1.670 -0.2188 -0.9309  0.2104
 2341TIP3   OH228513   6.001   1.957   0.198 -0.1418 -0.2503 -0.5945
 2341TIP3    H128514   6.070   1.950   0.264  0.9565  2.8434 -1.2613
 2341TIP3    H228515   5.924   1.919   0.241  1.1495 -0.7600  1.4429
 2342TIP3   OH228516   0.939   2.567   1.673  0.5932  0.0760 -0.1114
 2342TIP3    H128517   0.907   2.479   1.654  1.5117 -1.0282  2.8157
 2342TIP3    H228518   0.863   2.624   1.662 -0.5367 -1.3797 -0.1336
 2343TIP3   OH228519   1.163   1.952  16.480  0.4294  0.0691  0.0661
 2343TIP3    H128520   1.100   1.997  16.423 -0.0486 -1.1802 -0.4462
 2343TIP3    H228521   1.150   1.992  16.566  2.0542  2.8902 -0.8784
 2344TIP3   OH228522   0.438   3.338   3.132 -0.3926  0.5324 -0.0204
 2344TIP3    H128523   0.380   3.409   3.103 -0.5602 -0.4111 -2.2381
 2344TIP3    H228524   0.451   3.284   3.053 -0.3838 -1.9890  1.5927
 2345TIP3   OH228525   1.174   5.528   3.798 -0.9190  0.2130  0.0465
 2345TIP3    H128526   1.230   5.451   3.813 -0.6292  0.7165  1.8066
 2345TIP3    H228527   1.158   5.563   3.886 -1.2948  1.9968 -0.6985
 2346TIP3   OH228528   5.882   5.527  13.008  0.2799 -0.0404  0.1811
 2346TIP3    H128529   5.872   5.605  12.955  2.7338  2.4247  2.9694
 2346TIP3    H228530   5.821   5.539  13.081 -0.5173 -1.5959 -0.1910
 2347TIP3   OH228531   4.533   2.395  11.872  0.2572  0.3391  0.0296
 2347TIP3    H128532   4.499   2.316  11.913 -0.1485 -0.4503 -1.7678
 2347TIP3    H228533   4.507   2.388  11.780 -0.9714  3.2075  0.0630
 2348TIP3   OH228534   2.506   4.557  15.013 -0.0959 -0.2162 -0.0595
 2348TIP3    H128535   2.416   4.574  15.042 -0.0045  2.4084 -0.9959
 2348TIP3    H228536   2.549   4.518  15.089 -1.2691  1.2954  1.4618
 2349TIP3   OH228537   4.301   5.491   3.996  0.1583  0.1210 -0.0408
 2349TIP3    H128538   4.210   5.519   3.985  0.3456  0.6060 -0.4036
 2349TIP3    H228539   4.319   5.437   3.919  0.1030 -0.1778  0.1554
 2350TIP3   OH228540   0.139   4.653   5.375 -0.1619  0.4916 -0.2863
 2350TIP3    H128541   0.207   4.628   5.313 -0.2692 -2.6626  0.6919
 2350TIP3    H228542   0.059   4.658   5.323 -0.1454 -1.5316 -0.5737
 2351TIP3   OH228543   1.245   6.354   5.182  0.0239  0.3657 -0.4391
 2351TIP3    H128544   1.234   6.271   5.228 -3.3549 -0.1144 -1.8817
 2351TIP3    H228545   1.238   6.420   5.252  0.5479 -0.4540  0.4217
 2352TIP3   OH228546   4.175   4.327  14.340 -0.0004 -0.8229  0.4746
 2352TIP3    H128547   4.232   4.404  14.336  0.5080 -1.2278 -1.1999
 2352TIP3    H228548   4.086   4.362  14.344  0.3111 -0.1782  3.2640
 2353TIP3   OH228549   0.979   2.589  16.790 -0.2307  0.5020 -0.0513
 2353TIP3    H128550   0.949   2.652  16.856  2.9992  2.6506 -0.3852
 2353TIP3    H228551   0.899   2.557  16.749 -2.3191  0.4074  3.6270
 2354TIP3   OH228552   4.359   2.303  17.180 -0.3339  0.3021  1.1024
 2354TIP3    H128553   4.365   2.226  17.124 -0.8395 -0.7325  2.3980
 2354TIP3    H228554   4.450   2.320  17.206 -0.1181  0.6923  0.1216
 2355TIP3   OH228555   1.620   1.704  14.996 -0.2642  0.8383  0.0631
 2355TIP3    H128556   1.672   1.640  15.046  1.4861  0.9202 -1.5536
 2355TIP3    H228557   1.637   1.682  14.905  1.2347  4.1955 -0.5935
 2356TIP3   OH228558   0.892   2.542  16.042 -0.1510  0.2381 -0.3808
 2356TIP3    H128559   0.843   2.477  16.093  1.8538 -0.8147  0.3056
 2356TIP3    H228560   0.980   2.541  16.080  0.7761  1.1330 -2.3828
 2357TIP3   OH228561   0.930   1.446   3.775  0.4081  0.0626 -0.0207
 2357TIP3    H128562   0.924   1.541   3.765 -0.8610 -0.1274 -1.3755
 2357TIP3    H228563   0.911   1.411   3.688 -1.4985 -1.4870  0.9401
 2358TIP3   OH228564   5.199   3.122  12.335  0.4524 -0.3856  0.1835
 2358TIP3    H128565   5.133   3.179  12.374 -0.4159  0.3219 -2.1647
 2358TIP3    H228566   5.197   3.042  12.387 -0.9477  0.3280  1.2686
 2359TIP3   OH228567   4.321   3.505  14.042 -0.5312 -0.2823 -0.0714
 2359TIP3    H128568   4.391   3.524  14.105  0.6184 -1.3255 -0.9934
 2359TIP3    H228569   4.359   3.525  13.957 -0.7458 -2.4161 -0.7312
 2360TIP3   OH228570   1.471   3.494   5.168  0.0020 -0.1677 -0.1761
 2360TIP3    H128571   1.508   3.560   5.227 -1.6087  0.9731 -0.3889
 2360TIP3    H228572   1.428   3.545   5.100  0.4261 -1.4696 -1.4651
 2361TIP3   OH228573   3.322   4.636   6.051  0.6733 -0.2129 -0.1132
 2361TIP3    H128574   3.378   4.714   6.050  0.7525 -0.1337  2.9246
 2361TIP3    H228575   3.260   4.651   6.122  0.0616 -2.5037 -0.0881
 2362TIP3   OH228576   4.057   4.670  15.527 -0.1515  0.3530 -0.7829
 2362TIP3    H128577   4.092   4.684  15.439 -0.7442 -1.6829 -1.4060
 2362TIP3    H228578   4.070   4.576  15.543 -2.0615  0.2334  0.3841
 2363TIP3   OH228579   3.475   2.679  16.175  0.2785 -0.0469 -0.0409
 2363TIP3    H128580   3.452   2.589  16.153  0.5777 -0.2238  0.3531
 2363TIP3    H228581   3.570   2.682  16.167  0.1023  1.1496 -3.4570
 2364TIP3   OH228582   6.468   2.304  12.638  0.3302 -0.2508  0.3913
 2364TIP3    H128583   6.470   2.394  12.669 -0.3667 -0.3806  0.8455
 2364TIP3    H228584   6.556   2.288  12.604  0.7247  0.3221  1.1015
 2365TIP3   OH228585   4.164   3.010   4.606  0.1928  0.2117 -0.0028
 2365TIP3    H128586   4.190   2.960   4.528  0.9475  1.4350 -0.5668
 2365TIP3    H228587   4.246   3.029   4.651 -0.1972 -0.0594  0.8430
 2366TIP3   OH228588   3.263   6.447  16.881 -0.4211  0.0890 -0.4626
 2366TIP3    H128589   3.302   6.437  16.794  0.4822 -1.1435  0.0605
 2366TIP3    H228590   3.321   6.398  16.939 -0.5800  1.5316  0.9698
 2367TIP3   OH228591   4.597   5.810  13.598 -0.3492  0.1871  0.2815
 2367TIP3    H128592   4.562   5.834  13.684 -1.1180 -1.9846  0.6163
 2367TIP3    H228593   4.635   5.723  13.610 -2.9468 -1.4378 -2.1416
 2368TIP3   OH228594   1.129   6.612  16.355  0.1454 -0.0069  0.4587
 2368TIP3    H128595   1.165   6.653  16.276  1.2122 -1.6562  0.0232
 2368TIP3    H228596   1.091   6.684  16.404 -1.2102  1.0117 -1.8817
 2369TIP3   OH228597   5.510   1.202  14.849  0.2048 -0.1927  0.3431
 2369TIP3    H128598   5.493   1.294  14.828  1.9943  0.0745 -0.1382
 2369TIP3    H228599   5.426   1.158  14.835 -0.3391  1.1290 -0.8107
 2370TIP3   OH228600   3.104   2.615   0.053 -0.0037 -0.5483  0.1089
 2370TIP3    H128601   3.068   2.702   0.031  0.0153 -0.3413  0.8954
 2370TIP3    H228602   3.163   2.595  -0.019  1.0545  0.7075  0.6037
 2371TIP3   OH228603   5.026   0.237   0.484 -0.2430  0.6022  0.2193
 2371TIP3    H128604   4.956   0.279   0.434 -0.5103  0.4272  0.4460
 2371TIP3    H228605   4.998   0.146   0.493  0.9461  0.0108 -1.4283
 2372TIP3   OH228606   5.506   0.252   0.494  0.8794  0.0027 -0.5906
 2372TIP3    H128607   5.551   0.309   0.431  0.3146  1.2134  0.0693
 2372TIP3    H228608   5.542   0.165   0.477  0.3113  0.1507 -3.0098
 2373TIP3   OH228609   3.679   5.856   3.814 -0.2544 -0.1529 -0.2386
 2373TIP3    H128610   3.627   5.799   3.871  0.2358 -0.1289  0.2373
 2373TIP3    H228611   3.681   5.811   3.730  2.5454 -2.3410  0.8360
 2374TIP3   OH228612   5.307   1.784  11.818 -0.0055 -0.1191  0.1789
 2374TIP3    H128613   5.259   1.809  11.740 -0.8201 -0.5665  0.5202
 2374TIP3    H228614   5.383   1.736  11.786  0.1397  0.4714 -0.3658
 2375TIP3   OH228615   3.390   2.690   1.431 -0.5080 -0.1189 -0.4237
 2375TIP3    H128616   3.473   2.719   1.471 -0.1291 -2.3299  0.5078
 2375TIP3    H228617   3.371   2.757   1.366  0.4974  1.9877  1.3115
 2376TIP3   OH228618   1.455   5.140  16.250 -0.0616  0.2286 -0.3043
 2376TIP3    H128619   1.386   5.152  16.316 -0.9957  1.4908 -1.4537
 2376TIP3    H228620   1.535   5.169  16.294 -0.3566 -0.6079  0.8287
 2377TIP3   OH228621   6.730   1.530   2.652 -0.1449 -0.7844  0.2419
 2377TIP3    H128622   6.759   1.595   2.715  1.5023 -2.4214  1.2774
 2377TIP3    H228623   6.636   1.548   2.640  0.2926  1.8909  0.2400
 2378TIP3   OH228624   1.447   4.865  12.902 -0.1127  0.1079 -0.4687
 2378TIP3    H128625   1.411   4.835  12.818  0.1827 -0.5780 -0.3605
 2378TIP3    H228626   1.521   4.806  12.918 -0.7472 -0.3814  0.7450
 2379TIP3   OH228627   0.616   1.212   3.458  0.6469 -0.1350  0.0461
 2379TIP3    H128628   0.678   1.186   3.526  2.0210  2.2564 -0.1656
 2379TIP3    H228629   0.622   1.308   3.455 -0.7759 -0.0306 -2.1396
 2380TIP3   OH228630   1.945   0.466  17.047  0.0632  0.1487  0.2990
 2380TIP3    H128631   1.991   0.535  17.095 -0.6358  0.4336  0.5693
 2380TIP3    H228632   1.904   0.412  17.115  0.0448 -0.1421  0.0613
 2381TIP3   OH228633   0.887   2.722  13.397  0.1492  0.0202 -0.3981
 2381TIP3    H128634   0.813   2.763  13.440 -1.4414 -1.9370 -1.0993
 2381TIP3    H228635   0.920   2.658  13.461  0.6671  0.2547 -0.4218
 2382TIP3   OH228636   0.900   1.472  14.692 -0.3151  0.5233  0.5376
 2382TIP3    H128637   0.847   1.396  14.715 -2.3787  1.9116  0.6981
 2382TIP3    H228638   0.903   1.470  14.596 -0.1012  0.0687  0.5531
 2383TIP3   OH228639   1.147   4.919  14.174  0.5422 -0.1460 -0.2057
 2383TIP3    H128640   1.238   4.910  14.201 -0.0895 -0.7112  1.9050
 2383TIP3    H228641   1.135   4.851  14.108  1.2959 -1.0011  0.5127
 2384TIP3   OH228642   0.785   1.189   0.059  0.7412  0.1524  0.1666
 2384TIP3    H128643   0.785   1.121  -0.008  0.4785  0.3513 -0.0386
 2384TIP3    H228644   0.836   1.260   0.021  0.7877  0.1749  0.2714
 2385TIP3   OH228645   3.646   3.624   0.476  0.0665 -0.4836  0.6527
 2385TIP3    H128646   3.714   3.574   0.430 -0.9307 -0.5726 -0.8012
 2385TIP3    H228647   3.642   3.585   0.563  0.8548 -1.4363  0.2787
 2386TIP3   OH228648   2.691   0.541  11.202 -0.2710  0.0175 -0.0159
 2386TIP3    H128649   2.655   0.481  11.137 -0.1790 -0.9714  0.8173
 2386TIP3    H228650   2.654   0.512  11.285  0.0593  0.8946  0.4547
 2387TIP3   OH228651   1.092   6.284   4.248  0.2458  0.2913 -0.1436
 2387TIP3    H128652   1.028   6.343   4.290  0.8449  1.2847 -0.5892
 2387TIP3    H228653   1.076   6.199   4.289  0.7946  1.2065  2.1211
 2388TIP3   OH228654   0.411   2.339  15.368 -0.0134 -0.5176  0.8380
 2388TIP3    H128655   0.485   2.350  15.308  1.4784 -1.1278  2.4852
 2388TIP3    H228656   0.445   2.364  15.453 -1.4770 -1.6145  1.7970
 2389TIP3   OH228657   6.651   4.060   0.973 -0.6601  0.2493  0.4797
 2389TIP3    H128658   6.681   4.146   1.003  0.0822 -0.3709  1.5955
 2389TIP3    H228659   6.702   3.998   1.025 -4.0751 -0.9262  2.7657
 2390TIP3   OH228660   0.806   6.030   2.407  0.1390 -0.5433  0.4068
 2390TIP3    H128661   0.845   5.970   2.342  1.5961  1.0713 -0.2767
 2390TIP3    H228662   0.792   5.975   2.484 -0.3165 -2.1933 -0.7838
 2391TIP3   OH228663   2.091   4.251   0.665  0.4023  0.2144 -0.7811
 2391TIP3    H128664   2.151   4.191   0.709  2.5854  1.4866 -1.8059
 2391TIP3    H228665   2.101   4.232   0.572  0.8452  1.8194 -1.1042
 2392TIP3   OH228666   4.416   0.536   4.895 -0.0909  0.5817  0.5019
 2392TIP3    H128667   4.484   0.583   4.944 -0.3115  0.7423  0.6563
 2392TIP3    H228668   4.335   0.556   4.941 -0.4300  1.4423 -0.4195
 2393TIP3   OH228669   4.264   2.778  16.981 -0.2424  0.1131 -0.4459
 2393TIP3    H128670   4.356   2.803  16.997  0.1338 -0.9683 -0.8323
 2393TIP3    H228671   4.247   2.807  16.891 -0.3346  0.4476 -0.3232
 2394TIP3   OH228672   2.695   5.673   5.171  0.0103 -0.0804  0.2111
 2394TIP3    H128673   2.763   5.607   5.159  2.7426  2.5192  0.1520
 2394TIP3    H228674   2.645   5.642   5.246  1.2257 -2.1445  0.2522
 2395TIP3   OH228675   4.241   4.510  14.660 -0.0548  0.4123  0.0879
 2395TIP3    H128676   4.172   4.493  14.724  0.0236  1.4248  0.4631
 2395TIP3    H228677   4.272   4.423  14.634 -2.1374 -0.1266 -0.8298
 2396TIP3   OH228678   4.950   2.500   2.210 -0.1388  0.1692  0.0124
 2396TIP3    H128679   4.873   2.478   2.158 -0.7225  1.3064  0.3484
 2396TIP3    H228680   4.927   2.472   2.299  0.9195 -1.9200 -0.3256
 2397TIP3   OH228681   1.567   3.030  12.587  0.4449 -0.3750 -0.2412
 2397TIP3    H128682   1.638   3.000  12.643 -0.9916  0.1859  2.0249
 2397TIP3    H228683   1.493   2.972  12.609 -0.7464  1.1766  0.0441
 2398TIP3   OH228684   6.783   5.139  11.311  0.0133  0.2307  0.4028
 2398TIP3    H128685   6.739   5.098  11.236 -0.2591  2.3893 -0.6731
 2398TIP3    H228686   6.720   5.130  11.383  0.3987 -2.1215  0.5368
 2399TIP3   OH228687   2.800   0.473  14.818 -0.5883 -0.4040  0.0814
 2399TIP3    H128688   2.875   0.424  14.783  0.3143  0.5160  0.6485
 2399TIP3    H228689   2.786   0.543  14.755 -0.7269 -0.3556  0.1659
 2400TIP3   OH228690   5.890   2.930  14.301 -0.5948 -0.4903 -0.3895
 2400TIP3    H128691   5.801   2.953  14.328  0.0587 -0.9147  2.3794
 2400TIP3    H228692   5.899   2.837  14.323  0.4011 -0.5718 -1.0524
 2401TIP3   OH228693   5.300   2.552   6.557  0.1848  0.1959 -0.3530
 2401TIP3    H128694   5.337   2.589   6.477  0.9523  0.4653  0.1214
 2401TIP3    H228695   5.257   2.471   6.528  0.4464  0.2944 -1.0390
 2402TIP3   OH228696   2.441   1.599   6.144  0.5153  0.0809  0.3529
 2402TIP3    H128697   2.361   1.628   6.100  0.4360 -0.9454 -0.2241
 2402TIP3    H228698   2.430   1.504   6.152  2.3609 -0.3109 -1.1541
 2403TIP3   OH228699   2.210   2.566  16.562 -0.1487 -0.0479  0.4273
 2403TIP3    H128700   2.280   2.520  16.516  0.6158  2.2162 -0.8542
 2403TIP3    H228701   2.152   2.598  16.493 -1.8315 -0.8701  1.4001
 2404TIP3   OH228702   5.216   4.972   0.506 -0.4246 -0.2424 -0.0724
 2404TIP3    H128703   5.201   4.924   0.425  0.0212 -0.5857  0.0436
 2404TIP3    H228704   5.300   5.017   0.492 -1.0743  0.9295 -0.3781
 2405TIP3   OH228705   6.552   4.562  17.295 -1.0806 -0.2092  0.6963
 2405TIP3    H128706   6.493   4.496  17.258 -1.7788  1.3837 -1.2072
 2405TIP3    H228707   6.513   4.645  17.270  2.4625  0.9840 -1.5950
 2406TIP3   OH228708   3.331   2.532  17.230  0.3547  0.7311  0.4135
 2406TIP3    H128709   3.383   2.589  17.288  1.3595  0.7322 -0.4551
 2406TIP3    H228710   3.396   2.491  17.173 -0.6656  1.3393 -1.2456
 2407TIP3   OH228711   2.870   0.353  10.410  0.2764  0.2578 -0.4310
 2407TIP3    H128712   2.921   0.409  10.468  0.0565  1.4475 -1.3505
 2407TIP3    H228713   2.782   0.390  10.411  0.3788  0.6124 -1.8750
 2408TIP3   OH228714   2.604   3.353  14.928  0.1806 -0.4384  0.1348
 2408TIP3    H128715   2.621   3.317  14.841 -2.6123  0.3581 -0.8509
 2408TIP3    H228716   2.634   3.286  14.989 -1.4327 -2.8268 -1.5500
 2409TIP3   OH228717   4.463   3.664  15.329  0.0183  0.2836 -0.4108
 2409TIP3    H128718   4.371   3.677  15.354 -0.0919  0.6768 -0.9875
 2409TIP3    H228719   4.460   3.650  15.235  0.7293  2.5602 -0.8262
 2410TIP3   OH228720   0.902   0.535  16.207 -0.1097 -0.2893  0.2524
 2410TIP3    H128721   0.897   0.542  16.111  0.4371 -2.4857  0.0171
 2410TIP3    H228722   0.935   0.620  16.235 -1.8662  0.9975 -1.3487
 2411TIP3   OH228723   4.899   4.598   4.413 -0.3618  0.0315  0.2693
 2411TIP3    H128724   4.981   4.562   4.379 -1.6199 -2.5609 -0.3227
 2411TIP3    H228725   4.844   4.610   4.336 -0.2773  2.7760  0.5336
 2412TIP3   OH228726   6.684   4.993  11.091  0.5040  0.0210  0.2304
 2412TIP3    H128727   6.703   5.043  11.011 -0.0902  0.4676  0.3572
 2412TIP3    H228728   6.591   4.971  11.083  0.0480  1.3673  1.4891
 2413TIP3   OH228729   5.465   5.958   3.200 -0.4653  0.7379  0.1110
 2413TIP3    H128730   5.413   5.962   3.120  0.6832  1.7659 -0.6088
 2413TIP3    H228731   5.476   5.864   3.216 -2.7389  0.4608  0.4650
 2414TIP3   OH228732   3.537   2.687  13.788 -0.4748  0.1612 -0.6351
 2414TIP3    H128733   3.597   2.758  13.811 -2.6300  2.4831 -1.6816
 2414TIP3    H228734   3.498   2.661  13.872  0.4595  0.0645 -0.2167
 2415TIP3   OH228735   5.183   5.648   1.902  0.2944  0.0236 -0.0579
 2415TIP3    H128736   5.154   5.615   1.987  1.1604  0.4878  0.4409
 2415TIP3    H228737   5.222   5.572   1.859  1.1291  0.0757  0.5613
 2416TIP3   OH228738   5.450   4.966  16.869  0.4899 -0.8668 -0.1806
 2416TIP3    H128739   5.472   4.987  16.959 -0.1586 -0.1819 -0.1726
 2416TIP3    H228740   5.502   5.027  16.816  1.0101 -1.3903 -0.2842
 2417TIP3   OH228741   4.654   6.681  15.778 -0.4437 -0.4530  0.0245
 2417TIP3    H128742   4.636   6.618  15.709 -1.8075  0.6741 -0.6906
 2417TIP3    H228743   4.616   6.763  15.748 -1.8229 -0.0978  2.4295
 2418TIP3   OH228744   3.970   0.838  10.586  0.5568  0.0290  0.3141
 2418TIP3    H128745   3.979   0.852  10.491 -0.7370  0.2661  0.2145
 2418TIP3    H228746   3.999   0.921  10.625  0.6632  0.0880  0.1114
 2419TIP3   OH228747   2.554   6.202  13.695 -0.5100 -0.4702 -0.3735
 2419TIP3    H128748   2.473   6.219  13.742  0.0209  0.2945  0.2947
 2419TIP3    H228749   2.617   6.177  13.762 -0.0749 -0.6330 -0.8302
 2420TIP3   OH228750   1.571   4.381  14.785 -0.0331  0.0578  0.1578
 2420TIP3    H128751   1.632   4.365  14.713  0.4625  0.1411  0.5482
 2420TIP3    H228752   1.501   4.317  14.773  0.2488 -0.1891 -0.1703
 2421TIP3   OH228753   3.728   3.597   2.195 -0.4741  0.0236 -0.2107
 2421TIP3    H128754   3.724   3.680   2.148  1.1406  1.0005  1.2699
 2421TIP3    H228755   3.655   3.601   2.257 -1.3292 -0.3716 -1.1532
 2422TIP3   OH228756   6.048   2.907  12.225 -0.3243  0.1969 -0.1508
 2422TIP3    H128757   6.040   2.822  12.181 -1.6466  0.8799 -1.3363
 2422TIP3    H228758   6.050   2.886  12.318  0.3662 -1.1818 -0.4557
 2423TIP3   OH228759   1.131   2.547  16.164 -0.5188 -0.6366 -0.2765
 2423TIP3    H128760   1.215   2.517  16.128  0.0602  0.6098 -0.0267
 2423TIP3    H228761   1.155   2.604  16.236 -1.4646  1.7050 -1.6974
 2424TIP3   OH228762   5.293   0.629   2.427  0.1947  0.0130  0.2432
 2424TIP3    H128763   5.361   0.569   2.396 -0.4778 -0.3909 -0.4525
 2424TIP3    H228764   5.322   0.654   2.515 -0.0136 -2.0871  0.9521
 2425TIP3   OH228765   6.707   1.005   2.350 -0.5795  0.1617  0.1797
 2425TIP3    H128766   6.759   1.063   2.294  0.4528 -1.5402 -0.6953
 2425TIP3    H228767   6.687   1.059   2.427  2.1224  1.0475  0.3635
 2426TIP3   OH228768   6.611   5.649  11.327 -0.6834 -0.1187 -0.3807
 2426TIP3    H128769   6.582   5.611  11.244  0.2803  0.6243 -1.0835
 2426TIP3    H228770   6.669   5.583  11.364  0.9080  0.5624 -1.5478
 2427TIP3   OH228771   4.874   3.413   4.025  0.6144  0.2999 -0.1403
 2427TIP3    H128772   4.916   3.440   4.107 -0.6204  2.7569 -0.2242
 2427TIP3    H228773   4.836   3.493   3.990  0.9115 -0.7153 -3.0633
 2428TIP3   OH228774   3.960   1.192   0.964 -0.2658  0.0391 -0.5994
 2428TIP3    H128775   3.912   1.217   0.885 -0.2208  1.0525 -0.3264
 2428TIP3    H228776   3.925   1.250   1.032  0.8817  0.3455 -0.2548
 2429TIP3   OH228777   4.486   0.046  12.872 -0.2551  0.5984  0.5376
 2429TIP3    H128778   4.477   0.129  12.825 -1.4044 -0.2754 -0.8744
 2429TIP3    H228779   4.469   0.068  12.964  1.2969  2.2234  0.4797
 2430TIP3   OH228780   3.590   5.172  12.355  0.0785  0.2672  0.1542
 2430TIP3    H128781   3.626   5.247  12.401  2.6066 -0.6818 -0.1001
 2430TIP3    H228782   3.553   5.117  12.423  1.7158 -0.0354  0.8448
 2431TIP3   OH228783   3.257   2.597  11.728  0.1373 -0.6532 -1.0508
 2431TIP3    H128784   3.219   2.514  11.754 -0.4656 -0.5750 -1.6502
 2431TIP3    H228785   3.233   2.607  11.636 -0.3302  0.4635 -0.8329
 2432TIP3   OH228786   1.883   6.335  17.144 -0.4289  0.3585  0.1769
 2432TIP3    H128787   1.801   6.366  17.106 -0.8639  1.0817  1.6154
 2432TIP3    H228788   1.913   6.267  17.084 -0.1729  2.5451 -2.3364
 2433TIP3   OH228789   0.003   0.208   4.127 -0.0319  0.2721 -0.8158
 2433TIP3    H128790   0.037   0.143   4.189  0.3264 -0.2780 -1.5804
 2433TIP3    H228791  -0.085   0.227   4.159  0.6012  0.9791  0.6196
 2434TIP3   OH228792   0.958   6.137   1.635 -0.3253 -0.2783  0.4521
 2434TIP3    H128793   0.911   6.198   1.579  1.3974  0.1897 -0.5689
 2434TIP3    H228794   0.901   6.061   1.642 -1.4103  0.4355 -0.3522
 2435TIP3   OH228795   6.363   6.145   4.933 -0.4617  0.1884 -0.3781
 2435TIP3    H128796   6.313   6.072   4.898  0.4697  0.5365 -2.6321
 2435TIP3    H228797   6.439   6.104   4.975  1.3298 -0.2577 -3.6737
 2436TIP3   OH228798   5.115   2.793   3.958 -0.4440 -0.5181 -0.1384
 2436TIP3    H128799   5.158   2.725   4.011  0.6938  0.0271 -0.3275
 2436TIP3    H228800   5.057   2.745   3.899 -0.3387 -1.2570  0.3506
 2437TIP3   OH228801   4.266   2.302   3.587 -0.2441 -0.0952  0.0190
 2437TIP3    H128802   4.180   2.309   3.629  0.3613  2.5036  1.0569
 2437TIP3    H228803   4.249   2.323   3.495 -0.9814 -1.6801 -0.2378
 2438TIP3   OH228804   3.581   0.295  12.431  0.0696  0.8750 -0.0365
 2438TIP3    H128805   3.657   0.289  12.489 -0.1394  2.9473  0.4990
 2438TIP3    H228806   3.506   0.289  12.489 -0.1743  0.5312 -0.3816
 2439TIP3   OH228807   1.350   1.010   4.419  0.4166  0.1618  0.1913
 2439TIP3    H128808   1.380   0.948   4.485 -0.5188  0.8080  1.2535
 2439TIP3    H228809   1.424   1.020   4.359  1.6647  0.3510  1.7212
 2440TIP3   OH228810   6.339   6.349  15.188  0.0178 -0.2476  0.4096
 2440TIP3    H128811   6.306   6.318  15.104 -0.0014 -0.2495  0.4185
 2440TIP3    H228812   6.434   6.352  15.176 -0.0376  0.4612  0.1474
 2441TIP3   OH228813   3.189   4.994  12.567 -0.1717  0.6042 -0.1890
 2441TIP3    H128814   3.205   4.962  12.656 -0.2015  1.4848  0.1420
 2441TIP3    H228815   3.133   5.070  12.579  0.8827  1.5082 -0.8588
 2442TIP3   OH228816   1.367   1.867  12.056  0.0158  0.1123  0.1184
 2442TIP3    H128817   1.326   1.937  12.107  1.7383  1.3574 -0.1091
 2442TIP3    H228818   1.451   1.852  12.100  1.5178  1.1467 -2.1901
 2443TIP3   OH228819   3.464   6.614  15.271 -0.3706 -0.1715 -0.1811
 2443TIP3    H128820   3.491   6.621  15.363 -0.2874 -0.5719 -0.1729
 2443TIP3    H228821   3.530   6.662  15.222 -1.1778  1.2636  0.0902
 2444TIP3   OH228822   1.955   6.634  11.431 -0.4842  0.2491  0.3029
 2444TIP3    H128823   2.027   6.631  11.368 -0.9149  0.9774 -0.2269
 2444TIP3    H228824   1.877   6.614  11.380 -0.9806  1.8892  0.3681
 2445TIP3   OH228825   3.827   1.872  17.078 -0.4878 -0.1165  0.6102
 2445TIP3    H128826   3.745   1.856  17.123 -0.2006  2.1353  2.0878
 2445TIP3    H228827   3.803   1.879  16.986 -1.5201 -1.9335  0.6960
 2446TIP3   OH228828   0.943   0.819   4.243 -0.2901 -0.9105 -0.2627
 2446TIP3    H128829   0.873   0.798   4.181 -0.7986 -0.4403  0.1479
 2446TIP3    H228830   1.020   0.831   4.187 -0.7660 -0.3801 -0.8246
 2447TIP3   OH228831   2.615   1.892   0.781  0.3143  0.2522  0.8345
 2447TIP3    H128832   2.656   1.827   0.724  0.2476 -1.5125  2.6924
 2447TIP3    H228833   2.522   1.870   0.779 -0.0954  1.8923 -0.4265
 2448TIP3   OH228834   3.375   2.434   2.449 -0.2354  0.5031  0.0307
 2448TIP3    H128835   3.333   2.450   2.365  0.6566 -0.3014 -0.5872
 2448TIP3    H228836   3.458   2.481   2.444 -0.3768  0.8335  0.6521
 2449TIP3   OH228837   1.330   5.339   5.428 -0.1248  0.0483  0.7312
 2449TIP3    H128838   1.419   5.346   5.463  0.1813 -0.4033  0.0682
 2449TIP3    H228839   1.301   5.430   5.418  1.1033  0.2825 -1.1283
 2450TIP3   OH228840   0.236   3.869  13.553  0.1982 -0.1810 -0.4417
 2450TIP3    H128841   0.171   3.925  13.594 -1.5522 -1.5436 -1.2417
 2450TIP3    H228842   0.238   3.790  13.607 -0.4072 -1.0262 -1.6173
 2451TIP3   OH228843   3.502   3.781   1.228 -0.0119 -0.5799  0.0219
 2451TIP3    H128844   3.504   3.866   1.271  0.8547 -0.5585 -0.0423
 2451TIP3    H228845   3.449   3.794   1.150 -1.4801 -0.5790  0.9823
 2452TIP3   OH228846   0.716   6.683  10.831 -0.3333 -0.2292 -0.0414
 2452TIP3    H128847   0.649   6.622  10.798  1.0595 -1.2845 -1.0919
 2452TIP3    H228848   0.750   6.640  10.909 -0.3649 -0.0671  0.0603
 2453TIP3   OH228849   3.991   6.778   6.160  0.3763 -0.5293  0.6671
 2453TIP3    H128850   4.005   6.837   6.234  3.7699  0.2023 -0.3875
 2453TIP3    H228851   4.033   6.696   6.187 -2.2630 -1.8090  1.1932
 2454TIP3   OH228852   1.190   0.846   4.679  0.4441 -0.7442 -0.3780
 2454TIP3    H128853   1.241   0.805   4.609  0.8036  1.0193 -1.1883
 2454TIP3    H228854   1.121   0.894   4.634 -3.1672 -4.3748  0.6875
 2455TIP3   OH228855   3.583   4.948  14.824  0.1573 -0.0744  0.2656
 2455TIP3    H128856   3.513   4.991  14.872  1.0742  2.6692 -0.6465
 2455TIP3    H228857   3.549   4.938  14.735  0.2963 -0.3505  0.2412
 2456TIP3   OH228858   4.561   4.701   3.652  0.6223  0.4025  0.4395
 2456TIP3    H128859   4.602   4.786   3.671  1.7645  0.0290 -0.2644
 2456TIP3    H228860   4.594   4.642   3.719  0.7301  0.2476  0.2502
 2457TIP3   OH228861   4.898   2.831   3.070 -0.3211  0.2168 -0.4654
 2457TIP3    H128862   4.854   2.787   2.998  0.5088 -0.9300 -0.2941
 2457TIP3    H228863   4.968   2.771   3.097  0.7627  1.5648 -0.1268
 2458TIP3   OH228864   2.951   1.493  13.093 -0.6711  0.1232 -0.0610
 2458TIP3    H128865   2.887   1.421  13.097 -1.0623  0.5050  1.0992
 2458TIP3    H228866   2.989   1.486  13.006 -0.9042 -1.3259 -0.0810
 2459TIP3   OH228867   3.156   6.020  13.871  0.1692  0.3661 -0.8018
 2459TIP3    H128868   3.222   6.025  13.940  0.3009  1.2463 -0.9767
 2459TIP3    H228869   3.089   6.084  13.898 -0.4527 -0.2671 -0.8003
 2460TIP3   OH228870   5.461   2.400  13.982 -0.0631  0.5266  0.1398
 2460TIP3    H128871   5.554   2.406  13.962 -0.2596  0.8015 -0.7700
 2460TIP3    H228872   5.433   2.490  13.992  0.4761  0.4153  4.1786
 2461TIP3   OH228873   5.387   4.491  12.672 -0.4601 -0.2530 -0.2916
 2461TIP3    H128874   5.431   4.440  12.739  0.6355 -1.5493 -1.9011
 2461TIP3    H228875   5.294   4.474  12.686 -0.1945 -1.3149  0.2961
 2462TIP3   OH228876   6.699   3.092  16.224  0.1800  0.2931 -0.5846
 2462TIP3    H128877   6.606   3.096  16.200  0.1451  1.7417 -0.2880
 2462TIP3    H228878   6.722   3.183  16.245  0.8586 -0.4749  2.3514
 2463TIP3   OH228879   2.538   5.739  16.763 -0.7089 -0.4881  0.3712
 2463TIP3    H128880   2.620   5.689  16.770  0.2523  1.0779  0.6110
 2463TIP3    H228881   2.555   5.820  16.811 -2.0074  0.3662 -0.5518
 2464TIP3   OH228882   2.944   2.547   3.626 -0.0273 -0.7902  0.4686
 2464TIP3    H128883   2.896   2.626   3.651  1.0523 -0.7416  2.5703
 2464TIP3    H228884   2.879   2.477   3.628 -0.7978 -0.1369 -0.5519
 2465TIP3   OH228885   2.412   5.822   2.023  0.0481 -0.2992 -0.4207
 2465TIP3    H128886   2.477   5.891   2.033  0.1159 -0.4419  0.1971
 2465TIP3    H228887   2.464   5.743   2.007 -0.0711 -0.0133 -2.4537
 2466TIP3   OH228888   0.454   5.215   5.223 -0.0495 -0.0310  0.7968
 2466TIP3    H128889   0.524   5.264   5.181 -1.4514  1.3666 -0.0198
 2466TIP3    H228890   0.496   5.172   5.298  2.1932 -1.3729 -1.0912
 2467TIP3   OH228891   3.732   5.492   0.884 -0.3743 -0.2382 -0.3261
 2467TIP3    H128892   3.692   5.559   0.829 -0.7769  0.2510  0.5342
 2467TIP3    H228893   3.666   5.472   0.950  0.0724 -0.8499 -0.0501
 2468TIP3   OH228894   3.097   1.047   1.875 -0.5468  0.9629 -0.5939
 2468TIP3    H128895   3.188   1.073   1.894 -0.2245  0.8665 -1.8942
 2468TIP3    H228896   3.106   0.974   1.814 -1.4790 -0.8497  1.3115
 2469TIP3   OH228897   0.705   1.053   2.551 -0.1544 -0.1838  0.7268
 2469TIP3    H128898   0.794   1.049   2.587  0.0120 -2.4031  0.2372
 2469TIP3    H228899   0.665   0.970   2.576 -1.5409  0.0942 -0.4161
 2470TIP3   OH228900   2.775   2.080   5.677  0.1259  0.2812  0.3060
 2470TIP3    H128901   2.751   2.019   5.608 -0.6391 -0.7021  1.4097
 2470TIP3    H228902   2.809   2.025   5.747  1.1102  1.2788  0.6414
 2471TIP3   OH228903   6.119   5.342   2.255 -0.4864 -0.6258  0.3796
 2471TIP3    H128904   6.108   5.277   2.185 -1.6714 -1.4041  1.2425
 2471TIP3    H228905   6.179   5.300   2.317 -0.5997 -0.5640  0.5341
 2472TIP3   OH228906   1.287   6.581  11.313  0.0692  0.0861 -0.3006
 2472TIP3    H128907   1.304   6.597  11.406 -0.1315  1.1498 -0.4316
 2472TIP3    H228908   1.357   6.522  11.285 -0.8885 -1.7153  0.9405
 2473TIP3   OH228909   0.499   1.740   0.852  0.5197 -0.3020 -0.0157
 2473TIP3    H128910   0.492   1.648   0.825  0.0025  0.3382 -2.2969
 2473TIP3    H228911   0.409   1.772   0.856  0.7514  0.5544 -1.0745
 2474TIP3   OH228912   4.431   0.615   6.430  0.1075  0.0633 -0.3177
 2474TIP3    H128913   4.476   0.652   6.506 -0.0570 -1.9405  0.8284
 2474TIP3    H228914   4.489   0.544   6.401 -0.6582 -0.2882 -0.9941
 2475TIP3   OH228915   3.801   6.695   4.015 -0.7431  1.2210  0.3337
 2475TIP3    H128916   3.864   6.693   4.087  0.0977  1.3388 -0.3731
 2475TIP3    H228917   3.825   6.620   3.961 -3.2776 -0.7150  1.6996
 2476TIP3   OH228918   4.074   2.094   1.271 -0.5052 -0.1277  0.0357
 2476TIP3    H128919   4.083   2.008   1.229 -0.4553 -0.9669  1.6797
 2476TIP3    H228920   3.983   2.095   1.303 -0.1656 -0.0641  1.0238
 2477TIP3   OH228921   4.581   2.986  14.447  0.8800  0.6436  0.1196
 2477TIP3    H128922   4.569   2.898  14.483  1.7325  0.2305 -0.5618
 2477TIP3    H228923   4.493   3.022  14.442  0.6500  0.4716  1.9587
 2478TIP3   OH228924   3.701   4.135  15.998  0.5962 -0.4344 -0.5245
 2478TIP3    H128925   3.630   4.073  15.979  0.5332 -0.3891 -0.4395
 2478TIP3    H228926   3.660   4.221  15.995  1.1320 -0.1990 -2.8643
 2479TIP3   OH228927   6.690   1.239   0.814  0.1618  0.6506 -0.1032
 2479TIP3    H128928   6.666   1.148   0.835  1.6163  0.7079  2.0686
 2479TIP3    H228929   6.608   1.288   0.825 -0.5357 -0.3073 -0.8479
 2480TIP3   OH228930   6.593   6.443  12.241  0.1237 -0.4410  0.5228
 2480TIP3    H128931   6.515   6.485  12.204 -0.3755 -1.9668 -0.2517
 2480TIP3    H228932   6.559   6.388  12.312  0.2721 -2.1534 -0.6776
 2481TIP3   OH228933   4.158   1.295  12.681 -0.2822  0.6096  0.3192
 2481TIP3    H128934   4.171   1.211  12.724  0.8316 -0.1479 -1.3658
 2481TIP3    H228935   4.081   1.281  12.625  0.9065  0.0962 -1.2618
 2482TIP3   OH228936   3.741   5.463  15.210  0.1961  0.3738  0.1027
 2482TIP3    H128937   3.798   5.388  15.193 -2.1547 -1.6203  0.5985
 2482TIP3    H228938   3.731   5.505  15.125  1.3268  0.0203 -0.2319
 2483TIP3   OH228939   0.197   2.511  15.307 -0.1073  0.1714  0.0852
 2483TIP3    H128940   0.140   2.474  15.240 -0.7419  0.8405  0.2409
 2483TIP3    H228941   0.254   2.438  15.333  0.1504 -0.1015 -1.1614
 2484TIP3   OH228942   1.569   6.745   6.147 -0.0510 -1.1020 -0.4583
 2484TIP3    H128943   1.520   6.806   6.203  1.8597  0.7360 -0.6491
 2484TIP3    H228944   1.518   6.665   6.148 -0.6861 -0.8038  3.0352
 2485TIP3   OH228945   0.634   5.228   0.290 -0.1726  0.3131 -0.0320
 2485TIP3    H128946   0.672   5.313   0.268  1.1979 -0.4092 -0.5572
 2485TIP3    H228947   0.645   5.174   0.212 -1.0294 -0.3584  0.2843
 2486TIP3   OH228948   0.835   0.619   3.180 -0.4474  0.5556 -0.4897
 2486TIP3    H128949   0.797   0.659   3.258 -1.2045  0.8482 -0.9995
 2486TIP3    H228950   0.821   0.683   3.110  0.0288  0.2049 -0.9183
 2487TIP3   OH228951   3.454   0.221  13.359 -0.0822 -0.0022  0.3621
 2487TIP3    H128952   3.527   0.218  13.297  0.4329  2.2394  0.7738
 2487TIP3    H228953   3.496   0.239  13.444 -0.8974 -1.6314  1.1604
 2488TIP3   OH228954   6.096   0.323   0.252  0.5930  0.0705 -0.4769
 2488TIP3    H128955   6.178   0.337   0.298  0.6607 -0.7827 -0.3320
 2488TIP3    H228956   6.121   0.282   0.169  0.3136 -0.1896 -0.4344
 2489TIP3   OH228957   5.956   0.286  16.384  0.6230 -0.5812  0.0031
 2489TIP3    H128958   6.035   0.235  16.402  1.9640  1.4686  0.2972
 2489TIP3    H228959   5.913   0.293  16.469  2.0129  1.1935  0.6265
 2490TIP3   OH228960   5.080   1.036   5.684  0.6736  0.2790 -0.1373
 2490TIP3    H128961   5.063   1.128   5.664  0.3649  0.3811  0.5805
 2490TIP3    H228962   5.165   1.036   5.727  0.0734  0.3916  1.0706
 2491TIP3   OH228963   1.590   6.481   4.156 -0.1628  0.2755  0.0000
 2491TIP3    H128964   1.559   6.395   4.183  0.8676 -1.4205 -3.6004
 2491TIP3    H228965   1.509   6.531   4.140 -0.7989 -0.3265  1.2215
 2492TIP3   OH228966   3.535   3.351  13.657 -0.0309 -0.0048  0.3590
 2492TIP3    H128967   3.450   3.370  13.695 -0.0980  1.0635 -0.3023
 2492TIP3    H228968   3.559   3.266  13.695 -0.6364  0.4409  1.8176
 2493TIP3   OH228969   1.749   4.898   1.682  0.0342 -0.0347 -0.2641
 2493TIP3    H128970   1.681   4.952   1.722 -1.3158 -1.6064 -0.3548
 2493TIP3    H228971   1.826   4.912   1.737  0.0659  2.7194 -0.8573
 2494TIP3   OH228972   1.857   6.012   5.116 -0.3817 -0.2236 -0.1289
 2494TIP3    H128973   1.825   5.970   5.196 -0.1752 -1.2199 -0.5423
 2494TIP3    H228974   1.951   5.993   5.115 -0.4619 -0.6734 -0.8436
 2495TIP3   OH228975   4.167   0.650   4.071  0.4241 -0.2517  0.0618
 2495TIP3    H128976   4.146   0.710   4.142 -0.4261 -1.9122  1.2920
 2495TIP3    H228977   4.184   0.566   4.115 -1.4203 -1.6634 -1.7430
 2496TIP3   OH228978   5.806   1.703  14.418  0.1409  0.0517 -0.1020
 2496TIP3    H128979   5.731   1.649  14.443 -0.1055 -1.1008 -3.0283
 2496TIP3    H228980   5.771   1.793  14.419 -1.2617 -0.4378 -1.1936
 2497TIP3   OH228981   5.037   3.708  17.071  0.8362 -0.4106  0.1361
 2497TIP3    H128982   4.981   3.677  17.142 -0.6402 -0.3418 -0.9499
 2497TIP3    H228983   5.071   3.792  17.101 -0.3800 -0.0223  0.4579
 2498TIP3   OH228984   1.652   0.157  12.203 -0.2628  0.6096 -0.3917
 2498TIP3    H128985   1.743   0.129  12.208  0.3008  1.2649 -4.0427
 2498TIP3    H228986   1.654   0.250  12.222  0.0130  0.8285 -1.4609
 2499TIP3   OH228987   6.679   2.304   3.477  0.4114 -0.5792  0.2757
 2499TIP3    H128988   6.745   2.337   3.416 -0.2854  0.6400  0.1261
 2499TIP3    H228989   6.606   2.367   3.468 -0.0721 -0.9189  1.6720
 2500TIP3   OH228990   3.096   6.621  11.385 -0.0646  0.1310 -0.4939
 2500TIP3    H128991   3.131   6.696  11.338 -1.0937  0.7169 -0.3424
 2500TIP3    H228992   3.173   6.575  11.419  0.5711  1.0256 -0.7197
 2501TIP3   OH228993   4.527   2.304   4.784 -0.0919 -0.1547  0.2660
 2501TIP3    H128994   4.560   2.393   4.770 -0.7723 -0.0535 -0.7580
 2501TIP3    H228995   4.529   2.292   4.879  0.3714  0.8125  0.3826
 2502TIP3   OH228996   5.483   6.110   0.718  0.5506  0.5873  0.5783
 2502TIP3    H128997   5.454   6.141   0.632 -0.2220 -0.9120  0.2539
 2502TIP3    H228998   5.451   6.176   0.780 -1.6108  0.1635 -0.0015
 2503TIP3   OH228999   2.995   1.742  14.766 -0.2144  0.1713  0.6893
 2503TIP3    H129000   2.920   1.799  14.751 -0.6409 -0.8634 -1.3466
 2503TIP3    H229001   2.957   1.660  14.798  0.0171 -0.3677 -0.3852
 2504TIP3   OH229002   0.558   2.217   1.783  0.3264 -0.7023 -0.0013
 2504TIP3    H129003   0.635   2.249   1.737  0.1318 -0.2828 -0.0404
 2504TIP3    H229004   0.559   2.264   1.867 -0.0916 -0.4085 -0.1567
 2505TIP3   OH229005   0.036   3.774  13.978  1.0711  0.7737 -0.0482
 2505TIP3    H129006   0.113   3.803  14.025  1.8538 -1.3553  0.0983
 2505TIP3    H229007  -0.030   3.759  14.046  0.5785  2.3015 -0.1466
 2506TIP3   OH229008   0.826   6.181   5.169  0.6703  0.3389 -0.0680
 2506TIP3    H129009   0.731   6.189   5.155  0.0725 -1.7654  2.2013
 2506TIP3    H229010   0.855   6.117   5.104  0.1047 -0.6837  0.6770
 2507TIP3   OH229011   1.598   2.544   2.397 -0.0103 -0.3883 -0.1389
 2507TIP3    H129012   1.620   2.635   2.413  3.4212 -1.2518  0.9416
 2507TIP3    H229013   1.653   2.495   2.458 -3.7682 -3.1777  1.3862
 2508TIP3   OH229014   5.663   1.624  16.016  0.5532 -1.2899 -0.1907
 2508TIP3    H129015   5.709   1.624  15.932  0.1966 -2.0284 -0.3901
 2508TIP3    H229016   5.571   1.639  15.994  0.1698 -3.2295 -0.1241
 2509TIP3   OH229017   5.430   2.463  16.451  0.8175 -0.2435  1.0263
 2509TIP3    H129018   5.418   2.370  16.432  0.0628  0.3006 -1.4711
 2509TIP3    H229019   5.506   2.489  16.398  0.6710  0.6960  1.2550
 2510TIP3   OH229020   3.078   4.789   6.582 -0.2400  0.4373  0.0328
 2510TIP3    H129021   2.996   4.798   6.533  0.5024  1.6412 -1.0653
 2510TIP3    H229022   3.069   4.707   6.630 -1.6562  0.0140 -0.9086
 2511TIP3   OH229023   2.334   3.914   0.313 -0.0676  0.2488 -0.6992
 2511TIP3    H129024   2.261   3.937   0.371  0.7769  2.7602 -0.5312
 2511TIP3    H229025   2.370   3.998   0.285  1.9241 -0.9212 -1.8644
 2512TIP3   OH229026   1.985   5.041  15.614  0.1483  0.7147  0.0882
 2512TIP3    H129027   1.927   5.117  15.622 -1.8806 -0.5318 -1.6005
 2512TIP3    H229028   2.043   5.063  15.541  2.2800  2.1807  2.1102
 2513TIP3   OH229029   5.282   3.096   6.292  0.1793  0.3485 -0.0766
 2513TIP3    H129030   5.342   3.026   6.321  2.5281  0.9692 -2.9879
 2513TIP3    H229031   5.303   3.170   6.349  0.3240 -0.1910  0.5905
 2514TIP3   OH229032   5.654   2.987  13.276  0.9367  0.0214 -0.3148
 2514TIP3    H129033   5.610   3.019  13.355 -0.4047 -1.3681 -0.4548
 2514TIP3    H229034   5.671   2.894  13.293 -0.7473 -0.6983 -2.1902
 2515TIP3   OH229035   3.655   1.072  14.635  0.1788  0.0756  1.1978
 2515TIP3    H129036   3.685   1.054  14.724  1.8760  0.6750  0.7955
 2515TIP3    H229037   3.664   0.988  14.590 -0.1864 -0.1069  1.4637
 2516TIP3   OH229038   5.232   2.628   0.714  0.4272  0.6330 -0.1772
 2516TIP3    H129039   5.266   2.657   0.630  0.1596 -1.4974 -1.0858
 2516TIP3    H229040   5.147   2.589   0.694 -0.3214  1.3917  1.3147
 2517TIP3   OH229041   4.619   2.374  15.441 -0.1813  0.1693  0.0669
 2517TIP3    H129042   4.529   2.364  15.472  0.1018 -0.3516  0.7251
 2517TIP3    H229043   4.634   2.469  15.442 -0.4570  0.2093  0.7046
 2518TIP3   OH229044   3.880   0.641  14.187  0.0573 -0.0956 -0.0831
 2518TIP3    H129045   3.789   0.635  14.215 -0.0824 -1.2658 -0.7562
 2518TIP3    H229046   3.883   0.597  14.102  1.2628 -0.1489 -0.0321
 2519TIP3   OH229047   3.452   3.897  13.109 -0.9475  0.2075 -0.2143
 2519TIP3    H129048   3.402   3.886  13.191  0.3099 -0.1759  0.5200
 2519TIP3    H229049   3.442   3.990  13.088 -1.7432  0.1960  0.0637
 2520TIP3   OH229050   4.718   1.911   5.550 -0.0340 -0.4680  0.2767
 2520TIP3    H129051   4.625   1.906   5.529  0.2479  1.5571 -1.7898
 2520TIP3    H229052   4.752   1.825   5.524 -1.3970 -1.5976  1.9496
 2521TIP3   OH229053   5.206   0.465   3.087 -0.1853 -0.4139  0.1702
 2521TIP3    H129054   5.287   0.421   3.059  0.4235  0.8923 -0.2064
 2521TIP3    H229055   5.150   0.464   3.010  0.1025  0.0695 -0.0505
 2522TIP3   OH229056   0.487   3.351   1.930  0.0279  0.0314 -0.6167
 2522TIP3    H129057   0.411   3.370   1.985  1.0480  0.9091  0.5563
 2522TIP3    H229058   0.459   3.370   1.841 -1.4101 -0.6075 -0.3226
 2523TIP3   OH229059   0.828   0.046   3.747  0.1422 -0.3909 -0.4541
 2523TIP3    H129060   0.908   0.084   3.783  0.2915 -1.2866  0.2111
 2523TIP3    H229061   0.837   0.054   3.653  0.7268  0.0848 -0.3626
 2524TIP3   OH229062   2.922   0.771   3.974  0.0657 -0.3715  0.4298
 2524TIP3    H129063   2.850   0.817   3.930  2.8317  2.9037 -1.1245
 2524TIP3    H229064   2.902   0.776   4.067 -1.9644 -0.1160  0.0181
 2525TIP3   OH229065   3.062   4.185  11.897  0.0114 -0.5590  0.5789
 2525TIP3    H129066   2.984   4.207  11.846  1.3026  1.3440 -0.6918
 2525TIP3    H229067   3.074   4.091  11.884  0.5151 -0.1266 -3.0681
 2526TIP3   OH229068   4.553   6.545   5.581  0.6734  0.0118  0.3041
 2526TIP3    H129069   4.517   6.478   5.639 -1.1085 -1.1722 -2.0129
 2526TIP3    H229070   4.514   6.527   5.495  0.9944  3.3541 -0.6975
 2527TIP3   OH229071   4.625   0.935  14.483  0.0861  0.0563  0.0160
 2527TIP3    H129072   4.661   0.934  14.395 -0.4011 -0.2363 -0.1818
 2527TIP3    H229073   4.563   0.862  14.485 -1.3321  1.2071 -0.0080
 2528TIP3   OH229074   6.285   5.985  11.616  0.1299  0.8618 -0.5129
 2528TIP3    H129075   6.330   5.928  11.553 -0.4980  0.8778 -0.9800
 2528TIP3    H229076   6.203   6.008  11.574 -1.3407 -0.9136  1.1948
 2529TIP3   OH229077   1.633   3.859   2.226 -0.5833 -0.4001 -0.6289
 2529TIP3    H129078   1.537   3.848   2.226 -0.6429  0.0622 -0.3049
 2529TIP3    H229079   1.666   3.781   2.182 -1.1243 -0.4509 -0.9561
 2530TIP3   OH229080   4.345   6.665  12.158 -0.8383 -0.4648 -0.6470
 2530TIP3    H129081   4.329   6.571  12.160 -0.4956 -0.5237 -0.7118
 2530TIP3    H229082   4.408   6.678  12.087 -0.6413 -0.2211 -0.4283
 2531TIP3   OH229083   5.633   5.300  16.870  0.3357 -0.0562  0.6446
 2531TIP3    H129084   5.553   5.353  16.864  0.3207  0.1586  2.2696
 2531TIP3    H229085   5.616   5.225  16.813 -0.4024  0.7277 -0.2126
 2532TIP3   OH229086   0.677   2.533   5.960 -0.3715 -0.5437  0.7601
 2532TIP3    H129087   0.663   2.446   5.923 -1.9754  0.4663 -1.1771
 2532TIP3    H229088   0.631   2.531   6.044 -2.4403 -0.8991 -0.3138
 2533TIP3   OH229089   6.168   0.432   5.653  0.5402  0.1069  0.2458
 2533TIP3    H129090   6.264   0.432   5.652  0.6001 -1.6978  1.4281
 2533TIP3    H229091   6.145   0.443   5.745 -0.4220  0.9116 -0.0709
 2534TIP3   OH229092   4.802   4.562  11.501 -0.3617 -0.4504 -0.0133
 2534TIP3    H129093   4.813   4.631  11.436 -0.7326 -0.2234  0.1603
 2534TIP3    H229094   4.709   4.562  11.521 -0.4126 -1.2047 -0.2249
 2535TIP3   OH229095   3.138   4.151   1.569 -0.0272  0.5994 -0.0944
 2535TIP3    H129096   3.121   4.230   1.621 -2.4079  0.0257  0.1369
 2535TIP3    H229097   3.206   4.104   1.617 -1.4995  0.5366  2.0437
 2536TIP3   OH229098   2.482   1.069   4.761 -0.0199  0.5955 -0.0958
 2536TIP3    H129099   2.476   1.031   4.674  0.7587  0.1395  0.0421
 2536TIP3    H229100   2.571   1.051   4.790 -0.1211  1.1466  0.6127
 2537TIP3   OH229101   5.669   0.146  13.379  0.2779 -0.0679 -0.0256
 2537TIP3    H129102   5.642   0.238  13.377 -0.3808 -0.2412 -1.9691
 2537TIP3    H229103   5.719   0.137  13.459 -0.9812  1.6032  1.0176
 2538TIP3   OH229104   1.616   0.451   5.807  0.3494  0.8184 -0.3070
 2538TIP3    H129105   1.593   0.470   5.898 -0.8312 -0.4145 -0.3250
 2538TIP3    H229106   1.535   0.467   5.759 -0.0678 -1.8537 -0.6376
 2539TIP3   OH229107   5.338   2.860  11.715 -1.1007 -0.0438  0.0805
 2539TIP3    H129108   5.270   2.928  11.711 -2.4618 -1.3785 -0.8114
 2539TIP3    H229109   5.294   2.786  11.757 -0.0490 -0.8027 -0.1412
 2540TIP3   OH229110   5.261   6.246  14.034  0.5134  0.2128  0.8990
 2540TIP3    H129111   5.298   6.224  13.948  1.0490 -1.7913  1.5817
 2540TIP3    H229112   5.299   6.182  14.093 -1.1992  0.4366  2.3272
 2541TIP3   OH229113   6.780   1.376  11.955  0.2740 -0.0362 -0.6504
 2541TIP3    H129114   6.873   1.356  11.950  0.4337  0.8225 -1.4276
 2541TIP3    H229115   6.772   1.439  12.027  0.3375  0.0990 -0.7613
 2542TIP3   OH229116   0.689   4.918  13.763 -0.1345  0.1572  0.1639
 2542TIP3    H129117   0.773   4.958  13.740  0.3970 -1.7003 -1.3796
 2542TIP3    H229118   0.711   4.852  13.829 -0.4589  0.0845  0.2020
 2543TIP3   OH229119   0.305   6.692   0.337 -0.5592  0.0625 -0.3038
 2543TIP3    H129120   0.325   6.784   0.323  1.2635 -0.3926 -0.9604
 2543TIP3    H229121   0.215   6.681   0.305 -0.4392  1.4021 -1.1561
 2544TIP3   OH229122   3.366   2.873   2.429  0.1666  0.6686 -0.4563
 2544TIP3    H129123   3.427   2.822   2.482 -3.1789 -0.2169  2.9899
 2544TIP3    H229124   3.369   2.961   2.465  0.0057  0.8286 -0.8223
 2545TIP3   OH229125   4.880   4.083  11.534  0.5625  0.0048 -0.3337
 2545TIP3    H129126   4.953   4.123  11.582  1.1309 -0.7845 -0.5152
 2545TIP3    H229127   4.920   4.044  11.456 -0.1148 -0.1070 -0.6387
 2546TIP3   OH229128   4.127   6.494   1.111 -0.1658 -0.1176  0.2964
 2546TIP3    H129129   4.077   6.443   1.175  0.4321 -0.2380  0.6699
 2546TIP3    H229130   4.194   6.433   1.079 -1.9692 -0.9350 -2.3486
 2547TIP3   OH229131   2.101   5.673   0.719 -0.0274  0.8587 -0.8431
 2547TIP3    H129132   2.186   5.648   0.755 -0.2221 -0.1565 -1.0533
 2547TIP3    H229133   2.121   5.712   0.633  0.1508 -0.7252 -1.5570
 2548TIP3   OH229134   3.043   3.185  17.219  0.4068  0.2073  0.2284
 2548TIP3    H129135   2.968   3.217  17.168 -0.7150 -0.4966  1.3866
 2548TIP3    H229136   3.112   3.174  17.154 -0.1846  1.7666 -0.7343
 2549TIP3   OH229137   0.788   0.501  16.626 -0.0058 -0.3711 -0.4108
 2549TIP3    H129138   0.795   0.462  16.713 -0.4548 -1.1225 -0.6950
 2549TIP3    H229139   0.861   0.463  16.577  0.5541  0.4462 -0.2235
 2550TIP3   OH229140   6.711   5.971  15.981  0.1879 -0.7875  0.1483
 2550TIP3    H129141   6.703   6.031  15.906 -1.9105 -0.4510  0.5951
 2550TIP3    H229142   6.672   6.019  16.054 -0.8541 -2.3935  0.6779
 2551TIP3   OH229143   2.836   3.315  17.114  0.0677  0.0074 -0.0029
 2551TIP3    H129144   2.846   3.396  17.163  2.5647 -0.8410  1.0735
 2551TIP3    H229145   2.763   3.270  17.155 -0.3103  0.9895  0.4222
 2552TIP3   OH229146   1.073   2.423  11.700  0.5148 -0.2961  0.1923
 2552TIP3    H129147   1.129   2.347  11.713  2.8372  1.1360 -0.7365
 2552TIP3    H229148   1.005   2.392  11.641  3.0383 -1.0671 -2.5659
 2553TIP3   OH229149   5.253   5.500   5.241  0.1180  0.0390  0.5292
 2553TIP3    H129150   5.334   5.522   5.287  0.1296  0.0752  0.4920
 2553TIP3    H229151   5.223   5.582   5.203  0.3170 -0.0658  0.1455
 2554TIP3   OH229152   0.828   0.002   0.513 -0.6260  0.4482  0.3102
 2554TIP3    H129153   0.779  -0.012   0.594  1.6453  1.4846  2.0008
 2554TIP3    H229154   0.790   0.082   0.476 -0.0674  1.4432  1.7738
 2555TIP3   OH229155   4.548   5.200  11.259 -0.0227 -0.0855  0.1587
 2555TIP3    H129156   4.513   5.275  11.306 -2.5747 -0.9496 -0.2046
 2555TIP3    H229157   4.601   5.238  11.189 -0.5735  1.3568  0.4827
 2556TIP3   OH229158   0.324   2.474   5.702  0.1778  0.4565  0.1072
 2556TIP3    H129159   0.312   2.514   5.616 -1.9639 -1.0110 -0.3511
 2556TIP3    H229160   0.415   2.442   5.701 -0.1667 -0.6733 -2.1386
 2557TIP3   OH229161   0.807   2.305   3.598 -0.2061  0.1299  0.0442
 2557TIP3    H129162   0.741   2.271   3.537 -0.4313 -0.1648  0.4464
 2557TIP3    H229163   0.755   2.349   3.666 -0.0179 -0.5762  0.6524
 2558TIP3   OH229164   1.899   4.951  12.269 -0.3874  0.5547  0.2696
 2558TIP3    H129165   1.960   4.928  12.199  0.9032  1.4188  1.0620
 2558TIP3    H229166   1.812   4.929  12.234  0.4821 -3.1466  0.0442
 2559TIP3   OH229167   1.368   4.723  12.648  0.7172 -0.0413 -0.5933
 2559TIP3    H129168   1.347   4.649  12.591  1.2079  0.3548 -1.2973
 2559TIP3    H229169   1.400   4.791  12.589  0.0263  0.8393  0.0053
 2560TIP3   OH229170   3.866   2.895  16.088 -0.2220 -0.2606  0.1814
 2560TIP3    H129171   3.848   2.923  15.998 -0.6252 -0.8166  0.0801
 2560TIP3    H229172   3.831   2.966  16.142  1.1449  0.6648 -0.1179
 2561TIP3   OH229173   6.340   6.801   6.116 -0.2190 -0.4563  0.0588
 2561TIP3    H129174   6.346   6.838   6.028 -1.2677  1.1849  0.6397
 2561TIP3    H229175   6.249   6.813   6.141  0.4307  0.8603  2.0749
 2562TIP3   OH229176   4.316   1.677  14.157 -0.6245  0.5866  0.5471
 2562TIP3    H129177   4.307   1.591  14.199  2.3383  1.0100  2.3205
 2562TIP3    H229178   4.231   1.718  14.169 -2.4121 -2.2830 -1.0349
 2563TIP3   OH229179   6.558   5.072   5.244 -0.0930  0.7832 -0.5110
 2563TIP3    H129180   6.492   5.104   5.305  1.6580  2.0322  0.8245
 2563TIP3    H229181   6.521   4.992   5.208 -2.1063  1.1839  0.5549
 2564TIP3   OH229182   5.802   6.506   5.710 -0.2649 -0.7943  0.5018
 2564TIP3    H129183   5.732   6.531   5.771  1.2012 -0.1606  2.0240
 2564TIP3    H229184   5.786   6.559   5.632 -1.5548 -0.7867  0.7448
 2565TIP3   OH229185   3.354   6.295  14.207 -0.1797 -0.2983  0.0592
 2565TIP3    H129186   3.261   6.313  14.217  0.2061  0.9777  1.7266
 2565TIP3    H229187   3.376   6.236  14.279 -0.0338 -2.2130 -1.4514
 2566TIP3   OH229188   3.661   3.493   5.306  0.2623  0.9321 -0.4077
 2566TIP3    H129189   3.619   3.551   5.243 -1.8266  0.6937  0.6759
 2566TIP3    H229190   3.607   3.414   5.307  3.2374 -1.3461 -2.1256
 2567TIP3   OH229191   6.403   2.422  14.866 -0.4324 -0.2835  0.4414
 2567TIP3    H129192   6.345   2.346  14.873  1.1982 -1.7567 -0.9114
 2567TIP3    H229193   6.420   2.429  14.772  0.8699  0.6462  0.7346
 2568TIP3   OH229194   4.857   1.198  16.702  0.2681 -0.0558 -0.5828
 2568TIP3    H129195   4.872   1.243  16.785 -1.2922  0.8412 -0.7461
 2568TIP3    H229196   4.942   1.161  16.679  1.2592  1.5075  0.3440
 2569TIP3   OH229197   6.000   1.420  16.878  0.0081 -0.7060 -0.5381
 2569TIP3    H129198   6.081   1.394  16.921  0.5962  1.2259 -0.3701
 2569TIP3    H229199   6.028   1.450  16.791 -0.6455 -0.8484 -0.8020
 2570TIP3   OH229200   3.288   3.370  13.777 -0.0477 -0.1180 -0.2352
 2570TIP3    H129201   3.202   3.380  13.736 -0.2357 -1.1572 -0.1438
 2570TIP3    H229202   3.283   3.284  13.819  0.6960  0.2437  0.6122
 2571TIP3   OH229203   2.076   1.419  11.236 -0.5204  0.2202  0.2279
 2571TIP3    H129204   2.077   1.339  11.289 -1.0279  1.0279  1.5202
 2571TIP3    H229205   2.162   1.422  11.194 -0.7055 -1.2905 -0.3124
 2572TIP3   OH229206   3.135   4.724  12.567 -0.6748 -0.4419 -0.3857
 2572TIP3    H129207   3.047   4.687  12.577 -0.5033 -0.4358  1.5509
 2572TIP3    H229208   3.123   4.818  12.573 -0.6033 -0.3958 -0.8842
 2573TIP3   OH229209   0.658   1.886  11.146  0.5937 -0.7656 -0.1453
 2573TIP3    H129210   0.666   1.942  11.223 -0.4531 -1.0360  0.1764
 2573TIP3    H229211   0.728   1.915  11.088 -0.2973  1.3245 -0.2632
 2574TIP3   OH229212   2.357   0.252   0.117 -0.0290  0.6318  0.5897
 2574TIP3    H129213   2.295   0.325   0.113  1.0747  1.5936  0.4620
 2574TIP3    H229214   2.443   0.292   0.104  0.6123 -0.7014  0.4854
 2575TIP3   OH229215   2.994   5.115  11.213 -0.1109 -0.4126  0.4052
 2575TIP3    H129216   3.026   5.195  11.172  2.0646 -0.5180  1.7020
 2575TIP3    H229217   3.046   5.045  11.172 -3.9144 -1.7308 -2.8415
 2576TIP3   OH229218   3.724   2.033   1.493  0.5325 -0.1353  0.1223
 2576TIP3    H129219   3.724   1.948   1.449 -2.3920  0.4814 -1.3062
 2576TIP3    H229220   3.805   2.032   1.545  1.5850 -2.9786 -1.2876
 2577TIP3   OH229221   5.213   5.342  15.576  0.1846  0.0528 -0.4793
 2577TIP3    H129222   5.154   5.367  15.648  1.5518  1.1393  0.3123
 2577TIP3    H229223   5.247   5.256  15.601 -2.7217 -1.7171 -2.0572
 2578TIP3   OH229224   4.946   5.210   4.665 -0.1743 -0.0270 -0.2297
 2578TIP3    H129225   5.006   5.179   4.732  1.7887 -0.8207 -2.2227
 2578TIP3    H229226   4.863   5.167   4.685  1.4759 -3.8787 -0.7599
 2579TIP3   OH229227   3.029   4.074  14.339 -0.6800 -0.0849 -0.5283
 2579TIP3    H129228   2.966   4.118  14.396  0.1963  1.5841 -0.7674
 2579TIP3    H229229   3.005   4.103  14.251 -0.4656 -0.6009 -0.7569
 2580TIP3   OH229230   3.205   5.437   6.837 -0.3121 -0.2065 -0.3311
 2580TIP3    H129231   3.256   5.518   6.848  0.8343 -0.8930 -0.4228
 2580TIP3    H229232   3.141   5.458   6.769  0.6994  0.3040 -1.1525
 2581TIP3   OH229233   5.639   4.320  14.624 -0.4579  0.2467 -0.4044
 2581TIP3    H129234   5.728   4.354  14.618 -0.9542  2.0494  1.2628
 2581TIP3    H229235   5.646   4.245  14.683 -0.2306  1.4488  1.1795
 2582TIP3   OH229236   5.940   4.755  12.539  0.0076  0.4946 -0.1058
 2582TIP3    H129237   5.925   4.818  12.609  1.4215  0.9669 -0.2013
 2582TIP3    H229238   5.897   4.793  12.462  0.5521  1.1854 -0.0788
 2583TIP3   OH229239   5.720   4.509   1.475  0.5991  0.5050 -0.3769
 2583TIP3    H129240   5.624   4.502   1.479  0.2766  2.2430 -2.8656
 2583TIP3    H229241   5.749   4.479   1.561 -2.0720 -1.4153  0.0096
 2584TIP3   OH229242   2.805   3.927  16.156 -0.2589 -0.3953  0.3364
 2584TIP3    H129243   2.710   3.935  16.145  0.0279  1.1611 -1.5622
 2584TIP3    H229244   2.830   4.006  16.204  0.4938  1.4787 -2.8562
 2585TIP3   OH229245   5.317   3.616  16.741 -0.5227 -0.1045  0.6707
 2585TIP3    H129246   5.392   3.650  16.790  0.0526 -0.3509 -0.0145
 2585TIP3    H229247   5.351   3.602  16.652 -2.1220  2.6683 -0.5184
 2586TIP3   OH229248   2.599   2.887  15.161  0.8700 -1.0723  0.4329
 2586TIP3    H129249   2.518   2.850  15.195  0.7881 -1.8888 -0.5920
 2586TIP3    H229250   2.623   2.829  15.089  0.5279  1.0556 -1.5367
 2587TIP3   OH229251   4.719   2.916   5.429 -0.6615  0.7485  0.4771
 2587TIP3    H129252   4.739   2.951   5.516  3.4671  2.4209 -0.8964
 2587TIP3    H229253   4.713   2.993   5.373  1.0457 -0.3535 -1.3671
 2588TIP3   OH229254   5.763   6.332  15.338  0.5044 -0.1235 -0.4617
 2588TIP3    H129255   5.712   6.285  15.404 -1.5425  1.4953 -0.7891
 2588TIP3    H229256   5.854   6.314  15.362 -0.1405 -0.1256  2.4430
 2589TIP3   OH229257   2.684   1.120  15.936 -0.3663 -0.1807  0.1770
 2589TIP3    H129258   2.760   1.064  15.955 -0.5164 -1.1398 -1.8014
 2589TIP3    H229259   2.694   1.144  15.844 -2.0896  0.2485  0.0638
 2590TIP3   OH229260   5.268   3.314  13.777  0.0099  0.1832 -0.1807
 2590TIP3    H129261   5.227   3.374  13.715  2.0337  2.1906  0.2688
 2590TIP3    H229262   5.278   3.365  13.858  3.8916  0.1906 -0.4703
 2591TIP3   OH229263   0.833   6.324   3.538 -0.0285  0.0461  0.4196
 2591TIP3    H129264   0.816   6.407   3.493 -1.9612 -0.9130 -0.7821
 2591TIP3    H229265   0.745   6.291   3.559  0.7163 -1.6049  1.0326
 2592TIP3   OH229266   3.994   2.502   2.239  0.1913  0.0574  0.5962
 2592TIP3    H129267   4.026   2.508   2.149 -2.3411  2.0193 -0.2916
 2592TIP3    H229268   4.070   2.524   2.293  2.2677 -2.8728 -0.8360
 2593TIP3   OH229269   6.412   3.762  11.130  0.2183  0.6062 -0.1381
 2593TIP3    H129270   6.439   3.735  11.042 -1.4856 -1.0768 -0.2021
 2593TIP3    H229271   6.444   3.692  11.187  0.3127  1.1150  0.4420
 2594TIP3   OH229272   0.326   1.200   3.470  0.2890  0.4652  0.0368
 2594TIP3    H129273   0.392   1.152   3.521  1.6023  0.5909 -1.4698
 2594TIP3    H229274   0.377   1.267   3.424 -1.2844  2.3777  0.9193
 2595TIP3   OH229275   4.660   0.623  14.384  0.0726  0.8627 -0.4964
 2595TIP3    H129276   4.632   0.629  14.476  0.7647  1.3082 -0.3050
 2595TIP3    H229277   4.754   0.640  14.387  0.3895 -0.6225 -1.1139
 2596TIP3   OH229278   1.073   1.795  14.088 -0.1957 -0.1403 -0.2017
 2596TIP3    H129279   1.082   1.743  14.008 -0.6308  0.5414 -0.7075
 2596TIP3    H229280   1.161   1.826  14.107 -0.0910 -0.2893 -0.4366
 2597TIP3   OH229281   5.959   3.669  15.774  0.2976  0.3132  0.1421
 2597TIP3    H129282   5.965   3.758  15.808 -0.6642  0.8787 -1.1002
 2597TIP3    H229283   5.915   3.678  15.690  1.9735 -1.1100 -0.9615
 2598TIP3   OH229284   0.263   3.102  17.223 -0.0292  0.1971  0.8339
 2598TIP3    H129285   0.198   3.151  17.173  1.3906  1.6318  0.3149
 2598TIP3    H229286   0.292   3.162  17.291  0.2084 -0.7006  1.5519
 2599TIP3   OH229287   3.798   4.845  11.831 -0.0652  0.4670  0.1142
 2599TIP3    H129288   3.805   4.804  11.745 -0.4824 -0.9400  0.7096
 2599TIP3    H229289   3.820   4.774  11.892 -0.7387  1.1652  1.1936
 2600TIP3   OH229290   3.913   0.743   1.849  0.0795 -0.3366 -0.3901
 2600TIP3    H129291   3.914   0.821   1.794 -0.5635 -0.4492 -0.5674
 2600TIP3    H229292   3.973   0.682   1.806  1.3674  0.4102  0.2824
 2601TIP3   OH229293   5.966   2.518   3.053 -0.1000  0.3038  0.5453
 2601TIP3    H129294   5.892   2.460   3.071  0.7133 -1.0532 -0.3803
 2601TIP3    H229295   6.036   2.460   3.024  1.1099  1.6384  0.6921
 2602TIP3   OH229296   1.574   5.616   2.023 -0.3717  0.0442 -0.5828
 2602TIP3    H129297   1.659   5.644   2.056 -0.8477  1.2058 -0.3176
 2602TIP3    H229298   1.587   5.604   1.929  0.0457  0.3669 -0.5666
 2603TIP3   OH229299   1.607   6.754  11.817 -0.2920  0.5257  0.3258
 2603TIP3    H129300   1.653   6.683  11.862 -0.1349  1.1034  1.0919
 2603TIP3    H229301   1.654   6.764  11.733 -0.2242 -0.1668  0.2781
 2604TIP3   OH229302   5.327   6.391  14.351 -0.1673 -0.0372  0.4937
 2604TIP3    H129303   5.407   6.338  14.359 -0.2882 -0.2733  0.1380
 2604TIP3    H229304   5.276   6.347  14.284  0.0028  0.8670 -0.2452
 2605TIP3   OH229305   3.052   6.327   1.271 -0.0115  0.1904 -0.2950
 2605TIP3    H129306   3.135   6.362   1.304 -0.1647 -0.0450  0.3584
 2605TIP3    H229307   3.010   6.287   1.348 -0.3798 -0.3755 -0.7779
 2606TIP3   OH229308   1.429   4.489   4.016  0.1458 -0.4573  0.7106
 2606TIP3    H129309   1.361   4.444   3.966  0.6944  0.1925 -0.7070
 2606TIP3    H229310   1.381   4.552   4.070 -0.4903 -1.3551  1.1971
 2607TIP3   OH229311   3.787   5.820   3.170  0.2866 -0.0642  0.3799
 2607TIP3    H129312   3.723   5.836   3.240  1.0274  0.4273  0.9614
 2607TIP3    H229313   3.760   5.736   3.133 -0.2393 -0.2447  1.1306
 2608TIP3   OH229314   2.484   5.623  13.137  0.2394  0.0750  0.4306
 2608TIP3    H129315   2.495   5.554  13.071  0.5878 -0.7381  1.3264
 2608TIP3    H229316   2.570   5.631  13.178  0.2277  1.1239  0.2742
 2609TIP3   OH229317   3.298   6.689  13.634 -0.3373 -0.1719  0.1902
 2609TIP3    H129318   3.256   6.668  13.551  0.8762  1.1210 -0.8145
 2609TIP3    H229319   3.383   6.646  13.629  1.6015  3.3332 -1.2820
 2610TIP3   OH229320   2.903   3.857  14.526  0.0845  0.3408  0.5512
 2610TIP3    H129321   2.942   3.943  14.512 -2.8536  1.5976 -0.8907
 2610TIP3    H229322   2.909   3.814  14.440 -0.6731  0.1580  0.5756
 2611TIP3   OH229323   5.569   5.178   5.921 -0.0633  0.7214  0.1254
 2611TIP3    H129324   5.497   5.207   5.865 -0.5237 -0.6662 -0.0327
 2611TIP3    H229325   5.627   5.130   5.863  0.1925  0.5067  0.5524
 2612TIP3   OH229326   0.416   0.065  12.315 -0.1927  0.3294 -0.1528
 2612TIP3    H129327   0.424   0.126  12.242 -0.5261 -1.4182 -1.7216
 2612TIP3    H229328   0.395   0.121  12.390  0.9713  2.2649 -1.1922
 2613TIP3   OH229329   2.265   1.192   5.124  0.4009 -0.0507 -0.1107
 2613TIP3    H129330   2.175   1.183   5.096  0.3109 -0.0837  0.1822
 2613TIP3    H229331   2.292   1.278   5.090  0.6147 -0.5108 -1.1356
 2614TIP3   OH229332   3.011   6.654  12.458  0.0020 -0.8302 -0.6051
 2614TIP3    H129333   3.017   6.584  12.393  0.0956 -0.6744 -0.7628
 2614TIP3    H229334   3.064   6.725  12.423  0.7907 -1.0700  0.0572
 2615TIP3   OH229335   4.919   2.071   2.700 -0.0565 -0.2015 -0.0102
 2615TIP3    H129336   4.847   2.134   2.701  0.1138  0.0284  2.3687
 2615TIP3    H229337   4.875   1.986   2.708 -0.1294 -0.1323  0.3578
 2616TIP3   OH229338   0.172   2.261  13.139 -0.1172  0.1682 -0.2025
 2616TIP3    H129339   0.219   2.200  13.196 -0.0493 -0.8298 -1.2742
 2616TIP3    H229340   0.224   2.341  13.141  1.2604 -0.6632 -0.7701
 2617TIP3   OH229341   3.532   3.709  12.582  0.0923 -0.1021  0.1358
 2617TIP3    H129342   3.575   3.653  12.517  0.3042  0.2787 -0.0582
 2617TIP3    H229343   3.601   3.767  12.613 -0.1919  0.2433  0.1249
 2618TIP3   OH229344   4.226   6.105   1.264  0.2086 -0.7604 -0.1127
 2618TIP3    H129345   4.259   6.128   1.177  0.3505  2.2856  0.6314
 2618TIP3    H229346   4.305   6.087   1.315  0.3575  0.5646  0.1481
 2619TIP3   OH229347   2.853   1.542   0.971 -0.5550  0.1414 -0.2933
 2619TIP3    H129348   2.803   1.609   1.016 -1.1605 -0.1670 -0.4978
 2619TIP3    H229349   2.942   1.551   1.006 -0.9787 -0.0248  0.8822
 2620TIP3   OH229350   3.341   4.082  11.754  1.1444  0.9421  0.0243
 2620TIP3    H129351   3.349   4.048  11.665 -0.6608  1.0655 -0.2292
 2620TIP3    H229352   3.261   4.041  11.787  0.4471  2.7757  0.7088
 2621TIP3   OH229353   4.836   1.118   5.014 -0.5239 -0.5951 -0.0200
 2621TIP3    H129354   4.917   1.123   4.963 -1.0759 -0.5128 -0.9013
 2621TIP3    H229355   4.790   1.041   4.980 -1.1242 -0.2616  0.0127
 2622TIP3   OH229356   5.556   2.165  16.686  0.0834 -0.1218 -0.3370
 2622TIP3    H129357   5.503   2.171  16.606 -0.0520 -0.9225 -0.3125
 2622TIP3    H229358   5.522   2.088  16.732  0.5209  0.0196  0.2330
 2623TIP3   OH229359   2.147   4.661   4.297 -0.0493 -1.4501  0.1241
 2623TIP3    H129360   2.240   4.646   4.277  0.1764  0.8765 -0.8279
 2623TIP3    H229361   2.140   4.648   4.392  1.8112  0.6852  0.6326
 2624TIP3   OH229362   5.461   5.826   5.706 -0.1718  0.0275 -0.0870
 2624TIP3    H129363   5.419   5.876   5.636 -0.7329 -0.9362 -0.4599
 2624TIP3    H229364   5.457   5.735   5.676  1.1448 -0.2129  0.4112
 2625TIP3   OH229365   0.458   6.742  14.001  0.1418  0.3596 -0.2801
 2625TIP3    H129366   0.515   6.813  13.971 -0.1181  0.9781  0.6655
 2625TIP3    H229367   0.503   6.706  14.077  0.2634 -0.4866 -0.7502
 2626TIP3   OH229368   1.476   5.104   6.182 -0.0617  0.4067 -0.0533
 2626TIP3    H129369   1.526   5.052   6.245  2.6098  0.9842 -1.5633
 2626TIP3    H229370   1.411   5.150   6.236  1.4847  0.1913  2.1397
 2627TIP3   OH229371   2.813   4.858   3.475  0.4006  0.5294 -0.0034
 2627TIP3    H129372   2.903   4.828   3.461  0.6496  1.3477 -0.1867
 2627TIP3    H229373   2.768   4.837   3.393  0.5817  0.7013 -0.1454
 2628TIP3   OH229374   5.943   2.621   1.517  0.7516  0.8753 -0.2565
 2628TIP3    H129375   6.027   2.648   1.555  1.7049 -1.4436 -0.5769
 2628TIP3    H229376   5.933   2.676   1.439  1.7710  1.4545  0.0097
 2629TIP3   OH229377   3.508   5.118   2.571  0.3275 -0.3779 -0.2107
 2629TIP3    H129378   3.516   5.162   2.656 -0.8873 -0.7449  0.1230
 2629TIP3    H229379   3.593   5.130   2.530 -0.0080  2.6337 -0.3095
 2630TIP3   OH229380   4.761   1.099  12.780  0.0021  0.2907  0.0555
 2630TIP3    H129381   4.738   1.184  12.819  1.2372  0.3872  0.6026
 2630TIP3    H229382   4.828   1.121  12.715  0.0186 -0.2254 -0.0998
 2631TIP3   OH229383   5.119   2.181  12.407  0.0405 -0.0889 -0.3698
 2631TIP3    H129384   5.108   2.258  12.464  1.4538 -0.0004 -0.1732
 2631TIP3    H229385   5.157   2.216  12.327  0.3548 -0.5248 -0.4148
 2632TIP3   OH229386   4.494   5.551  17.194  0.0194 -0.3550 -0.6570
 2632TIP3    H129387   4.440   5.472  17.200  0.3497 -0.5289  0.2621
 2632TIP3    H229388   4.495   5.586  17.283 -0.2913  0.8090 -1.0966
 2633TIP3   OH229389   2.356   4.412  16.989  0.1231  0.3827 -0.0794
 2633TIP3    H129390   2.326   4.321  16.989 -0.4319  0.5206  1.8182
 2633TIP3    H229391   2.365   4.434  17.082  2.1324  1.6789 -0.5192
 2634TIP3   OH229392   6.755   1.183   2.850 -0.2211  0.4596 -0.5655
 2634TIP3    H129393   6.782   1.141   2.768  0.7003 -0.6140  0.2547
 2634TIP3    H229394   6.685   1.128   2.884  0.8160 -0.3332  0.3850
 2635TIP3   OH229395   4.451   0.373   3.658 -0.1362 -0.0200  0.4146
 2635TIP3    H129396   4.470   0.281   3.677 -0.5536  0.0572  1.2743
 2635TIP3    H229397   4.525   0.421   3.696  0.2595 -0.0118 -0.3421
 2636TIP3   OH229398   1.867   2.076   0.084  0.0307 -0.1833  0.4706
 2636TIP3    H129399   1.823   2.090   0.001  1.0635 -1.0859 -0.2491
 2636TIP3    H229400   1.796   2.052   0.145 -0.6290 -0.3006 -0.3297
 2637TIP3   OH229401   0.430   1.598  11.981 -0.3232  0.0072  0.4521
 2637TIP3    H129402   0.485   1.597  12.059 -0.3683  2.2691  0.5728
 2637TIP3    H229403   0.365   1.666  11.998 -0.5068  0.3631 -1.4447
 2638TIP3   OH229404   1.259   2.918   1.694  0.3877 -0.6733 -0.1001
 2638TIP3    H129405   1.311   2.968   1.630 -0.1724  0.7417  0.5154
 2638TIP3    H229406   1.198   2.868   1.640  2.1221 -2.1541 -0.8284
 2639TIP3   OH229407   3.897   4.363  12.240 -0.2702 -0.2263 -0.1963
 2639TIP3    H129408   3.856   4.447  12.264  0.1986  0.2710 -1.0812
 2639TIP3    H229409   3.892   4.361  12.144  1.4022 -0.3464 -0.2974
 2640TIP3   OH229410   2.160   1.540  11.576  0.1673  0.2730 -0.0017
 2640TIP3    H129411   2.136   1.626  11.609  0.8724  0.5665 -0.2305
 2640TIP3    H229412   2.207   1.558  11.494 -0.5377 -0.3784 -0.5655
 2641TIP3   OH229413   5.407   5.229  16.370  0.0368 -0.1823  0.5365
 2641TIP3    H129414   5.363   5.184  16.442 -0.8375 -0.6508 -0.2910
 2641TIP3    H229415   5.454   5.160  16.323  0.2941  0.0702  0.4165
 2642TIP3   OH229416   6.731   2.137  12.032 -0.7846  0.5339  0.0927
 2642TIP3    H129417   6.810   2.144  12.085  0.4852  1.5371 -1.8280
 2642TIP3    H229418   6.704   2.228  12.017 -0.6742  0.3289 -1.5440
 2643TIP3   OH229419   4.510   6.074   5.513 -0.3056  0.0470  0.0232
 2643TIP3    H129420   4.524   6.068   5.419 -0.3412  0.6061 -0.0240
 2643TIP3    H229421   4.593   6.046   5.552  0.1588  1.0282 -0.2091
 2644TIP3   OH229422   6.377   2.715  12.011  0.3022  0.4516  0.0833
 2644TIP3    H129423   6.366   2.779  12.081  1.2444  1.0597 -0.3125
 2644TIP3    H229424   6.417   2.639  12.055  0.3211  0.5933  0.3134
 2645TIP3   OH229425   0.968   4.737  11.280  0.1098  0.6258  0.1482
 2645TIP3    H129426   0.940   4.657  11.234  0.9009 -0.2953  1.2172
 2645TIP3    H229427   0.893   4.762  11.333 -0.0487  0.4467  0.0098
 2646TIP3   OH229428   4.301   3.991   2.709 -0.4515 -0.2231 -0.3035
 2646TIP3    H129429   4.346   3.958   2.787  0.6844 -0.5427 -1.0656
 2646TIP3    H229430   4.234   3.926   2.691 -2.0849  0.8510  1.5386
 2647TIP3   OH229431   3.162   6.648  13.375 -0.2926  0.4169  0.0359
 2647TIP3    H129432   3.178   6.568  13.324  1.3268 -1.0504  2.6270
 2647TIP3    H229433   3.069   6.643  13.398  0.0003 -1.3637  1.0462
 2648TIP3   OH229434   5.748   5.650   4.048  0.2217  0.3408  0.1498
 2648TIP3    H129435   5.687   5.723   4.047  0.2186  0.3578 -1.7772
 2648TIP3    H229436   5.834   5.690   4.031  0.2692 -0.0344 -0.5534
 2649TIP3   OH229437   4.541   3.017  15.505  0.0586 -0.0598 -0.3048
 2649TIP3    H129438   4.537   2.927  15.536  0.0248 -0.2662 -0.8830
 2649TIP3    H229439   4.450   3.048  15.509  0.2300  0.3347  0.9613
 2650TIP3   OH229440   2.231   5.193  12.042 -0.6615 -0.3296  0.2616
 2650TIP3    H129441   2.175   5.123  12.008 -0.0052 -1.0899  0.7102
 2650TIP3    H229442   2.172   5.249  12.092 -0.9374 -1.4713  1.2594
 2651TIP3   OH229443   0.457   5.258  10.989  0.5510  0.0955 -0.3165
 2651TIP3    H129444   0.468   5.208  10.909  1.1037  0.2601 -0.3489
 2651TIP3    H229445   0.407   5.201  11.047  1.8359 -0.8266 -0.0581
 2652TIP3   OH229446   4.647   4.334  11.707  0.4052 -0.0486 -0.6204
 2652TIP3    H129447   4.620   4.311  11.619 -0.9588  3.3010 -1.2404
 2652TIP3    H229448   4.566   4.336  11.758  0.7841  0.8116 -0.0194
 2653TIP3   OH229449   6.688   2.037   0.619  0.6233 -0.7531 -0.4236
 2653TIP3    H129450   6.726   1.991   0.545  1.4616 -0.0100 -0.4769
 2653TIP3    H229451   6.683   2.129   0.591  1.8938 -0.2726  0.7640
 2654TIP3   OH229452   6.415   4.378  16.946 -0.2677 -0.4618 -0.4317
 2654TIP3    H129453   6.329   4.350  16.915 -0.2928 -0.9097  0.0325
 2654TIP3    H229454   6.407   4.379  17.041  0.4195 -1.0810 -0.3623
 2655TIP3   OH229455   4.790   6.234  13.323  0.2056 -0.1172  0.4017
 2655TIP3    H129456   4.869   6.181  13.328  0.2843  0.0059  0.4809
 2655TIP3    H229457   4.730   6.184  13.267  0.3049 -0.2542  0.4199
 2656TIP3   OH229458   3.499   2.396   0.243  0.2483 -0.3076  0.0433
 2656TIP3    H129459   3.538   2.457   0.306  0.1088  0.8872 -0.9695
 2656TIP3    H229460   3.549   2.411   0.163 -0.2961 -0.9929 -0.4269
 2657TIP3   OH229461   1.424   1.358  15.287  0.6129  0.2843 -0.1311
 2657TIP3    H129462   1.492   1.335  15.224  0.6093  0.0180 -0.0374
 2657TIP3    H229463   1.411   1.452  15.274  0.6828  0.2512 -0.4568
 2658TIP3   OH229464   5.611   6.702  13.335 -0.1639  0.0815 -0.0656
 2658TIP3    H129465   5.618   6.775  13.396  1.7420 -0.5652  0.5422
 2658TIP3    H229466   5.695   6.698  13.291  0.3607 -2.5990  0.9672
 2659TIP3   OH229467   1.607   5.604   2.645 -0.1635  0.3479  0.4174
 2659TIP3    H129468   1.545   5.549   2.693 -0.3445  0.1434 -0.0402
 2659TIP3    H229469   1.672   5.543   2.610 -0.7023  0.3306 -0.6068
 2660TIP3   OH229470   0.897   5.859   2.215  0.2709  0.3862 -0.1663
 2660TIP3    H129471   0.890   5.780   2.162  0.5737  1.7478 -2.3915
 2660TIP3    H229472   0.948   5.919   2.161 -0.0367  2.1326  1.3899
 2661TIP3   OH229473   2.436   3.795  15.219 -0.3059  0.4068 -0.9336
 2661TIP3    H129474   2.526   3.800  15.250 -1.0656  0.0193  1.4910
 2661TIP3    H229475   2.397   3.878  15.243 -1.4339 -0.6227  1.0145
 2662TIP3   OH229476   3.640   2.473   0.006  0.5858  0.3098 -1.2770
 2662TIP3    H129477   3.707   2.454  -0.059 -0.5396 -0.4482 -2.2572
 2662TIP3    H229478   3.619   2.566  -0.007  2.8211  1.1583  0.4174
 2663TIP3   OH229479   5.244   2.772  15.127 -0.9065  0.0226 -0.4120
 2663TIP3    H129480   5.234   2.707  15.197 -0.7231  1.3479  0.8739
 2663TIP3    H229481   5.334   2.803  15.135 -0.9115  0.2548 -1.1856
 2664TIP3   OH229482   5.693   6.564   2.415  0.1234  1.4564 -0.3419
 2664TIP3    H129483   5.687   6.638   2.355  0.4796  0.8433 -1.1620
 2664TIP3    H229484   5.626   6.503   2.384  0.2974  1.1441 -0.1070
 2665TIP3   OH229485   1.043   5.796   0.689  0.2306 -0.3540  0.3198
 2665TIP3    H129486   1.128   5.830   0.716  0.5478 -0.8679 -0.0186
 2665TIP3    H229487   0.982   5.833   0.752  0.5636  0.8187 -0.0224
 2666TIP3   OH229488   6.435   1.474  11.721  0.4062 -0.4486  0.4011
 2666TIP3    H129489   6.386   1.498  11.643 -0.7018 -2.0788  0.5554
 2666TIP3    H229490   6.435   1.554  11.774 -1.5917 -0.1985  0.1148
 2667TIP3   OH229491   4.734   1.654  12.812  0.3146  0.4288  0.0746
 2667TIP3    H129492   4.754   1.709  12.888 -0.7452  0.5207  0.3107
 2667TIP3    H229493   4.657   1.695  12.772  0.6825  0.2141 -0.8872
 2668TIP3   OH229494   2.651   0.460  13.310  0.7817 -0.5734 -0.4135
 2668TIP3    H129495   2.572   0.497  13.271  1.4497  1.6870  0.2455
 2668TIP3    H229496   2.704   0.431  13.235  0.6918  0.8180 -1.0393
 2669TIP3   OH229497   4.986   4.194   0.073 -0.3894  0.2500  0.3221
 2669TIP3    H129498   4.925   4.234   0.135 -0.2819 -0.0285  0.6119
 2669TIP3    H229499   5.051   4.151   0.129 -1.4832 -1.8821  0.0560
 2670TIP3   OH229500   1.709   0.353  15.417 -0.4142  0.0830  0.2780
 2670TIP3    H129501   1.764   0.416  15.371  0.3016 -0.5344  0.2662
 2670TIP3    H229502   1.740   0.355  15.507  1.1399 -1.8138 -0.1395
 2671TIP3   OH229503   2.641   1.768   3.059  0.4201 -0.0586 -0.4487
 2671TIP3    H129504   2.590   1.846   3.084  1.6261  0.2292  1.2608
 2671TIP3    H229505   2.712   1.802   3.004 -0.9404 -0.4259 -2.5762
 2672TIP3   OH229506   2.523   3.660   3.733  0.2763 -0.2794 -0.8907
 2672TIP3    H129507   2.470   3.594   3.777 -0.5080  0.9929  0.1525
 2672TIP3    H229508   2.516   3.738   3.789  0.0668  1.0933 -2.7255
 2673TIP3   OH229509   3.152   6.532   5.318 -0.1341 -0.8299 -0.0774
 2673TIP3    H129510   3.143   6.451   5.368  0.1200 -0.6560  0.2557
 2673TIP3    H229511   3.246   6.547   5.313 -0.1906 -0.3622  0.1819
 2674TIP3   OH229512   0.150   4.167   2.285  0.1323  0.4072  0.2436
 2674TIP3    H129513   0.244   4.182   2.271 -0.2287  3.2089  0.2022
 2674TIP3    H229514   0.145   4.124   2.370  1.4649 -0.1446  0.0663
 2675TIP3   OH229515   1.155   5.621   4.049 -0.4324 -0.2694 -0.2926
 2675TIP3    H129516   1.249   5.607   4.063 -0.2995 -1.4069 -2.0271
 2675TIP3    H229517   1.119   5.630   4.137  1.4477  1.3539  0.4006
 2676TIP3   OH229518   5.846   1.169  16.899  0.2542  0.3712 -0.6140
 2676TIP3    H129519   5.762   1.163  16.854  0.7329 -0.4773 -1.4229
 2676TIP3    H229520   5.894   1.238  16.852  1.1732 -1.2436 -2.1962
 2677TIP3   OH229521   4.455   6.385  16.797 -0.1955  0.7113 -0.3133
 2677TIP3    H129522   4.451   6.459  16.736 -0.7385  0.4336 -0.6221
 2677TIP3    H229523   4.471   6.425  16.882 -0.8709  1.2189 -0.4186
 2678TIP3   OH229524   2.215   5.109  14.762  0.5048 -0.3267  0.3893
 2678TIP3    H129525   2.162   5.151  14.829  2.1197  0.0536  1.4968
 2678TIP3    H229526   2.285   5.173  14.743  0.6901 -0.8663 -0.8811
 2679TIP3   OH229527   6.774   2.412   2.664  0.4575 -0.3188 -0.4488
 2679TIP3    H129528   6.847   2.450   2.615  0.6575 -1.2566 -0.8880
 2679TIP3    H229529   6.740   2.343   2.607 -1.2524  0.5916 -0.5751
 2680TIP3   OH229530   5.355   1.517   6.572 -0.1083 -0.5491 -0.1226
 2680TIP3    H129531   5.365   1.450   6.504  2.0653 -0.6278  0.1966
 2680TIP3    H229532   5.419   1.493   6.638 -0.3076  1.0414  0.6868
 2681TIP3   OH229533   1.197   0.217  12.742  0.1676 -0.0802 -0.0970
 2681TIP3    H129534   1.220   0.289  12.801 -0.3516 -1.3019  1.6872
 2681TIP3    H229535   1.150   0.259  12.670  0.2067  1.4056  0.7012
 2682TIP3   OH229536   4.209   3.606  12.314  0.4177  0.1666  0.6250
 2682TIP3    H129537   4.130   3.575  12.359  0.3057  0.6872  0.7946
 2682TIP3    H229538   4.184   3.692  12.280  0.0759 -0.7133 -1.5347
 2683TIP3   OH229539   4.184   1.684  16.653 -0.3805 -0.1848  0.0703
 2683TIP3    H129540   4.113   1.728  16.699 -0.2763  0.2654 -0.1854
 2683TIP3    H229541   4.142   1.611  16.607 -0.3203 -1.2975  1.7080
 2684TIP3   OH229542   1.055   1.219   4.814 -0.2894 -0.1772  0.8104
 2684TIP3    H129543   1.002   1.187   4.888  1.2746 -0.9386  1.6539
 2684TIP3    H229544   1.145   1.202   4.840  0.4392  1.6940 -0.2985
 2685TIP3   OH229545   1.081   2.260   3.543  0.0975  0.1686 -0.1543
 2685TIP3    H129546   1.006   2.284   3.597 -0.7249 -0.2684 -1.0650
 2685TIP3    H229547   1.090   2.166   3.554  1.2806  0.3731  0.8746
 2686TIP3   OH229548   3.280   3.349  16.839  0.2046 -0.2792  1.0365
 2686TIP3    H129549   3.337   3.419  16.871 -1.4968  2.4456 -1.3953
 2686TIP3    H229550   3.339   3.289  16.793  1.6929 -0.4490  3.0592
 2687TIP3   OH229551   4.050   6.058   4.029 -0.1749 -0.3801 -0.2728
 2687TIP3    H129552   3.957   6.058   4.053  0.0603  0.8112  0.7695
 2687TIP3    H229553   4.091   5.997   4.090 -0.1142 -0.0451  0.0271
 2688TIP3   OH229554   2.646   0.867  13.353 -0.0707 -0.4765 -0.3486
 2688TIP3    H129555   2.554   0.846  13.338  0.0305 -0.6901 -0.6847
 2688TIP3    H229556   2.646   0.924  13.430 -0.5093 -0.2418 -0.5213
 2689TIP3   OH229557   5.720   4.118   6.167  0.0079  0.0931  0.3256
 2689TIP3    H129558   5.749   4.203   6.201  2.3163 -0.0614 -1.0764
 2689TIP3    H229559   5.710   4.132   6.073 -2.9394 -0.3760  0.4675
 2690TIP3   OH229560   2.936   2.551  15.736  0.2407 -0.4528  0.3822
 2690TIP3    H129561   2.964   2.597  15.815  1.3854  0.6892 -0.6303
 2690TIP3    H229562   3.015   2.509  15.703 -0.0118 -0.2098 -0.5874
 2691TIP3   OH229563   3.677   6.813   1.876 -0.1229  0.5987  0.6432
 2691TIP3    H129564   3.769   6.810   1.849 -0.1041  1.2655  0.6248
 2691TIP3    H229565   3.630   6.847   1.799 -0.4336 -0.0010  0.5520
 2692TIP3   OH229566   1.071   6.135   6.333 -0.3471 -0.4108 -0.1603
 2692TIP3    H129567   1.044   6.049   6.363 -0.7021  0.2212  1.4230
 2692TIP3    H229568   1.154   6.120   6.287 -1.4882 -1.8594 -1.8676
 2693TIP3   OH229569   5.134   5.449  11.435  0.5748 -0.5365  0.9079
 2693TIP3    H129570   5.184   5.522  11.472  1.9018 -1.5446  1.2132
 2693TIP3    H229571   5.128   5.468  11.342 -0.5040  0.7387  1.2125
 2694TIP3   OH229572   0.945   6.564  10.949 -0.1771  0.7890  0.4932
 2694TIP3    H129573   0.889   6.488  10.931  0.7781  0.2939 -0.5198
 2694TIP3    H229574   0.992   6.579  10.867  0.1829  2.0375  0.9062
 2695TIP3   OH229575   0.461   2.543  16.568 -0.3749 -0.4132  0.3327
 2695TIP3    H129576   0.521   2.605  16.527 -0.7296  0.0096  0.4433
 2695TIP3    H229577   0.387   2.537  16.507 -1.2894  0.8448  1.2614
 2696TIP3   OH229578   3.074   5.567  13.933 -0.3116 -0.0540  0.1092
 2696TIP3    H129579   3.111   5.508  13.868  0.1379  0.1430  0.1805
 2696TIP3    H229580   3.015   5.624  13.883 -0.9463 -0.7230  0.0840
 2697TIP3   OH229581   5.270   6.580   1.653  0.3664  0.5785 -0.1517
 2697TIP3    H129582   5.196   6.633   1.682 -0.6615 -0.2298 -1.1813
 2697TIP3    H229583   5.342   6.642   1.643 -0.6443  1.6846 -0.7712
 2698TIP3   OH229584   0.990   0.552   1.983  0.1172 -0.2614  0.1167
 2698TIP3    H129585   0.897   0.526   1.987  0.1893 -0.6504 -0.6078
 2698TIP3    H229586   1.033   0.481   1.936  0.8248 -0.1755  0.6212
 2699TIP3   OH229587   1.407   3.058   3.124 -0.5490 -0.8403  0.1471
 2699TIP3    H129588   1.465   3.026   3.194 -1.5453  1.7576  2.3771
 2699TIP3    H229589   1.359   2.981   3.095  0.1538 -2.1134  2.1436
 2700TIP3   OH229590   0.632   1.038   2.027 -0.3692 -0.8849 -0.9842
 2700TIP3    H129591   0.694   0.999   1.966  0.4882 -0.8024 -0.1938
 2700TIP3    H229592   0.658   1.003   2.113 -1.5320 -0.9835 -0.6631
 2701TIP3   OH229593   0.116   4.064  11.507 -0.1540  0.2616  0.0409
 2701TIP3    H129594   0.134   4.150  11.546  3.6286 -0.9555  1.4432
 2701TIP3    H229595   0.049   4.026  11.564  1.0801  0.8009  1.9662
 2702TIP3   OH229596   0.598   1.587  15.721  0.3872 -0.1026  0.8910
 2702TIP3    H129597   0.523   1.617  15.772 -0.6151  2.9903 -2.0820
 2702TIP3    H229598   0.642   1.667  15.693  2.3855 -1.7245 -0.9339
 2703TIP3   OH229599   1.240   0.612   1.727  0.5563  0.0485  0.8200
 2703TIP3    H129600   1.267   0.701   1.702  1.2354 -0.6718 -1.1324
 2703TIP3    H229601   1.292   0.593   1.805  0.2163  1.4430  1.4218
 2704TIP3   OH229602   1.642   5.897   0.337  0.7588  0.3625  0.4574
 2704TIP3    H129603   1.653   5.980   0.290  1.1870  0.2265  0.3117
 2704TIP3    H229604   1.711   5.841   0.302 -0.7520 -0.7396 -0.9184
 2705TIP3   OH229605   4.832   1.132  14.842  0.1242  0.3599  0.2674
 2705TIP3    H129606   4.765   1.065  14.853  0.6508  0.0814  2.1739
 2705TIP3    H229607   4.905   1.085  14.801  0.2617 -0.1000  1.0175
 2706TIP3   OH229608   5.040   1.767  11.132 -0.6064 -0.0618 -0.0126
 2706TIP3    H129609   5.017   1.688  11.180 -0.9311 -0.1122 -0.2549
 2706TIP3    H229610   5.030   1.745  11.040  1.3673 -0.3989 -0.1951
 2707TIP3   OH229611   6.674   5.948  17.269  0.3832  0.3342 -0.6625
 2707TIP3    H129612   6.761   5.986  17.271  0.3985  0.3250  1.7586
 2707TIP3    H229613   6.682   5.873  17.211  2.4548 -0.6108  0.7246
 2708TIP3   OH229614   0.523   2.400   3.181  0.3102  0.2896  0.4401
 2708TIP3    H129615   0.551   2.312   3.155 -1.0224  0.1310 -0.5564
 2708TIP3    H229616   0.589   2.458   3.142  1.4519 -0.2700  1.4816
 2709TIP3   OH229617   2.922   6.640   2.173 -0.0141  0.2062  0.3663
 2709TIP3    H129618   2.940   6.547   2.157 -0.3485 -0.2596  2.3935
 2709TIP3    H229619   2.906   6.676   2.086 -1.9743 -2.0896 -0.3513
 2710TIP3   OH229620   6.684   0.172  13.351  0.2219  0.4119  0.7522
 2710TIP3    H129621   6.628   0.232  13.400 -1.7376 -0.2221 -0.5884
 2710TIP3    H229622   6.691   0.212  13.264  3.6143  1.5019  1.3793
 2711TIP3   OH229623   6.813   4.828  11.621  0.6475 -0.1690  0.1603
 2711TIP3    H129624   6.736   4.875  11.590  1.1284 -0.7042 -1.9848
 2711TIP3    H229625   6.844   4.881  11.695 -0.2635  1.5223 -0.6001
 2712TIP3   OH229626   5.455   2.493   5.865 -0.0409 -0.2078 -0.1278
 2712TIP3    H129627   5.510   2.508   5.943  0.9657 -1.5150 -0.5429
 2712TIP3    H229628   5.374   2.541   5.883  0.3070 -0.1940  1.5784
 2713TIP3   OH229629   1.960   4.925   0.539 -0.0067 -0.5244  0.3183
 2713TIP3    H129630   1.881   4.950   0.587  0.4935 -1.5196  1.7319
 2713TIP3    H229631   2.017   5.003   0.544 -0.2627 -0.3573  0.6851
 2714TIP3   OH229632   6.630   2.145   0.329 -0.0222  0.3166  0.4398
 2714TIP3    H129633   6.591   2.063   0.296 -1.2375  0.6034  1.1214
 2714TIP3    H229634   6.555   2.199   0.352  0.7616  1.8410 -0.4612
 2715TIP3   OH229635   5.733   2.639  15.029 -0.2383  0.1659  0.2176
 2715TIP3    H129636   5.813   2.589  15.018  2.2562  3.5274  1.4668
 2715TIP3    H229637   5.721   2.646  15.123  0.1634  2.7179  0.1389
 2716TIP3   OH229638   2.886   3.076  16.162  0.3448  0.5346  0.3518
 2716TIP3    H129639   2.811   3.131  16.183  0.5094  0.1791  2.0113
 2716TIP3    H229640   2.960   3.137  16.160 -0.1527  1.2214 -3.1851
 2717TIP3   OH229641   3.106   5.860   0.345 -0.0445  0.1802 -0.3830
 2717TIP3    H129642   3.166   5.931   0.322 -0.3184  0.1417 -1.2812
 2717TIP3    H229643   3.029   5.904   0.382  0.8812  0.1802  1.6480
 2718TIP3   OH229644   0.030   6.307  12.587 -0.1148  0.4345  0.0855
 2718TIP3    H129645   0.053   6.390  12.630  1.0413 -0.7335  1.8611
 2718TIP3    H229646   0.092   6.300  12.515  1.3500  0.0875  1.3143
 2719TIP3   OH229647   4.980   3.291  10.755  0.2872 -0.0255  0.0043
 2719TIP3    H129648   5.057   3.270  10.702  0.7439  0.2760  0.5446
 2719TIP3    H229649   4.975   3.386  10.753  2.5690  0.3281  3.5973
 2720TIP3   OH229650   5.818   3.129   4.650 -0.2196  0.2874  0.3299
 2720TIP3    H129651   5.753   3.117   4.581 -1.0653 -2.8354  1.5124
 2720TIP3    H229652   5.772   3.105   4.730  1.2417  2.1260  1.8288
 2721TIP3   OH229653   3.141   4.735   6.255 -0.0192  0.3672 -0.2163
 2721TIP3    H129654   3.064   4.762   6.206 -0.4391 -0.3717  0.0284
 2721TIP3    H229655   3.107   4.684   6.329  0.6164  1.2145  0.6998
 2722TIP3   OH229656   6.787   5.693   0.707 -0.0976 -0.4327  0.1719
 2722TIP3    H129657   6.759   5.776   0.667  1.8154  0.0204 -0.3257
 2722TIP3    H229658   6.707   5.658   0.746 -1.4095  0.6124 -1.4071
 2723TIP3   OH229659   6.008   0.856   0.706 -0.2268  0.1150 -0.1196
 2723TIP3    H129660   5.921   0.894   0.699 -0.5815 -0.5823  0.4526
 2723TIP3    H229661   5.997   0.764   0.680  0.3337  0.0147 -0.0295
 2724TIP3   OH229662   0.950   6.453   1.193 -0.0290 -0.6627 -0.2180
 2724TIP3    H129663   0.977   6.425   1.281  1.8657 -0.3108 -0.6597
 2724TIP3    H229664   0.858   6.477   1.204  0.1933 -0.4828  1.7143
 2725TIP3   OH229665   0.536   4.723  15.450  0.3915 -0.2342 -0.1006
 2725TIP3    H129666   0.575   4.636  15.461  1.0624 -0.0071 -0.5808
 2725TIP3    H229667   0.591   4.765  15.384  0.4153  0.7570  0.5235
 2726TIP3   OH229668   2.007   6.231  11.458 -0.0766 -0.0685 -0.1959
 2726TIP3    H129669   2.050   6.146  11.467  0.2206  0.0910 -0.0925
 2726TIP3    H229670   2.048   6.285  11.526 -1.1342 -0.1990  0.5643
 2727TIP3   OH229671   5.707   5.048   5.191  0.1613  0.2876  0.5627
 2727TIP3    H129672   5.743   5.106   5.259  0.0283 -0.3135  1.1594
 2727TIP3    H229673   5.753   4.965   5.204  1.8869  0.8268 -1.6332
 2728TIP3   OH229674   1.539   3.084  13.347 -0.8910 -0.3427  0.0142
 2728TIP3    H129675   1.561   3.137  13.270 -2.0743 -1.8653 -1.4415
 2728TIP3    H229676   1.589   3.124  13.418  2.0320 -0.1909 -1.9509
 2729TIP3   OH229677   1.856   3.774  14.232 -0.3887 -0.0326  0.4277
 2729TIP3    H129678   1.899   3.837  14.290 -1.8190 -0.4070  1.9938
 2729TIP3    H229679   1.856   3.816  14.146 -0.0799  1.4979  1.1445
 2730TIP3   OH229680   0.638   4.011   2.886 -0.6924  0.0913 -0.1530
 2730TIP3    H129681   0.707   3.945   2.895  0.3099  1.0676 -0.4529
 2730TIP3    H229682   0.664   4.081   2.947 -0.1274  1.5330 -1.9703
 2731TIP3   OH229683   0.822   0.174   0.994 -0.2397  0.2133  0.1800
 2731TIP3    H129684   0.737   0.170   1.037 -0.1018  0.6304  0.5026
 2731TIP3    H229685   0.885   0.148   1.061 -0.2851 -2.5935 -0.7279
 2732TIP3   OH229686   2.763   0.688   4.698  0.0061  0.3025 -0.5662
 2732TIP3    H129687   2.724   0.684   4.611  1.7966 -0.0774 -1.3989
 2732TIP3    H229688   2.817   0.767   4.697 -0.4556  0.6453  0.4416
 2733TIP3   OH229689   5.586   2.209   5.974  0.2619 -0.4031  0.3026
 2733TIP3    H129690   5.491   2.218   5.987  0.2298  0.4053 -0.4342
 2733TIP3    H229691   5.608   2.128   6.020 -0.9073 -1.0083 -0.1472
 2734TIP3   OH229692   5.099   5.446   4.915 -0.1707  0.0604 -0.0221
 2734TIP3    H129693   5.061   5.358   4.914 -3.4019  1.2439  1.6095
 2734TIP3    H229694   5.158   5.448   4.840 -0.6947 -3.1655 -0.6792
 2735TIP3   OH229695   2.556   4.754  11.746 -0.3070  0.4889  0.4555
 2735TIP3    H129696   2.552   4.830  11.688  0.2295  0.0031 -0.2320
 2735TIP3    H229697   2.469   4.750  11.786 -0.9095  0.4413 -0.8049
 2736TIP3   OH229698   1.461   0.712  10.921 -0.1068  0.1156  0.1432
 2736TIP3    H129699   1.384   0.754  10.957 -0.8057  0.4493 -1.6421
 2736TIP3    H229700   1.458   0.731  10.827  1.2283 -1.2976 -0.2441
 2737TIP3   OH229701   0.375   0.762  12.618 -0.0713  0.0449  0.4668
 2737TIP3    H129702   0.405   0.702  12.687 -0.5008  0.4745  1.0276
 2737TIP3    H229703   0.341   0.838  12.665 -1.3219 -0.0920 -0.1822
 2738TIP3   OH229704   6.140   3.661   1.392  0.8123 -0.4621  0.2170
 2738TIP3    H129705   6.141   3.682   1.485  1.7276  1.8645 -0.2387
 2738TIP3    H229706   6.066   3.601   1.381  0.5293 -0.5629  2.3834
 2739TIP3   OH229707   3.436   5.625  15.196  0.2993 -0.0048 -0.8239
 2739TIP3    H129708   3.517   5.674  15.212 -0.2648  1.3754 -2.0044
 2739TIP3    H229709   3.464   5.549  15.145  1.1158 -0.6659  0.5515
 2740TIP3   OH229710   1.264   1.601   4.289  0.9411  0.2029  0.3299
 2740TIP3    H129711   1.205   1.544   4.240 -0.2782  0.7799  1.0734
 2740TIP3    H229712   1.352   1.569   4.268  0.3605 -0.8677 -0.5704
 2741TIP3   OH229713   6.334   5.571  15.418  0.3171 -0.3780 -0.1909
 2741TIP3    H129714   6.286   5.653  15.433  0.1575 -0.4462 -0.3365
 2741TIP3    H229715   6.402   5.594  15.355 -0.6811 -0.7058 -1.4232
 2742TIP3   OH229716   5.881   3.833   0.211  0.0485 -0.0939 -0.0599
 2742TIP3    H129717   5.803   3.870   0.169 -0.0501 -1.6865 -1.3796
 2742TIP3    H229718   5.920   3.907   0.258 -1.4707  1.0736 -0.5449
 2743TIP3   OH229719   4.176   3.933   4.046  0.1879 -0.2430 -0.1635
 2743TIP3    H129720   4.154   4.009   3.991 -2.1358 -0.9361 -0.3249
 2743TIP3    H229721   4.177   3.967   4.135  0.6138  0.2474 -0.3521
 2744TIP3   OH229722   6.335   3.148   6.482 -0.0173 -0.2050 -0.0995
 2744TIP3    H129723   6.267   3.183   6.424  0.3514  4.0104  1.6140
 2744TIP3    H229724   6.306   3.171   6.570  2.8409  0.3503  0.8031
 2745TIP3   OH229725   3.173   1.081   4.777  0.1280 -0.0087  0.7868
 2745TIP3    H129726   3.183   1.156   4.835  0.3338 -0.8348  1.8493
 2745TIP3    H229727   3.146   1.119   4.693  1.2644  1.3418  0.9885
 2746TIP3   OH229728   2.241   4.006  13.667  0.1612  0.1363 -0.1169
 2746TIP3    H129729   2.216   4.095  13.642  0.3867 -0.1498 -1.4720
 2746TIP3    H229730   2.197   3.950  13.602 -1.6600 -0.9290  1.8857
 2747TIP3   OH229731   6.431   2.214   4.592 -0.2526 -0.0551  0.3444
 2747TIP3    H129732   6.473   2.291   4.555 -1.2857  0.4503  0.1682
 2747TIP3    H229733   6.498   2.146   4.590  0.1039  0.3056 -1.2767
 2748TIP3   OH229734   3.250   4.017   3.555 -0.4779 -0.1590 -0.2397
 2748TIP3    H129735   3.209   4.007   3.641 -0.4036  0.0190 -0.1833
 2748TIP3    H229736   3.233   4.108   3.531 -0.9637 -0.3531 -0.6556
 2749TIP3   OH229737   0.461   4.840  13.409 -0.3486  0.8169 -0.6941
 2749TIP3    H129738   0.420   4.916  13.366 -1.0382  1.6037  1.2499
 2749TIP3    H229739   0.387   4.792  13.447  0.3000  0.6487  0.3715
 2750TIP3   OH229740   3.407   4.041  15.474  0.1493  0.0829 -0.2842
 2750TIP3    H129741   3.314   4.040  15.451  0.3320  1.0503 -1.1424
 2750TIP3    H229742   3.435   4.130  15.454  1.0143  0.1265  1.0241
 2751TIP3   OH229743   2.459   1.880  15.624 -0.3091  0.1997 -0.8223
 2751TIP3    H129744   2.454   1.886  15.528 -1.9371  1.7610 -0.6951
 2751TIP3    H229745   2.379   1.922  15.655  0.2325 -0.1846  1.2468
 2752TIP3   OH229746   1.354   1.395  15.948 -0.3608 -0.1884 -0.1402
 2752TIP3    H129747   1.398   1.449  16.012 -0.3172  0.2861 -0.5658
 2752TIP3    H229748   1.261   1.408  15.965 -0.3489 -0.6907  0.3419
 2753TIP3   OH229749   5.258   0.087  14.100  0.1323  0.4402 -0.0141
 2753TIP3    H129750   5.196   0.114  14.033  0.2584  1.4256  0.2483
 2753TIP3    H229751   5.332   0.148  14.090  1.1922 -0.8817 -0.5125
 2754TIP3   OH229752   2.954   6.407  15.752 -0.2903 -0.2593 -0.0910
 2754TIP3    H129753   2.952   6.494  15.713 -1.1829 -0.0413  0.4173
 2754TIP3    H229754   2.960   6.422  15.846 -0.4995 -0.7348  0.0042
 2755TIP3   OH229755   6.591   1.814  13.000  0.2498  0.2303 -1.0897
 2755TIP3    H129756   6.685   1.832  12.995  0.7436 -1.8379 -0.3615
 2755TIP3    H229757   6.586   1.725  13.034 -2.0077  0.5589 -0.4151
 2756TIP3   OH229758   5.117   5.956   5.136 -0.3243  0.4010 -0.1756
 2756TIP3    H129759   5.091   5.864   5.139 -3.3656  1.1491 -0.4546
 2756TIP3    H229760   5.165   5.965   5.054 -0.4332 -0.8485 -0.3921
 2757TIP3   OH229761   0.862   1.361   3.516 -0.3150 -0.1148 -0.3613
 2757TIP3    H129762   0.812   1.388   3.438  0.4899  1.3744 -0.4032
 2757TIP3    H229763   0.937   1.313   3.481 -0.1385  0.2554 -0.5024
 2758TIP3   OH229764   6.165   1.201  14.760 -0.6620 -0.4222 -0.1004
 2758TIP3    H129765   6.214   1.159  14.689 -2.5832 -0.7468 -1.3310
 2758TIP3    H229766   6.170   1.140  14.833  0.9750 -0.3004 -0.0813
 2759TIP3   OH229767   6.401   0.236   2.921 -0.8518 -0.3559 -0.4906
 2759TIP3    H129768   6.451   0.279   2.852  1.5275 -3.2061 -0.7272
 2759TIP3    H229769   6.401   0.299   2.993  0.9862  0.7217 -1.3632
 2760TIP3   OH229770   3.064   3.976  15.026 -0.4682 -0.1592 -0.5136
 2760TIP3    H129771   3.121   3.901  15.006 -0.8294 -0.4835 -0.3532
 2760TIP3    H229772   2.976   3.938  15.026 -0.7778  0.5073 -1.6624
 2761TIP3   OH229773   1.789   3.095   4.349 -0.1394  0.0980 -0.5188
 2761TIP3    H129774   1.775   3.100   4.255 -1.4599 -2.1045 -0.5053
 2761TIP3    H229775   1.879   3.127   4.361 -0.0855  0.8010 -2.4542
 2762TIP3   OH229776   0.557   6.133  15.376 -0.4109  0.2376 -0.2776
 2762TIP3    H129777   0.641   6.113  15.334 -1.6660  0.1707 -3.0029
 2762TIP3    H229778   0.554   6.076  15.453  2.0041  0.2538 -0.0982
 2763TIP3   OH229779   3.776   5.711   5.539 -0.2576  0.2298  0.4320
 2763TIP3    H129780   3.692   5.723   5.493 -0.2025  1.5841  0.6515
 2763TIP3    H229781   3.751   5.678   5.626 -0.5043 -0.1554  0.2192
 2764TIP3   OH229782   6.707   4.472   3.262  0.3206  0.2629  0.0330
 2764TIP3    H129783   6.719   4.380   3.285 -0.0534  0.3350  0.5437
 2764TIP3    H229784   6.620   4.477   3.223 -0.3453  0.6438  1.4793
 2765TIP3   OH229785   6.259   0.856   2.164  0.4606  0.0241  0.4473
 2765TIP3    H129786   6.311   0.888   2.238 -0.0685  2.7137 -0.2176
 2765TIP3    H229787   6.310   0.783   2.129  2.0539  0.3652  1.8793
 2766TIP3   OH229788   0.199   4.415  13.814 -0.4013  0.3711 -0.4485
 2766TIP3    H129789   0.236   4.363  13.742  2.4190 -0.4366  1.4290
 2766TIP3    H229790   0.266   4.480  13.833 -1.1077  0.6041  1.3883
 2767TIP3   OH229791   0.152   0.625   3.960  0.0322  0.0470 -0.4263
 2767TIP3    H129792   0.062   0.639   3.990 -0.1294 -3.0579  0.9627
 2767TIP3    H229793   0.176   0.539   3.996  2.9353 -0.0468 -2.2549
 2768TIP3   OH229794   2.932   1.202  10.939  0.1966 -0.1434  0.3980
 2768TIP3    H129795   2.880   1.126  10.913  0.1338 -0.1328  0.4949
 2768TIP3    H229796   3.019   1.166  10.959 -0.1714 -0.3654  1.6550
 2769TIP3   OH229797   0.942   0.316   3.541 -0.4832 -0.2543  0.2932
 2769TIP3    H129798   0.919   0.343   3.630 -0.8296  2.1357 -0.4516
 2769TIP3    H229799   0.864   0.273   3.508 -0.9012  0.2120  0.6521
 2770TIP3   OH229800   0.909   1.841   0.566 -0.2704  0.4119 -0.0844
 2770TIP3    H129801   0.866   1.818   0.649 -2.5810 -1.6315 -1.6980
 2770TIP3    H229802   0.985   1.782   0.562 -1.0604 -0.6440 -0.0849
 2771TIP3   OH229803   3.764   5.351   2.753 -0.2034  0.5750  0.1252
 2771TIP3    H129804   3.809   5.369   2.671  1.1111  2.0372  1.1051
 2771TIP3    H229805   3.819   5.286   2.797  0.0787  1.1258  0.6029
 2772TIP3   OH229806   0.805   0.435  15.344 -0.0182  0.3110 -0.0919
 2772TIP3    H129807   0.798   0.423  15.249  0.5885 -0.4324 -0.0597
 2772TIP3    H229808   0.733   0.493  15.367  0.6842  1.6743 -1.2188
 2773TIP3   OH229809   2.984   4.814   0.297  0.0475 -0.0912 -0.0874
 2773TIP3    H129810   3.075   4.834   0.277 -0.3009  1.6030 -0.0778
 2773TIP3    H229811   2.977   4.719   0.281  1.7226 -0.2095 -0.3375
 2774TIP3   OH229812   0.537   5.864  16.096 -0.0296 -0.1967 -0.1697
 2774TIP3    H129813   0.482   5.885  16.021  0.2952 -2.0891 -1.0012
 2774TIP3    H229814   0.526   5.769  16.108  2.5941 -0.5504 -0.0361
 2775TIP3   OH229815   6.356   4.703   2.284  0.6761 -0.2241  0.4463
 2775TIP3    H129816   6.440   4.748   2.298  0.8707 -0.3154 -0.3753
 2775TIP3    H229817   6.377   4.633   2.222 -0.0477 -0.1315  0.0924
 2776TIP3   OH229818   2.474   2.554   3.173  0.0776  0.1979  0.0978
 2776TIP3    H129819   2.444   2.540   3.263 -0.2199 -2.4231 -0.3343
 2776TIP3    H229820   2.569   2.548   3.179  0.3049  3.1852  0.6536
 2777TIP3   OH229821   1.729   2.371   1.395 -0.2129  0.3844  0.2332
 2777TIP3    H129822   1.679   2.339   1.471 -0.1337  1.8710  0.9346
 2777TIP3    H229823   1.777   2.294   1.364 -1.2949 -0.5720  0.8438
 2778TIP3   OH229824   0.443   6.726  16.601  0.4303  0.0183  0.0538
 2778TIP3    H129825   0.404   6.652  16.648  1.9848 -1.9364 -1.5474
 2778TIP3    H229826   0.483   6.686  16.524  0.1829  2.7467 -1.5999
 2779TIP3   OH229827   5.851   3.220   4.048 -0.3237 -0.0638  0.0114
 2779TIP3    H129828   5.883   3.301   4.007  0.8603 -0.8588 -0.7056
 2779TIP3    H229829   5.858   3.237   4.142 -1.7452  1.2861 -0.0916
 2780TIP3   OH229830   4.525   6.778   5.709 -0.5885  0.3811 -0.2249
 2780TIP3    H129831   4.533   6.697   5.660 -0.8393  0.7713 -0.9316
 2780TIP3    H229832   4.613   6.815   5.709 -0.5498  0.2893 -0.2182
 2781TIP3   OH229833   4.513   2.208  15.796  0.2412 -0.3071 -0.4351
 2781TIP3    H129834   4.487   2.147  15.727  0.5573 -1.4106  0.3915
 2781TIP3    H229835   4.596   2.173  15.829  1.1944  1.4024 -0.9135
 2782TIP3   OH229836   5.740   6.609   4.233 -0.1992  0.3753  0.1268
 2782TIP3    H129837   5.730   6.704   4.235 -0.8818  0.3051  2.5572
 2782TIP3    H229838   5.651   6.575   4.245 -0.2956 -0.6732 -2.7500
 2783TIP3   OH229839   3.241   5.993   3.912 -0.0747 -0.1728  0.4636
 2783TIP3    H129840   3.170   6.012   3.974 -0.1693  0.4924  0.1624
 2783TIP3    H229841   3.315   5.967   3.967 -0.9604 -2.3419  0.7226
 2784TIP3   OH229842   2.692   5.130   0.247  0.0915  0.3978  0.2460
 2784TIP3    H129843   2.642   5.165   0.174  0.2113  0.0321 -0.0100
 2784TIP3    H229844   2.627   5.080   0.298 -0.3230  1.8565  1.1997
 2785TIP3   OH229845   6.483   3.591   2.755  0.4348 -0.4560  0.2092
 2785TIP3    H129846   6.429   3.659   2.794 -0.4725 -2.9734  3.9533
 2785TIP3    H229847   6.421   3.533   2.711  0.6532 -0.8539  0.4154
 2786TIP3   OH229848   3.019   4.862   2.328  0.3528  0.0670 -0.2248
 2786TIP3    H129849   3.025   4.793   2.394 -1.0806  2.0397  2.1182
 2786TIP3    H229850   3.107   4.865   2.289  1.4208 -0.8426  1.9613
 2787TIP3   OH229851   0.423   4.447   3.779 -0.2266  0.0770 -0.0870
 2787TIP3    H129852   0.475   4.425   3.856 -0.7219  0.3003  0.3163
 2787TIP3    H229853   0.482   4.431   3.705  0.0915 -0.6177  0.3054
 2788TIP3   OH229854   6.560   1.675   0.247  0.2690  0.5662 -0.0081
 2788TIP3    H129855   6.560   1.582   0.225 -1.3862  0.9979 -2.1704
 2788TIP3    H229856   6.505   1.682   0.325  0.6344 -0.2697  0.3349
 2789TIP3   OH229857   2.302   3.759   5.989 -0.0645  0.4129 -0.1620
 2789TIP3    H129858   2.291   3.831   6.052 -0.1777 -0.8566  1.3230
 2789TIP3    H229859   2.395   3.736   5.996 -0.1232  0.1300 -0.3097
 2790TIP3   OH229860   5.017   1.638   0.882 -0.3986 -0.0578 -0.0117
 2790TIP3    H129861   5.002   1.555   0.837 -0.7277  0.5520 -1.0708
 2790TIP3    H229862   4.930   1.668   0.908 -0.1696 -0.6661  1.5769
 2791TIP3   OH229863   5.226   2.659  15.746  0.3798  0.1811  0.8530
 2791TIP3    H129864   5.286   2.660  15.671 -0.1029 -0.9173  0.4385
 2791TIP3    H229865   5.273   2.708  15.814  0.5485  1.7719 -0.3418
 2792TIP3   OH229866   5.260   5.523   4.312  0.0322  0.1019  0.1173
 2792TIP3    H129867   5.217   5.453   4.361 -0.4963 -0.1522 -0.6803
 2792TIP3    H229868   5.343   5.484   4.284  0.5782  0.4207  1.2182
 2793TIP3   OH229869   0.998   6.370  13.195  0.4252 -0.1062 -0.4018
 2793TIP3    H129870   1.030   6.281  13.181  1.8868  0.2172  0.6742
 2793TIP3    H229871   0.991   6.378  13.290  2.6638  1.6688 -0.2934
 2794TIP3   OH229872   4.204   1.652   3.574 -0.2995  0.6371 -0.3681
 2794TIP3    H129873   4.247   1.592   3.513 -0.4746  0.2060 -0.0754
 2794TIP3    H229874   4.187   1.731   3.523  2.0876  1.3665 -0.1198
 2795TIP3   OH229875   4.031   3.345   6.423 -0.0038  0.3008  0.2902
 2795TIP3    H129876   3.978   3.321   6.346  1.6662  1.4131 -1.3077
 2795TIP3    H229877   3.981   3.314   6.498 -1.8625 -0.5806 -1.2380
 2796TIP3   OH229878   0.781   2.834   0.976  0.1298 -0.3677  0.9069
 2796TIP3    H129879   0.698   2.790   0.995  0.7128 -1.7282  0.3902
 2796TIP3    H229880   0.804   2.879   1.057 -2.1916  1.8906  0.4357
 2797TIP3   OH229881   3.440   4.695  11.722  0.0176  0.5417 -0.0267
 2797TIP3    H129882   3.496   4.655  11.655 -1.9106 -1.5458 -0.5289
 2797TIP3    H229883   3.431   4.786  11.694 -0.2764 -0.1323 -2.3607
 2798TIP3   OH229884   2.073   4.655  15.822 -0.6538 -0.1105 -0.6336
 2798TIP3    H129885   2.064   4.686  15.732  1.1599 -0.5948 -1.0323
 2798TIP3    H229886   1.988   4.615  15.842 -1.9679  2.2167 -1.1965
 2799TIP3   OH229887   5.799   1.155   1.721  0.0614 -0.2191  0.0868
 2799TIP3    H129888   5.893   1.171   1.714 -0.1156  0.4055 -1.1653
 2799TIP3    H229889   5.789   1.064   1.694  0.4280 -0.7213  1.5315
 2800TIP3   OH229890   2.791   0.401   0.315  0.2056 -0.6933 -0.4178
 2800TIP3    H129891   2.777   0.494   0.329  0.8618 -0.4285 -1.4175
 2800TIP3    H229892   2.882   0.386   0.340  0.2623 -0.9517 -0.7681
 2801TIP3   OH229893   0.546   4.593  12.276  0.3811  0.4029  0.0430
 2801TIP3    H129894   0.543   4.643  12.357 -0.0347  0.5513 -0.0627
 2801TIP3    H229895   0.593   4.649  12.214  3.7260 -1.0352  1.0821
 2802TIP3   OH229896   4.376   1.416  16.651  0.0072 -0.0299  0.1957
 2802TIP3    H129897   4.406   1.501  16.683 -0.6391  0.8521 -1.4004
 2802TIP3    H229898   4.449   1.384  16.598 -0.4144  0.3693 -0.6400
 2803TIP3   OH229899   2.414   3.393  13.515 -0.3033  0.5929 -0.3133
 2803TIP3    H129900   2.441   3.485  13.507  1.3980  0.2840  1.1241
 2803TIP3    H229901   2.472   3.347  13.453 -1.6545  0.5221 -1.5806
 2804TIP3   OH229902   6.057   5.930  15.818  0.3448  0.2088 -0.3340
 2804TIP3    H129903   6.063   5.851  15.872 -0.0593  1.0737  1.0309
 2804TIP3    H229904   5.977   5.974  15.849  0.5473  1.1325 -1.0863
 2805TIP3   OH229905   3.608   6.581  13.990 -0.0461 -0.0182  0.1698
 2805TIP3    H129906   3.630   6.653  14.049  0.0383 -0.1977  0.3554
 2805TIP3    H229907   3.516   6.563  14.008 -0.3253  0.6496 -0.5178
 2806TIP3   OH229908   4.293   5.071  12.957  0.4729  0.1691 -0.0666
 2806TIP3    H129909   4.279   5.089  12.864  2.2487  0.2119 -0.3521
 2806TIP3    H229910   4.388   5.066  12.967  0.3043 -0.3175  1.6630
 2807TIP3   OH229911   4.506   6.153   0.067 -0.6011 -0.6344 -0.4676
 2807TIP3    H129912   4.469   6.224   0.015 -1.3889 -0.3594  0.4388
 2807TIP3    H229913   4.476   6.073   0.023  0.7541 -0.4418 -1.8171
 2808TIP3   OH229914   0.581   4.142   4.024  0.2042 -0.9757 -0.0041
 2808TIP3    H129915   0.550   4.196   4.096  0.6626  0.5532 -0.8902
 2808TIP3    H229916   0.670   4.118   4.049  0.4151 -0.3271 -0.0975
 2809TIP3   OH229917   3.139   4.348   4.427 -0.6158 -0.2851  0.3239
 2809TIP3    H129918   3.091   4.311   4.353 -0.5678  0.7240 -0.2142
 2809TIP3    H229919   3.113   4.440   4.429  1.5302  0.3730 -0.1748
 2810TIP3   OH229920   3.495   0.795  11.395  0.2876  0.1339 -0.6861
 2810TIP3    H129921   3.524   0.706  11.377 -1.8465 -0.4893 -1.3222
 2810TIP3    H229922   3.529   0.814  11.483 -0.1073 -1.7074 -0.0956
 2811TIP3   OH229923   0.945   2.561   6.062 -0.6069  0.5468 -0.6300
 2811TIP3    H129924   0.852   2.584   6.062 -1.2521 -1.8400 -0.1176
 2811TIP3    H229925   0.975   2.582   6.150 -1.1973 -0.5813 -0.1474
 2812TIP3   OH229926   4.830   2.769   5.778  0.0257 -0.0696  0.2847
 2812TIP3    H129927   4.770   2.829   5.823 -0.3743 -0.0451 -0.2750
 2812TIP3    H229928   4.915   2.813   5.781 -0.2282  0.4426  0.0345
 2813TIP3   OH229929   3.167   2.252   3.999 -0.0289 -0.1409  0.3011
 2813TIP3    H129930   3.078   2.257   4.034 -0.1533 -1.3400  0.1871
 2813TIP3    H229931   3.168   2.317   3.928 -1.4279 -1.4368 -0.9855
 2814TIP3   OH229932   2.089   5.819  11.556  0.4022 -0.2976 -0.3002
 2814TIP3    H129933   2.126   5.903  11.528 -0.9971  1.2408  2.0727
 2814TIP3    H229934   1.995   5.836  11.562  0.2879 -1.3975  2.0850
 2815TIP3   OH229935   5.658   4.760  16.811  0.0452 -0.1463 -0.0032
 2815TIP3    H129936   5.571   4.799  16.821  0.4544  0.7359  0.1765
 2815TIP3    H229937   5.678   4.724  16.898 -0.3804 -0.8793 -0.1987
 2816TIP3   OH229938   3.450   3.980   4.923 -0.9432 -0.0819 -0.5168
 2816TIP3    H129939   3.476   4.029   5.001  0.0553 -0.9553 -0.2685
 2816TIP3    H229940   3.362   4.011   4.903 -1.0550  0.4551  0.7222
 2817TIP3   OH229941   4.177   0.465  11.168 -0.1332 -0.2937  0.0439
 2817TIP3    H129942   4.254   0.471  11.110 -0.0135 -0.7745  0.1456
 2817TIP3    H229943   4.113   0.524  11.128 -0.1804 -0.8834 -0.7901
 2818TIP3   OH229944   0.112   4.078  14.654 -0.0243  0.6302  0.1020
 2818TIP3    H129945   0.147   4.112  14.737  0.3876  1.5801 -0.4449
 2818TIP3    H229946   0.167   4.003  14.633  2.1502  2.4188 -1.0286
 2819TIP3   OH229947   0.263   6.336   0.745  0.3991  0.1061  0.0977
 2819TIP3    H129948   0.229   6.413   0.700  3.2528  1.0983 -0.5612
 2819TIP3    H229949   0.329   6.300   0.685  0.3478 -1.8733  1.1290
 2820TIP3   OH229950   1.856   0.098  11.917 -0.9206 -0.1557 -0.6471
 2820TIP3    H129951   1.799   0.025  11.893 -0.6340 -0.1163 -1.4783
 2820TIP3    H229952   1.854   0.156  11.841  0.4560 -0.3087 -0.8324
 2821TIP3   OH229953   6.063   5.535   0.072  0.2235 -1.2454  0.0074
 2821TIP3    H129954   6.060   5.478  -0.004 -1.6659 -0.2449 -0.7562
 2821TIP3    H229955   5.971   5.551   0.093  0.7104 -0.3781  1.6415
 2822TIP3   OH229956   4.351   6.386  12.082  0.6169 -0.6794 -0.0190
 2822TIP3    H129957   4.277   6.407  12.026  1.3544  0.2976 -0.6658
 2822TIP3    H229958   4.323   6.309  12.131 -1.5439  0.7321  1.1376
 2823TIP3   OH229959   0.943   2.435   2.999  0.0759  0.9488 -0.4740
 2823TIP3    H129960   0.935   2.356   2.946  2.1555  0.3108  0.0599
 2823TIP3    H229961   1.033   2.432   3.033 -0.9660  1.5735  2.6748
 2824TIP3   OH229962   1.793   1.666  12.535  0.5314 -0.4593 -0.1996
 2824TIP3    H129963   1.724   1.656  12.469 -1.9879 -0.0738  2.2067
 2824TIP3    H229964   1.765   1.740  12.589  2.9418 -0.1910  0.8327
 2825TIP3   OH229965   0.462   0.729   2.303  0.0525  0.0277 -0.0261
 2825TIP3    H129966   0.455   0.644   2.260  4.2065  0.2076 -1.5296
 2825TIP3    H229967   0.422   0.791   2.242 -1.4721 -0.6023  0.2992
 2826TIP3   OH229968   5.497   0.753   1.817 -0.2310  1.2077  0.5552
 2826TIP3    H129969   5.500   0.811   1.741  0.4894 -0.4679 -0.7569
 2826TIP3    H229970   5.413   0.773   1.858 -0.2664  2.7429 -0.1793
 2827TIP3   OH229971   4.919   1.740  12.525 -0.0463  0.2202  0.3557
 2827TIP3    H129972   5.012   1.745  12.544 -0.1655 -1.0410  1.4708
 2827TIP3    H229973   4.877   1.783  12.600 -0.4006 -1.2706  1.0530
 2828TIP3   OH229974   6.041   6.710  15.997 -0.3919  0.6050 -0.2827
 2828TIP3    H129975   6.065   6.801  16.015  1.0593  0.0558  0.7534
 2828TIP3    H229976   6.058   6.664  16.079 -3.0176 -0.2871 -0.1441
 2829TIP3   OH229977   4.906   0.497  12.702 -0.1660  0.8564 -0.1276
 2829TIP3    H129978   4.902   0.560  12.774  1.4989 -0.3629  1.1291
 2829TIP3    H229979   4.876   0.415  12.740 -0.6594  0.4806 -1.2652
 2830TIP3   OH229980   0.748   1.604   0.310  0.1987  0.3764  0.1401
 2830TIP3    H129981   0.710   1.660   0.377  1.0728  1.6287 -0.3567
 2830TIP3    H229982   0.808   1.547   0.357 -0.6603 -0.1303  0.6493
 2831TIP3   OH229983   0.949   5.863   0.155 -0.0880 -0.3701 -0.3222
 2831TIP3    H129984   0.930   5.904   0.071 -2.5651 -0.1888  0.2580
 2831TIP3    H229985   0.934   5.931   0.220  0.9324 -0.7543  0.3479
 2832TIP3   OH229986   2.945   4.335   2.085  0.4163 -0.2627  0.7288
 2832TIP3    H129987   2.972   4.258   2.134 -1.7950 -2.0149 -0.6228
 2832TIP3    H229988   2.975   4.318   1.996  1.6543  1.4253  0.7757
 2833TIP3   OH229989   4.314   1.400  16.989  0.2734 -0.5010  0.1072
 2833TIP3    H129990   4.365   1.460  16.934  0.3197 -1.7741 -1.2923
 2833TIP3    H229991   4.226   1.404  16.953  0.0412 -0.4998  0.6709
 2834TIP3   OH229992   4.469   5.757   5.861 -0.3674 -0.1596 -0.1848
 2834TIP3    H129993   4.388   5.797   5.892 -1.6305 -2.7657  0.0542
 2834TIP3    H229994   4.529   5.765   5.935 -0.0930  2.3079 -0.5577
 2835TIP3   OH229995   4.648   3.893   2.300 -0.4196  0.1681 -0.2953
 2835TIP3    H129996   4.606   3.885   2.386 -0.8231 -1.2570 -0.5976
 2835TIP3    H229997   4.699   3.974   2.306  0.1931 -0.2990  1.5630
 2836TIP3   OH229998   2.776   5.851  12.651  0.2896 -0.7095 -0.2670
 2836TIP3    H129999   2.827   5.928  12.677 -0.9120 -0.0612  0.2681
 2836TIP3    H230000   2.736   5.876  12.568 -2.3364  0.4125  1.2041
 2837TIP3   OH230001   3.757   4.692  15.510  0.0255  0.7634  0.2529
 2837TIP3    H130002   3.752   4.788  15.508 -0.8935  0.7900  1.7413
 2837TIP3    H230003   3.848   4.673  15.531 -0.3536  1.4694  2.9948
 2838TIP3   OH230004   4.516   3.069   1.842 -0.1843 -0.8693  0.0097
 2838TIP3    H130005   4.530   2.974   1.838  2.1994 -0.5300 -2.0758
 2838TIP3    H230006   4.590   3.101   1.894 -1.9454 -0.2074  2.2931
 2839TIP3   OH230007   1.812   1.530   3.308  0.1502 -0.0310  0.0994
 2839TIP3    H130008   1.810   1.502   3.217 -3.9870  0.1667 -0.0713
 2839TIP3    H230009   1.818   1.448   3.358 -3.7127 -0.8250 -0.4595
 2840TIP3   OH230010   6.435   0.599  16.266 -0.1647 -0.0123  0.1438
 2840TIP3    H130011   6.409   0.577  16.177 -2.3656  1.1978  0.4421
 2840TIP3    H230012   6.357   0.584  16.319  1.5487 -2.4057  2.2552
 2841TIP3   OH230013   1.509   1.999   2.402  0.1339  0.8463  0.7469
 2841TIP3    H130014   1.554   2.061   2.458  3.5299  0.8923 -1.7059
 2841TIP3    H230015   1.561   1.919   2.408 -1.6116 -0.3779  0.4803
 2842TIP3   OH230016   4.828   0.062   5.702 -0.0434 -0.6006  0.3304
 2842TIP3    H130017   4.896   0.041   5.637  0.3649 -2.0735  1.1906
 2842TIP3    H230018   4.868   0.041   5.786 -1.0088  0.0849  0.9800
 2843TIP3   OH230019   0.559   1.014   3.295 -0.1152  0.0449  0.1761
 2843TIP3    H130020   0.594   1.091   3.339 -0.3054  0.2204  0.0266
 2843TIP3    H230021   0.510   0.967   3.362 -0.6565  0.4670  0.0942
 2844TIP3   OH230022   2.266   4.545  15.548  0.5848 -0.1792 -0.1983
 2844TIP3    H130023   2.201   4.610  15.576  0.8708  0.5772 -1.2197
 2844TIP3    H230024   2.282   4.492  15.626  0.2325  0.8795  0.6217
 2845TIP3   OH230025   3.613   0.771  14.999  0.1828  0.4020 -0.0022
 2845TIP3    H130026   3.622   0.688  15.046  0.4545 -0.0095 -0.7593
 2845TIP3    H230027   3.530   0.807  15.029  0.1904 -0.0196  0.5370
 2846TIP3   OH230028   0.240   1.445   4.462 -0.0894 -1.1852 -0.2553
 2846TIP3    H130029   0.249   1.537   4.437 -0.3107 -0.9207  0.6143
 2846TIP3    H230030   0.253   1.397   4.380 -0.5280 -0.3575 -0.8242
 2847TIP3   OH230031   4.470   3.816  12.949  0.1584 -0.0554  0.2985
 2847TIP3    H130032   4.550   3.786  12.993 -1.9376 -0.9709  3.8843
 2847TIP3    H230033   4.435   3.883  13.007 -1.3108  0.9056 -1.6099
 2848TIP3   OH230034   5.838   2.613   0.506  0.1462  0.5663  0.1299
 2848TIP3    H130035   5.769   2.657   0.457 -0.3379 -0.6554 -0.3043
 2848TIP3    H230036   5.795   2.579   0.585  0.5084  0.8088  0.4400
 2849TIP3   OH230037   3.058   5.951   1.321 -0.9346 -0.4020  0.2347
 2849TIP3    H130038   3.081   5.998   1.401  2.1958 -2.7154  0.9240
 2849TIP3    H230039   3.097   6.004   1.251 -0.4911 -0.1888  0.6339
 2850TIP3   OH230040   3.134   2.654  13.150 -0.0561 -0.1917  0.9413
 2850TIP3    H130041   3.209   2.602  13.177 -1.1819 -1.9711  0.8254
 2850TIP3    H230042   3.163   2.698  13.070  0.5627 -1.6676  0.3087
 2851TIP3   OH230043   5.400   2.360   1.619 -0.1723 -0.5291 -0.0602
 2851TIP3    H130044   5.477   2.319   1.580 -0.4960 -0.6333 -0.5990
 2851TIP3    H230045   5.435   2.437   1.665  0.1740 -0.1463 -0.9304
 2852TIP3   OH230046   5.875   0.782   3.036 -0.5424  0.1395 -0.0470
 2852TIP3    H130047   5.832   0.846   3.094 -1.0417  2.3558 -2.6810
 2852TIP3    H230048   5.803   0.730   3.000 -0.7099  1.5005 -1.7535
 2853TIP3   OH230049   3.621   1.897   5.532 -0.5784  0.3032 -0.7091
 2853TIP3    H130050   3.528   1.916   5.518 -0.7404 -0.0371 -0.1426
 2853TIP3    H230051   3.640   1.934   5.618 -0.0493  0.8261 -1.0408
 2854TIP3   OH230052   1.741   0.630  16.652  0.5933 -0.3924 -0.1115
 2854TIP3    H130053   1.824   0.674  16.669  0.3269  0.4757 -0.9688
 2854TIP3    H230054   1.742   0.554  16.709  0.2347  1.6880  2.8953
 2855TIP3   OH230055   0.922   4.934  15.072  0.5917  0.9867 -0.0950
 2855TIP3    H130056   0.896   4.974  14.989 -0.4376 -1.4253 -1.0188
 2855TIP3    H230057   0.882   4.848  15.071  2.2161  0.1098  2.0405
 2856TIP3   OH230058   5.041   0.523  11.700 -0.0560 -0.1419  0.2376
 2856TIP3    H130059   5.079   0.489  11.781  1.9829  0.8610 -0.2534
 2856TIP3    H230060   4.946   0.515  11.713  0.2382 -0.5227  2.4700
 2857TIP3   OH230061   6.774   0.162  15.837  0.5705  0.3157 -0.1868
 2857TIP3    H130062   6.813   0.143  15.751  1.8747 -1.3121  0.7026
 2857TIP3    H230063   6.694   0.111  15.838  0.3717  0.6113 -0.5501
 2858TIP3   OH230064   1.680   4.167   0.186 -0.4947  0.0496  0.0532
 2858TIP3    H130065   1.667   4.073   0.179 -1.2517  0.1634 -0.1123
 2858TIP3    H230066   1.770   4.181   0.156 -0.6662 -0.5167 -0.7506
 2859TIP3   OH230067   6.250   3.809   0.242  0.2310 -0.5491  0.0426
 2859TIP3    H130068   6.328   3.777   0.287 -0.8660 -1.5973  1.2923
 2859TIP3    H230069   6.180   3.751   0.272 -1.2548  1.0899 -0.1044
 2860TIP3   OH230070   1.694   1.535   3.999  0.1449 -0.4896  0.8313
 2860TIP3    H130071   1.648   1.618   4.015 -2.1119 -1.1552 -1.5408
 2860TIP3    H230072   1.785   1.561   3.984 -1.1623  2.4660 -4.6946
 2861TIP3   OH230073   1.953   5.957   3.963  0.4436  0.1598 -0.8167
 2861TIP3    H130074   1.969   5.940   3.870  0.9356  0.4474 -0.7880
 2861TIP3    H230075   1.978   5.875   4.007  1.2817  0.3944 -0.8350
 2862TIP3   OH230076   0.893   4.772   3.255  0.3688 -0.0223 -0.6507
 2862TIP3    H130077   0.811   4.799   3.214  1.2382 -0.0855 -2.5385
 2862TIP3    H230078   0.960   4.791   3.189  1.4932 -2.9959 -0.5102
 2863TIP3   OH230079   3.266   1.681  15.446 -0.4214  0.0019  0.0262
 2863TIP3    H130080   3.219   1.742  15.502 -2.8535 -1.0843 -0.7098
 2863TIP3    H230081   3.223   1.596  15.461  0.8147 -0.9001 -1.2651
 2864TIP3   OH230082   3.796   2.534   4.403  0.3411  0.1643 -0.2683
 2864TIP3    H130083   3.796   2.440   4.425 -0.6677  0.1841 -0.0981
 2864TIP3    H230084   3.813   2.578   4.487  1.6506  0.1212 -0.5010
 2865TIP3   OH230085   6.266   5.225   2.477  0.1288  0.1744  0.2177
 2865TIP3    H130086   6.357   5.242   2.452 -0.0611  0.0241 -0.5931
 2865TIP3    H230087   6.246   5.292   2.542  0.5297  0.7928 -0.2847
 2866TIP3   OH230088   3.661   6.008   5.404 -0.2576  0.0134  0.0712
 2866TIP3    H130089   3.664   5.921   5.444 -0.3336  0.8571  2.0461
 2866TIP3    H230090   3.693   6.066   5.473  0.7448  1.4537 -1.5482
 2867TIP3   OH230091   6.187   0.093  13.682  0.1341  0.0914  0.0251
 2867TIP3    H130092   6.276   0.057  13.690 -0.1334 -0.2574  1.9210
 2867TIP3    H230093   6.140   0.058  13.758 -1.0565  1.9073  0.1843
 2868TIP3   OH230094   5.828   5.391   4.367  0.5839  0.7420  0.0244
 2868TIP3    H130095   5.786   5.476   4.380  2.4695  1.6777  0.2714
 2868TIP3    H230096   5.916   5.401   4.403  1.3341 -0.8875 -1.2006
 2869TIP3   OH230097   6.059   5.693   6.409 -0.6373 -0.2147  0.3175
 2869TIP3    H130098   6.030   5.616   6.361  0.0869 -0.4519  0.2542
 2869TIP3    H230099   5.982   5.751   6.409 -1.8253 -1.6804  1.9851
 2870TIP3   OH230100   3.876   4.344  15.848  0.5203  0.6038  0.3745
 2870TIP3    H130101   3.897   4.407  15.916 -0.6560 -0.8003  2.1219
 2870TIP3    H230102   3.893   4.259  15.887 -4.0054 -0.4878  0.5335
 2871TIP3   OH230103   3.847   4.095  16.299 -0.0829 -0.6209  0.2286
 2871TIP3    H130104   3.861   4.189  16.307 -0.8201 -0.5865  1.5073
 2871TIP3    H230105   3.774   4.087  16.238  1.3073 -0.5036 -1.5313
 2872TIP3   OH230106   6.382   0.396   3.164 -0.6886 -0.4135  0.4134
 2872TIP3    H130107   6.401   0.464   3.229 -0.3307 -0.7206  0.6362
 2872TIP3    H230108   6.420   0.316   3.202 -0.3350 -0.5642 -0.2451
 2873TIP3   OH230109   2.599   2.258  12.827  0.0928  0.1487 -0.3556
 2873TIP3    H130110   2.683   2.286  12.792  0.6464  0.9083  1.4860
 2873TIP3    H230111   2.560   2.206  12.756  0.8191  2.1761 -2.3527
 2874TIP3   OH230112   4.026   6.552  16.839  0.2967 -0.3155 -0.4701
 2874TIP3    H130113   4.031   6.639  16.879 -2.0617  0.2880 -1.3377
 2874TIP3    H230114   4.077   6.560  16.759  2.7750 -0.7398  0.9734
 2875TIP3   OH230115   6.170   3.182   6.000 -0.0241 -0.1628  0.1582
 2875TIP3    H130116   6.228   3.228   6.061 -0.8930 -0.9936  1.6664
 2875TIP3    H230117   6.083   3.220   6.016 -1.0493 -3.0831  2.4492
 2876TIP3   OH230118   5.827   5.201   2.427 -0.3964  0.6235  0.2919
 2876TIP3    H130119   5.769   5.277   2.412 -0.0700  1.1958  1.7538
 2876TIP3    H230120   5.768   5.133   2.460 -0.0585  1.7889  3.5660
 2877TIP3   OH230121   2.413   1.327   4.293 -0.4177  0.2364 -0.3198
 2877TIP3    H130122   2.449   1.248   4.334  0.6277  1.1961  0.7018
 2877TIP3    H230123   2.410   1.307   4.200  0.2453 -0.8560 -0.1251
 2878TIP3   OH230124   3.270   3.900  12.553 -0.0792 -0.1986 -0.0104
 2878TIP3    H130125   3.248   3.819  12.600 -0.4169  0.4494  0.9864
 2878TIP3    H230126   3.360   3.919  12.579  0.1939 -0.5565 -0.6935
 2879TIP3   OH230127   4.255   2.617  12.129  0.0020 -0.2641 -0.1589
 2879TIP3    H130128   4.288   2.536  12.090  0.2990 -0.0974 -0.2521
 2879TIP3    H230129   4.163   2.620  12.101  0.7042  0.8979 -2.6437
 2880TIP3   OH230130   0.948   6.159   4.047 -0.0492 -0.1398 -0.6239
 2880TIP3    H130131   0.994   6.213   4.110  1.1843 -1.5692 -0.2417
 2880TIP3    H230132   1.006   6.084   4.033 -1.7044 -1.3831 -1.0901
 2881TIP3   OH230133   6.013   2.312  12.433 -0.7256 -0.0698  0.0183
 2881TIP3    H130134   6.091   2.267  12.465  0.4236  0.9672 -1.1757
 2881TIP3    H230135   6.025   2.403  12.459 -2.2768 -0.1205  1.0752
 2882TIP3   OH230136   1.684   3.529  14.634 -0.4428  0.0333 -0.0922
 2882TIP3    H130137   1.764   3.571  14.603 -0.8084  1.7203  1.0934
 2882TIP3    H230138   1.713   3.473  14.706 -0.1670 -0.5275 -0.6250
 2883TIP3   OH230139   6.811   2.952   3.476 -0.1140 -0.2359  0.1134
 2883TIP3    H130140   6.810   2.958   3.380  2.1056 -0.1391  0.0274
 2883TIP3    H230141   6.788   2.861   3.495  2.1283 -1.0670 -0.7390
 2884TIP3   OH230142   1.663   3.122  12.352 -0.7330  0.4838  0.0298
 2884TIP3    H130143   1.728   3.057  12.327  0.5777  1.8430 -0.2904
 2884TIP3    H230144   1.624   3.088  12.433 -0.1641 -0.7181 -0.1843
 2885TIP3   OH230145   4.942   2.142   0.398 -0.4659  0.5007 -0.2171
 2885TIP3    H130146   4.893   2.180   0.472 -0.8873  1.1564 -0.8152
 2885TIP3    H230147   5.032   2.139   0.429 -1.0924 -2.6663  1.6885
 2886TIP3   OH230148   3.038   3.882  11.156  0.5209 -0.0995  0.0619
 2886TIP3    H130149   3.133   3.882  11.151  0.4724  0.0680 -1.8582
 2886TIP3    H230150   3.010   3.833  11.079 -0.9492 -0.5550  0.8505
 2887TIP3   OH230151   1.262   5.432   2.317  0.5069 -0.0733  0.1967
 2887TIP3    H130152   1.338   5.381   2.344  0.5197 -0.5961 -0.7870
 2887TIP3    H230153   1.295   5.492   2.251  0.3156  0.6334  0.7247
 2888TIP3   OH230154   4.297   2.875   2.092 -0.7561  0.4112 -0.0257
 2888TIP3    H130155   4.205   2.902   2.091 -1.1836 -0.9335  0.5803
 2888TIP3    H230156   4.319   2.860   1.999 -1.0491  1.0343 -0.1977
 2889TIP3   OH230157   0.979   4.075   0.494  0.5434  0.2744  0.1763
 2889TIP3    H130158   1.042   4.006   0.516 -0.0163 -0.1550  0.4548
 2889TIP3    H230159   0.915   4.073   0.566 -1.3404 -1.1601 -1.4410
 2890TIP3   OH230160   2.180   0.373  15.554 -0.3286 -0.6200 -0.6087
 2890TIP3    H130161   2.215   0.395  15.640 -1.8304 -1.2981  0.2182
 2890TIP3    H230162   2.217   0.439  15.496  0.6665 -0.1002  0.5614
 2891TIP3   OH230163   4.270   4.784   0.926 -0.1712  0.7582  0.1800
 2891TIP3    H130164   4.320   4.772   0.845  1.1771  2.0679  0.7586
 2891TIP3    H230165   4.226   4.869   0.914  0.4503  1.2111  0.9914
 2892TIP3   OH230166   0.288   1.002   4.043  0.2883 -0.2384 -0.0175
 2892TIP3    H130167   0.222   0.978   4.108  0.0903  0.1407 -0.0754
 2892TIP3    H230168   0.246   1.070   3.991  1.5656  1.7709  1.4430
 2893TIP3   OH230169   3.870   2.398  13.366  0.6459 -0.2381  0.1344
 2893TIP3    H130170   3.924   2.432  13.294 -1.5151 -1.2590 -2.1187
 2893TIP3    H230171   3.894   2.306  13.371 -0.0223 -0.4271 -0.0796
 2894TIP3   OH230172   5.411   0.495   4.461 -0.0199  0.0352 -0.0656
 2894TIP3    H130173   5.390   0.575   4.413 -0.0362 -0.2412 -0.5237
 2894TIP3    H230174   5.328   0.448   4.468 -0.1530  0.3852  0.8247
 2895TIP3   OH230175   1.489   3.674   4.269 -0.0220  0.0504 -0.0299
 2895TIP3    H130176   1.497   3.605   4.204  0.4713 -0.3021  0.3913
 2895TIP3    H230177   1.536   3.640   4.346 -0.5998  0.4497  0.5121
 2896TIP3   OH230178   5.587   2.907  12.510  0.2512  0.8887 -0.1924
 2896TIP3    H130179   5.500   2.866  12.509  0.6376 -0.0282 -2.5555
 2896TIP3    H230180   5.615   2.900  12.601 -1.6995  0.2298  0.4225
 2897TIP3   OH230181   2.618   1.895  14.514 -0.1119  0.3930 -0.2875
 2897TIP3    H130182   2.679   1.892  14.440 -0.2097  0.6061 -0.3782
 2897TIP3    H230183   2.563   1.971  14.496 -0.2004  0.3870 -0.0440
 2898TIP3   OH230184   5.282   0.250   4.217 -0.1000  0.3379 -0.6363
 2898TIP3    H130185   5.231   0.272   4.295 -0.3125  0.5163 -0.8235
 2898TIP3    H230186   5.373   0.263   4.243 -0.1935  0.8378 -0.5534
 2899TIP3   OH230187   0.001   4.236  16.782  0.2720 -0.7962 -0.6761
 2899TIP3    H130188  -0.027   4.298  16.715 -1.2992 -0.4543  0.2239
 2899TIP3    H230189  -0.038   4.270  16.863  1.9715 -1.2840  0.3855
 2900TIP3   OH230190   5.338   1.141  15.110 -0.5053  0.8753 -0.3150
 2900TIP3    H130191   5.427   1.153  15.078  0.2254 -0.8970  0.8999
 2900TIP3    H230192   5.346   1.136  15.205 -1.9158  0.8024 -0.1668
 2901TIP3   OH230193   3.451   1.372   5.088  0.1053  0.1309 -0.1603
 2901TIP3    H130194   3.407   1.455   5.105  0.4310  0.0879  0.9423
 2901TIP3    H230195   3.544   1.391   5.096  0.1611 -0.5440  1.2151
 2902TIP3   OH230196   0.643   3.086  10.660 -0.0784 -0.1113 -0.1518
 2902TIP3    H130197   0.679   3.060  10.575  0.4025  1.9373 -0.6328
 2902TIP3    H230198   0.604   3.172  10.644 -2.3109 -0.8193  1.1376
 2903TIP3   OH230199   5.163   2.399  16.774  0.0936 -0.7996  0.2566
 2903TIP3    H130200   5.170   2.304  16.774 -0.7138 -0.9047  2.0245
 2903TIP3    H230201   5.096   2.418  16.710  1.3327 -1.2726 -1.2456
 2904TIP3   OH230202   6.217   1.593   3.978 -0.5583 -0.4227 -0.4394
 2904TIP3    H130203   6.202   1.666   4.039  1.8287 -0.6184  0.4904
 2904TIP3    H230204   6.182   1.624   3.895  1.3037  2.3025 -0.3416
 2905TIP3   OH230205   0.785   1.818  13.520 -0.0534  0.3842 -0.0879
 2905TIP3    H130206   0.694   1.842  13.504 -0.4768 -0.2899  1.1781
 2905TIP3    H230207   0.790   1.805  13.615  1.7237  1.8430  0.0593
 2906TIP3   OH230208   3.979   6.278  14.949 -0.0995  1.0629 -0.2542
 2906TIP3    H130209   3.886   6.301  14.943 -0.0491  1.7466  1.1014
 2906TIP3    H230210   4.000   6.291  15.041  0.9188 -0.8016 -0.1902
 2907TIP3   OH230211   1.129   1.715   3.534 -0.5506  0.1067 -0.5481
 2907TIP3    H130212   1.060   1.708   3.600  0.0511 -2.0553 -0.0551
 2907TIP3    H230213   1.093   1.671   3.457  0.2064 -0.9782 -0.3076
 2908TIP3   OH230214   3.854   0.436   5.606 -0.3095 -0.5201  0.2636
 2908TIP3    H130215   3.775   0.482   5.634  0.0607 -1.0285  2.3392
 2908TIP3    H230216   3.886   0.393   5.685  0.9663 -1.9564 -0.9591
 2909TIP3   OH230217   1.600   0.905  14.109 -0.5368 -0.6562 -0.3858
 2909TIP3    H130218   1.580   0.910  14.015  3.1129  1.6260 -1.2578
 2909TIP3    H230219   1.648   0.986  14.127  1.3841 -2.3277  2.8042
 2910TIP3   OH230220   1.072   5.509   5.041  1.5449  0.1853  0.0243
 2910TIP3    H130221   1.009   5.515   5.112  1.4954  1.6375 -0.0991
 2910TIP3    H230222   1.074   5.417   5.017  0.2674 -0.0446  0.7419
 2911TIP3   OH230223   4.294   5.108  16.351  0.3125 -0.3285 -0.0296
 2911TIP3    H130224   4.277   5.137  16.441 -0.9874 -2.8674  0.6442
 2911TIP3    H230225   4.207   5.093  16.314  0.8028  1.2800 -2.0023
 2912TIP3   OH230226   0.609   2.927   2.570  0.1237  0.0145 -0.0982
 2912TIP3    H130227   0.619   2.837   2.600 -0.0294  0.4877  1.4318
 2912TIP3    H230228   0.694   2.968   2.586  0.5826 -0.1297 -1.8970
 2913TIP3   OH230229   3.244   0.250  17.010 -0.4391 -0.4954 -0.3494
 2913TIP3    H130230   3.262   0.308  16.937  0.0374 -0.6345 -0.3456
 2913TIP3    H230231   3.164   0.203  16.986 -0.5865 -0.1457 -0.5347
 2914TIP3   OH230232   4.475   5.175  14.061 -0.1883 -0.1146 -0.6798
 2914TIP3    H130233   4.391   5.145  14.097  0.2559  0.6535  1.1411
 2914TIP3    H230234   4.533   5.100  14.070 -0.4045 -0.3136 -0.9403
 2915TIP3   OH230235   5.304   0.924  13.367  1.1599  0.2328 -0.7171
 2915TIP3    H130236   5.226   0.871  13.350  0.6960  0.2951  1.0969
 2915TIP3    H230237   5.377   0.863  13.354  0.7867 -0.0698 -1.4981
 2916TIP3   OH230238   1.612   4.807   3.796  0.1498  0.0143  0.5916
 2916TIP3    H130239   1.674   4.809   3.869 -0.3747  0.1244  1.0300
 2916TIP3    H230240   1.583   4.897   3.786 -1.2628 -0.3237  1.5125
 2917TIP3   OH230241   4.660   5.876  12.600 -0.8193 -0.2730  0.4082
 2917TIP3    H130242   4.667   5.917  12.686  1.3544 -0.5261  0.4035
 2917TIP3    H230243   4.666   5.782  12.617 -0.6268 -0.3385  0.0014
 2918TIP3   OH230244   0.548   2.435  11.827  0.1325 -0.2139  0.0097
 2918TIP3    H130245   0.599   2.490  11.886 -1.6656  1.8345 -0.2118
 2918TIP3    H230246   0.499   2.376  11.884  2.4242 -2.0568  0.2331
 2919TIP3   OH230247   3.297   0.451  13.350  0.2936 -0.1270 -0.2902
 2919TIP3    H130248   3.322   0.359  13.348  0.9693  0.0478 -0.0187
 2919TIP3    H230249   3.363   0.493  13.406 -1.2010  0.1506  1.3745
 2920TIP3   OH230250   6.566   2.434  16.415  0.0284  0.0232 -0.2977
 2920TIP3    H130251   6.612   2.367  16.465  2.1246  0.7442 -1.1512
 2920TIP3    H230252   6.559   2.397  16.327  0.5749  0.6051 -0.5982
 2921TIP3   OH230253   3.456   5.930   4.051  0.0472 -0.4825  0.1619
 2921TIP3    H130254   3.431   5.887   4.133  0.0537 -0.1419  0.3461
 2921TIP3    H230255   3.506   6.007   4.079  2.8899 -2.0382 -0.1965
 2922TIP3   OH230256   1.395   1.287  14.157  0.3505  0.3288 -0.4492
 2922TIP3    H130257   1.478   1.297  14.110  0.6937 -0.1719  0.0395
 2922TIP3    H230258   1.389   1.193  14.175 -0.0527  0.4415  0.0137
 2923TIP3   OH230259   4.236   0.619  16.174  0.1134  0.4945 -0.3369
 2923TIP3    H130260   4.249   0.587  16.085  0.7526  0.8040 -0.3629
 2923TIP3    H230261   4.324   0.638  16.205  0.1237 -1.6056  1.1280
 2924TIP3   OH230262   3.374   6.144   3.158  0.5091 -0.5855 -0.1866
 2924TIP3    H130263   3.310   6.211   3.184  0.2635 -0.4420 -1.1309
 2924TIP3    H230264   3.455   6.171   3.200  0.2588 -0.0510 -0.0387
 2925TIP3   OH230265   3.475   4.924   3.413  0.1434  0.2890 -0.2059
 2925TIP3    H130266   3.525   4.904   3.334  0.8552  1.4066 -0.0660
 2925TIP3    H230267   3.482   5.019   3.422 -1.0648  0.3357  0.4566
 2926TIP3   OH230268   2.834   2.961  15.309  0.1132  0.0144 -0.9910
 2926TIP3    H130269   2.762   2.928  15.256 -1.2232  0.0332  0.7276
 2926TIP3    H230270   2.829   2.911  15.390  0.4183  1.7724  0.1764
 2927TIP3   OH230271   6.795   1.616   6.493  0.0157 -0.0424  0.1762
 2927TIP3    H130272   6.877   1.607   6.541  0.4404  1.2430 -0.2750
 2927TIP3    H230273   6.737   1.550   6.531  1.7042 -2.0062 -0.4750
 2928TIP3   OH230274   2.367   5.537  12.418  0.5579  0.1407 -0.2922
 2928TIP3    H130275   2.310   5.614  12.422 -1.2705 -1.2002  0.5937
 2928TIP3    H230276   2.436   5.562  12.356 -1.0755  1.7839 -1.5734
 2929TIP3   OH230277   2.910   6.191  15.444  0.6739 -0.5804  0.1395
 2929TIP3    H130278   2.921   6.264  15.383  0.1610 -0.4316  0.2265
 2929TIP3    H230279   2.816   6.186  15.460  0.8406 -0.2903  1.3252
 2930TIP3   OH230280   1.238   6.723   4.815  0.8186 -0.2460 -0.0467
 2930TIP3    H130281   1.289   6.675   4.881  0.1178 -2.0098 -0.7090
 2930TIP3    H230282   1.294   6.723   4.737  1.1451  0.7511  0.1802
 2931TIP3   OH230283   3.108   2.582  15.029  0.0858  0.0533 -0.9018
 2931TIP3    H130284   3.041   2.649  15.020  0.1990 -0.0240 -2.5201
 2931TIP3    H230285   3.111   2.539  14.944  1.7050 -0.4045 -0.6451
 2932TIP3   OH230286   2.060   0.075   0.728 -0.1854 -0.2712  0.0038
 2932TIP3    H130287   2.013   0.153   0.697  1.7436  0.8319 -0.3200
 2932TIP3    H230288   2.023   0.059   0.815 -0.8120  0.8723 -0.0243
 2933TIP3   OH230289   5.665   6.586  15.392  0.4905 -0.4092  0.2212
 2933TIP3    H130290   5.702   6.498  15.395 -4.0524 -2.5493  1.0400
 2933TIP3    H230291   5.643   6.606  15.483  0.4803  1.1430 -0.0990
 2934TIP3   OH230292   0.627   4.702   1.831  0.9424 -0.0058 -0.4134
 2934TIP3    H130293   0.532   4.692   1.828  1.1271 -3.5982  0.6693
 2934TIP3    H230294   0.651   4.726   1.741 -0.8491 -0.8641 -1.1802
 2935TIP3   OH230295   4.254   0.955  11.058  0.3359 -0.1463  0.4384
 2935TIP3    H130296   4.342   0.970  11.021 -0.1964  1.7659 -0.2014
 2935TIP3    H230297   4.269   0.943  11.151  1.1263  3.3363  0.8905
 2936TIP3   OH230298   4.635   3.482  16.943  0.4283 -0.2030  0.2227
 2936TIP3    H130299   4.727   3.456  16.941  0.2118 -1.0518  0.5320
 2936TIP3    H230300   4.636   3.577  16.937  1.4129 -0.0703  1.9683
 2937TIP3   OH230301   1.597   3.455  15.231  0.1989 -0.3995  0.4128
 2937TIP3    H130302   1.544   3.440  15.152  1.4149  0.4692 -0.6182
 2937TIP3    H230303   1.561   3.536  15.269 -1.3748 -1.6249  1.6506
 2938TIP3   OH230304   2.192   5.398  10.935 -0.3836  0.4623 -0.1269
 2938TIP3    H130305   2.157   5.449  11.008  1.1458  0.7537  0.4511
 2938TIP3    H230306   2.194   5.460  10.862 -0.9714  0.4665 -0.1449
 2939TIP3   OH230307   1.621   2.632   0.526  0.0112  0.1545  0.1337
 2939TIP3    H130308   1.606   2.726   0.522  0.5644  0.2629  0.5130
 2939TIP3    H230309   1.538   2.593   0.500 -0.4373  0.7386  0.6861
 2940TIP3   OH230310   2.835   2.613   1.558 -0.4980 -0.2390  0.3523
 2940TIP3    H130311   2.856   2.521   1.574 -0.2967 -0.4140 -0.8049
 2940TIP3    H230312   2.785   2.640   1.634  1.8935 -0.4758  2.1324
 2941TIP3   OH230313   0.712   3.718   1.127 -0.2423  0.1379 -0.2487
 2941TIP3    H130314   0.725   3.790   1.188 -0.0631 -1.4799  1.7719
 2941TIP3    H230315   0.626   3.733   1.089  0.2653  1.9788 -0.7741
 2942TIP3   OH230316   2.784   4.815  11.079 -0.0833  0.0649 -0.1482
 2942TIP3    H130317   2.774   4.852  11.166 -2.7425 -0.1673 -0.2988
 2942TIP3    H230318   2.768   4.722  11.090  0.3501 -0.0951 -0.7876
 2943TIP3   OH230319   5.337   4.413   4.219  0.6421 -0.5821 -0.0308
 2943TIP3    H130320   5.401   4.479   4.192 -0.5020  0.1276 -1.0982
 2943TIP3    H230321   5.347   4.409   4.314  0.1892  1.7708  0.1833
 2944TIP3   OH230322   6.088   5.561  14.694  0.1171 -0.3846  0.0768
 2944TIP3    H130323   6.085   5.502  14.619 -0.4736  0.7692 -0.8367
 2944TIP3    H230324   6.142   5.516  14.759  0.0647 -1.7003 -0.7791
 2945TIP3   OH230325   6.494   3.439   6.169  0.8600 -0.3680  0.1486
 2945TIP3    H130326   6.445   3.362   6.196  0.3857  0.2209  1.0192
 2945TIP3    H230327   6.553   3.407   6.100 -1.9492 -0.7781 -2.2984
 2946TIP3   OH230328   5.601   6.577  14.552  0.0639  0.1832  0.1773
 2946TIP3    H130329   5.680   6.566  14.605  0.4404  0.7476 -0.2450
 2946TIP3    H230330   5.568   6.663  14.576  0.2244  0.4354 -0.4732
 2947TIP3   OH230331   3.015   5.144  13.915  0.2340  0.5811 -0.0287
 2947TIP3    H130332   2.965   5.210  13.867 -1.5766 -0.6895  0.0124
 2947TIP3    H230333   3.011   5.172  14.006 -3.4398 -1.1626  0.5285
 2948TIP3   OH230334   2.889   2.971  13.717 -0.4947  0.1045 -0.2295
 2948TIP3    H130335   2.876   2.910  13.645 -1.2038 -0.3185  0.2471
 2948TIP3    H230336   2.801   2.984  13.754 -0.2384  0.8116  0.1602
 2949TIP3   OH230337   5.236   2.457   5.628  0.0508 -0.0358 -0.3567
 2949TIP3    H130338   5.192   2.375   5.650 -0.7884 -0.1867 -2.4393
 2949TIP3    H230339   5.321   2.451   5.673 -0.5533 -1.3736  0.6930
 2950TIP3   OH230340   3.168   1.410  11.475  0.1512  1.2481 -0.2114
 2950TIP3    H130341   3.189   1.406  11.382  2.0851  1.6825  0.1665
 2950TIP3    H230342   3.083   1.367  11.482  1.8590 -2.7775 -1.5901
 2951TIP3   OH230343   2.497   5.285   3.371 -0.0372 -0.2355 -0.1516
 2951TIP3    H130344   2.479   5.192   3.367 -0.5779 -0.1455  0.1266
 2951TIP3    H230345   2.582   5.295   3.328 -0.4099 -0.7249 -1.0025
 2952TIP3   OH230346   2.402   5.646   4.231  0.0153 -0.7736  0.1097
 2952TIP3    H130347   2.322   5.618   4.276 -0.6200 -1.1990 -1.2186
 2952TIP3    H230348   2.438   5.566   4.193 -1.0037 -0.1216 -2.4582
 2953TIP3   OH230349   2.833   3.625   0.673 -0.4160 -0.3784  0.0027
 2953TIP3    H130350   2.898   3.555   0.681 -0.5727 -0.4277  0.9911
 2953TIP3    H230351   2.839   3.673   0.756 -0.1995  0.8873 -0.7175
 2954TIP3   OH230352   4.792   6.774  14.063 -0.0220  0.6066 -0.4831
 2954TIP3    H130353   4.769   6.866  14.075  0.9698  0.8192 -0.1316
 2954TIP3    H230354   4.885   6.769  14.086 -0.3729 -0.7199  0.8382
 2955TIP3   OH230355   0.817   0.294  14.646 -0.2958 -0.2016 -0.5026
 2955TIP3    H130356   0.904   0.298  14.607 -0.6373 -0.7696 -1.3444
 2955TIP3    H230357   0.798   0.201  14.654  0.5312 -0.1916  2.8274
 2956TIP3   OH230358   4.331   2.242   5.618 -0.6598 -0.0031  0.3774
 2956TIP3    H130359   4.251   2.214   5.575 -1.1510  0.0844  1.2206
 2956TIP3    H230360   4.377   2.295   5.552 -0.4810 -1.4269 -0.6779
 2957TIP3   OH230361   4.675   1.898   5.908  0.3015  0.3221 -0.3278
 2957TIP3    H130362   4.749   1.843   5.882  0.4077 -0.1284  0.8711
 2957TIP3    H230363   4.715   1.974   5.951  0.0969  0.6317 -0.6739
 2958TIP3   OH230364   3.847   1.950  14.929 -0.0621 -0.3247  0.3461
 2958TIP3    H130365   3.853   1.854  14.934  0.8726 -0.2547  0.8271
 2958TIP3    H230366   3.824   1.977  15.018  1.2645 -0.0089  0.6066
 2959TIP3   OH230367   3.224   4.115   2.829 -0.1282 -0.2160 -0.2843
 2959TIP3    H130368   3.297   4.053   2.834  0.0232  0.0566  1.2695
 2959TIP3    H230369   3.252   4.181   2.766  1.6221  0.6757  1.3398
 2960TIP3   OH230370   2.155   0.345  14.819  0.3384 -0.1566 -0.8020
 2960TIP3    H130371   2.239   0.327  14.861 -1.8596  0.2109  4.5241
 2960TIP3    H230372   2.157   0.439  14.800  0.5996  0.2186  0.9369
 2961TIP3   OH230373   2.637   4.854  15.814 -0.3216 -0.1308  0.4964
 2961TIP3    H130374   2.648   4.799  15.892 -0.2702 -1.9615 -0.7368
 2961TIP3    H230375   2.549   4.834  15.783  0.2770 -0.8192 -0.8845
 2962TIP3   OH230376   6.816   2.031  10.375 -0.2409 -0.7197 -0.1473
 2962TIP3    H130377   6.838   2.050  10.466 -0.0813  0.6183 -0.4530
 2962TIP3    H230378   6.720   2.034  10.372 -0.2261  2.3678 -0.6091
 2963TIP3   OH230379   4.315   6.079   0.559  0.5262 -0.3604 -0.3816
 2963TIP3    H130380   4.322   5.983   0.566 -0.6176 -0.6668 -2.4441
 2963TIP3    H230381   4.353   6.099   0.473  1.7875  1.2124  0.4979
 2964TIP3   OH230382   3.536   5.827  10.995  0.2020  0.6588  0.0568
 2964TIP3    H130383   3.552   5.873  10.913 -1.6160  1.3190  0.0223
 2964TIP3    H230384   3.585   5.878  11.060  0.9354  0.6487 -0.4743
 2965TIP3   OH230385   0.803   2.969   1.221 -0.4580  0.4581 -0.1420
 2965TIP3    H130386   0.826   2.957   1.313  2.0126  0.8668 -0.6367
 2965TIP3    H230387   0.719   3.015   1.223 -0.8703 -0.2904  1.8812
 2966TIP3   OH230388   6.311   2.058  15.980  0.4752  0.2185  0.4263
 2966TIP3    H130389   6.274   2.134  15.935 -0.0096 -0.1952  0.1159
 2966TIP3    H230390   6.405   2.063  15.963  0.3699  0.4025 -0.1217
 2967TIP3   OH230391   1.537   5.399  16.709 -0.1240 -0.5369 -0.4059
 2967TIP3    H130392   1.521   5.435  16.622  2.2282  0.7603 -0.3893
 2967TIP3    H230393   1.571   5.311  16.692 -0.1578 -0.4820 -0.7723
 2968TIP3   OH230394   2.237   3.278   3.586  0.1024  0.0471 -0.5570
 2968TIP3    H130395   2.244   3.360   3.536 -0.1145 -0.5237 -1.5580
 2968TIP3    H230396   2.156   3.238   3.555 -0.2781 -0.1141  0.6073
 2969TIP3   OH230397   4.469   1.555  12.606 -0.5069 -0.0483 -0.2192
 2969TIP3    H130398   4.542   1.547  12.545  0.9636  1.4479  1.2013
 2969TIP3    H230399   4.412   1.621  12.567  0.9159  1.6238  0.3821
 2970TIP3   OH230400   6.658   2.606   3.921 -0.0645 -0.4794 -0.3015
 2970TIP3    H130401   6.566   2.632   3.920 -0.3912 -1.5255  0.5973
 2970TIP3    H230402   6.658   2.519   3.960  1.2583 -0.7272 -0.7857
 2971TIP3   OH230403   5.021   0.407   5.593  0.1101 -0.0035 -0.3967
 2971TIP3    H130404   5.005   0.403   5.499 -0.3299 -0.9161 -0.2924
 2971TIP3    H230405   4.979   0.489   5.621 -0.1433  0.0470 -0.9194
 2972TIP3   OH230406   0.118   1.832  15.251 -0.7320  0.6063 -0.0380
 2972TIP3    H130407   0.177   1.844  15.177 -0.4150 -0.8973 -0.0468
 2972TIP3    H230408   0.111   1.737  15.262 -1.3858  0.7928  1.3738
 2973TIP3   OH230409   1.531   6.692  15.481 -0.2131  0.0706 -0.8628
 2973TIP3    H130410   1.557   6.771  15.433  0.9320  0.8831  0.9752
 2973TIP3    H230411   1.600   6.629  15.463 -0.1268  0.1462 -0.7948
 2974TIP3   OH230412   3.421   6.483  13.449  0.4469 -0.4609  0.0574
 2974TIP3    H130413   3.458   6.414  13.395 -0.8944 -1.8861  0.8914
 2974TIP3    H230414   3.481   6.490  13.524  0.9109 -0.2794 -0.3282
 2975TIP3   OH230415   2.087   6.428   4.071 -0.4801  0.1471 -0.1235
 2975TIP3    H130416   2.040   6.344   4.071 -0.0560 -0.1007 -0.9377
 2975TIP3    H230417   2.042   6.481   4.007  0.5326 -0.2152 -1.1715
 2976TIP3   OH230418   4.678   0.711  11.592  0.1970  0.3566 -0.2348
 2976TIP3    H130419   4.701   0.622  11.566 -0.8066  0.0214 -0.0197
 2976TIP3    H230420   4.648   0.702  11.682 -0.7277  0.7791 -0.4961
 2977TIP3   OH230421   2.529   3.159   2.686 -0.6080 -0.6473 -0.0365
 2977TIP3    H130422   2.607   3.128   2.640 -1.4650 -1.2448 -1.1280
 2977TIP3    H230423   2.459   3.099   2.659 -1.6329  0.3632  0.2612
 2978TIP3   OH230424   2.639   0.565   1.325  0.0108  0.2009  0.3898
 2978TIP3    H130425   2.645   0.630   1.255 -0.1857 -0.3049 -0.1067
 2978TIP3    H230426   2.552   0.527   1.313 -0.7126  1.2629  1.9442
 2979TIP3   OH230427   5.218   2.251  11.521 -0.7457  0.6165 -0.2849
 2979TIP3    H130428   5.260   2.336  11.512 -2.3092  1.6837  1.6497
 2979TIP3    H230429   5.129   2.271  11.549 -1.0368 -1.6594  0.6391
 2980TIP3   OH230430   4.730   3.221  15.428  0.2586  0.7901  0.3340
 2980TIP3    H130431   4.783   3.231  15.507 -0.7535  1.9916  0.8899
 2980TIP3    H230432   4.649   3.179  15.459  1.5942 -3.0606 -0.8291
 2981TIP3   OH230433   5.802   3.144   1.762  0.0363  0.0841  0.1949
 2981TIP3    H130434   5.748   3.217   1.793  1.8126  1.3012  0.5441
 2981TIP3    H230435   5.784   3.074   1.825  0.7182  1.3042  1.8421
 2982TIP3   OH230436   3.556   2.479   3.326 -0.0936  0.0717 -0.5524
 2982TIP3    H130437   3.587   2.493   3.237  0.7018 -2.3097 -0.7146
 2982TIP3    H230438   3.475   2.429   3.316  0.9026 -1.7492  0.0295
 2983TIP3   OH230439   4.439   2.229  14.124 -0.1576  0.4435  0.2344
 2983TIP3    H130440   4.457   2.250  14.032 -0.3402  1.6559  0.4583
 2983TIP3    H230441   4.509   2.273  14.172  0.1685 -0.5177  0.6641
 2984TIP3   OH230442   5.120   3.418  16.761  0.6298  0.2409 -0.3549
 2984TIP3    H130443   5.160   3.500  16.732 -0.8026  0.5958 -1.4311
 2984TIP3    H230444   5.123   3.361  16.684 -0.6022  0.1599 -0.3559
 2985TIP3   OH230445   4.404   6.495  14.854  0.3429  0.3141  0.2675
 2985TIP3    H130446   4.375   6.576  14.811 -0.2245  0.0361  0.1142
 2985TIP3    H230447   4.346   6.428  14.819  1.1938 -0.2643 -0.0547
 2986TIP3   OH230448   6.337   0.666   5.624 -0.5297  0.2383 -0.7483
 2986TIP3    H130449   6.378   0.584   5.596  1.2489  1.2783 -1.4295
 2986TIP3    H230450   6.353   0.670   5.718 -1.8791 -0.8357 -0.4585
 2987TIP3   OH230451   1.841   4.384  17.241 -0.9950  0.3863  0.1220
 2987TIP3    H130452   1.887   4.429  17.170  1.1763  0.8083  1.6693
 2987TIP3    H230453   1.840   4.447  17.313 -2.3568 -0.3144  0.7558
 2988TIP3   OH230454   2.696   0.555  13.037 -0.6055 -0.8339 -0.8299
 2988TIP3    H130455   2.635   0.491  13.000 -1.3037  0.0672 -1.2809
 2988TIP3    H230456   2.643   0.634  13.049 -0.4122 -1.0443  2.1054
 2989TIP3   OH230457   5.653   2.287   4.194 -0.2760 -0.3003 -0.0028
 2989TIP3    H130458   5.649   2.337   4.276 -0.9904 -0.3299 -0.0156
 2989TIP3    H230459   5.746   2.289   4.170 -0.0818 -0.1702  0.7301
 2990TIP3   OH230460   4.831   2.667   0.365  1.1619 -0.2294  0.6879
 2990TIP3    H130461   4.820   2.606   0.292 -0.3989 -0.0273  0.7159
 2990TIP3    H230462   4.823   2.753   0.325 -1.5537 -0.1169  1.2686
 2991TIP3   OH230463   0.557   6.482  15.083  0.9313  0.1138  0.3189
 2991TIP3    H130464   0.614   6.455  15.155  0.3965 -0.6525  0.4657
 2991TIP3    H230465   0.549   6.577  15.093  1.1912  0.0639  1.0214
 2992TIP3   OH230466   4.361   2.239   0.357  0.1394 -0.7598  0.3257
 2992TIP3    H130467   4.348   2.148   0.383  0.3079 -0.9838 -0.3415
 2992TIP3    H230468   4.275   2.280   0.367  0.0306 -1.0276  0.4890
 2993TIP3   OH230469   3.455   4.288  15.767 -0.3322  0.0599  0.7088
 2993TIP3    H130470   3.449   4.325  15.679  2.9584  0.4651  0.5309
 2993TIP3    H230471   3.502   4.206  15.755 -0.7265 -0.3705  2.0004
 2994TIP3   OH230472   2.490   0.836   3.399  0.0604  0.3105 -0.4431
 2994TIP3    H130473   2.516   0.901   3.464 -1.5912 -0.8465  1.4808
 2994TIP3    H230474   2.404   0.866   3.367  0.0618 -0.0369 -0.7907
 2995TIP3   OH230475   1.564   1.204   5.667  0.1955  0.0972  0.4064
 2995TIP3    H130476   1.555   1.256   5.747 -2.1480  0.4475 -0.0267
 2995TIP3    H230477   1.538   1.116   5.692  0.0421  0.0704  0.1548
 2996TIP3   OH230478   3.505   2.440   5.936  0.9970  0.0174 -0.4261
 2996TIP3    H130479   3.457   2.376   5.987  0.5158  0.2831 -0.5444
 2996TIP3    H230480   3.454   2.521   5.944  0.4445 -0.1461 -2.0271
 2997TIP3   OH230481   0.579   4.700   3.042 -0.2284 -0.4971 -0.0950
 2997TIP3    H130482   0.662   4.712   2.996 -0.9591  0.5400 -1.2094
 2997TIP3    H230483   0.573   4.776   3.100  0.3379 -1.4112  1.1825
 2998TIP3   OH230484   3.418   0.878  11.131  0.0444  0.3286 -0.1970
 2998TIP3    H130485   3.423   0.864  11.226 -0.8721  0.4036 -0.1324
 2998TIP3    H230486   3.391   0.969  11.122 -1.4454 -0.1171 -0.4913
 2999TIP3   OH230487   4.835   5.445   0.449  0.4320  0.1735  0.8668
 2999TIP3    H130488   4.880   5.361   0.441  2.0283  1.0795 -0.2715
 2999TIP3    H230489   4.892   5.496   0.507  0.4319  1.0626  0.0903
 3000TIP3   OH230490   3.626   0.694   4.739 -0.1903  0.7321  0.5115
 3000TIP3    H130491   3.565   0.653   4.677  0.4461 -0.6511  0.7611
 3000TIP3    H230492   3.712   0.662   4.712  0.4386  2.5944  0.2114
 3001TIP3   OH230493   0.543   1.563   1.421  0.4383 -0.4113  0.0607
 3001TIP3    H130494   0.523   1.637   1.477 -0.1608 -2.2824  2.4829
 3001TIP3    H230495   0.638   1.565   1.411  0.3626  1.1062 -0.6091
 3002TIP3   OH230496   1.192   5.521  12.825  0.2617  0.0497  0.4706
 3002TIP3    H130497   1.260   5.564  12.773  1.1679  0.8505  2.2148
 3002TIP3    H230498   1.119   5.583  12.827  0.1007 -0.1192 -0.0857
 3003TIP3   OH230499   4.280   4.891  15.152  0.1321 -0.1653 -0.8511
 3003TIP3    H130500   4.345   4.927  15.213  0.6018  1.7058 -2.3813
 3003TIP3    H230501   4.324   4.890  15.067 -1.3783 -0.2197 -1.6655
 3004TIP3   OH230502   5.424   2.928   4.841  0.0437  0.6888  0.1213
 3004TIP3    H130503   5.409   2.864   4.771 -1.1020  0.6697  0.3661
 3004TIP3    H230504   5.417   2.878   4.922 -0.6267  1.0652  0.3068
 3005TIP3   OH230505   0.406   4.336  12.220  0.0298 -0.5286 -0.3355
 3005TIP3    H130506   0.460   4.414  12.206  1.0616 -0.9752  0.8767
 3005TIP3    H230507   0.396   4.297  12.133  0.4609  0.3413 -0.7880
 3006TIP3   OH230508   3.716   5.218   2.274  0.0422 -0.1147 -0.4268
 3006TIP3    H130509   3.687   5.159   2.205  0.3379 -1.1602  0.3126
 3006TIP3    H230510   3.734   5.161   2.349 -0.4328  0.9979  0.5745
 3007TIP3   OH230511   3.003   0.089  17.205  0.0679  0.5439  0.1443
 3007TIP3    H130512   2.916   0.101  17.244  0.0798  0.7178  0.1163
 3007TIP3    H230513   2.991   0.111  17.113  0.0365  0.1179  0.0444
 3008TIP3   OH230514   6.337   6.096   6.492  0.4261 -0.2735 -0.3499
 3008TIP3    H130515   6.286   6.167   6.532  2.6154  0.4121  1.4681
 3008TIP3    H230516   6.329   6.109   6.398 -1.6399  0.5620 -0.0895
 3009TIP3   OH230517   1.280   1.541  16.667 -0.4176  0.3837 -0.4565
 3009TIP3    H130518   1.277   1.570  16.758  0.4289  1.1503 -0.6640
 3009TIP3    H230519   1.331   1.608  16.621 -0.6774 -0.0830 -1.4634
 3010TIP3   OH230520   0.542   0.453   2.456 -0.7545  0.4355  0.1750
 3010TIP3    H130521   0.459   0.494   2.483 -0.9744 -0.9342  1.7223
 3010TIP3    H230522   0.582   0.425   2.538  0.1434 -1.0100 -0.7264
 3011TIP3   OH230523   3.318   1.606  17.163  0.6257  0.0863 -0.0456
 3011TIP3    H130524   3.312   1.583  17.255  0.1729 -2.3306 -0.6104
 3011TIP3    H230525   3.229   1.595  17.130  0.7412  1.1198 -0.7559
 3012TIP3   OH230526   5.086   1.794  17.172  0.1698 -0.2749 -0.4511
 3012TIP3    H130527   5.121   1.867  17.223 -0.6814 -0.6319  0.6881
 3012TIP3    H230528   5.029   1.836  17.108 -0.0777  0.0909  0.0012
 3013TIP3   OH230529   2.488   6.211   3.823 -0.6924 -0.8982 -0.1823
 3013TIP3    H130530   2.546   6.246   3.890 -0.0101 -0.4547 -0.9822
 3013TIP3    H230531   2.440   6.141   3.867  0.6762 -1.4884  0.4322
 3014TIP3   OH230532   2.965   6.039  15.747 -0.0215 -0.5142 -0.0535
 3014TIP3    H130533   2.944   6.106  15.682 -0.2433 -1.6388 -1.1676
 3014TIP3    H230534   3.048   6.002  15.718 -0.9713 -2.2405 -0.7573
 3015TIP3   OH230535   5.253   6.113  17.302 -0.2767  0.1507  0.0913
 3015TIP3    H130536   5.201   6.097  17.223 -1.7242 -2.0226  1.3770
 3015TIP3    H230537   5.190   6.145  17.366  0.8544  1.7137  0.4979
 3016TIP3   OH230538   0.054   0.380   5.464  0.2541 -0.4061 -0.1325
 3016TIP3    H130539   0.119   0.333   5.516  1.6523  0.6845 -0.8487
 3016TIP3    H230540  -0.019   0.319   5.457  0.3891 -0.9606  2.2844
 3017TIP3   OH230541   2.707   6.680  11.193 -0.5542  0.0648 -0.0755
 3017TIP3    H130542   2.790   6.633  11.182 -0.6188 -0.2391  0.6530
 3017TIP3    H230543   2.678   6.699  11.104  0.8412  1.1545 -0.3517
 3018TIP3   OH230544   5.307   3.136   4.252 -0.1099 -0.2350  0.4969
 3018TIP3    H130545   5.306   3.107   4.343 -1.9247 -0.3444  0.4792
 3018TIP3    H230546   5.278   3.059   4.202  1.8026 -0.4839 -0.3072
 3019TIP3   OH230547   4.385   2.952   1.497 -0.5242 -0.3295 -0.3733
 3019TIP3    H130548   4.399   3.035   1.543 -0.1493  0.8192 -2.4267
 3019TIP3    H230549   4.467   2.904   1.510  0.9247  1.3693 -2.4378
 3020TIP3   OH230550   0.046   4.486   0.695 -0.3722 -0.2726  0.4655
 3020TIP3    H130551   0.029   4.541   0.772 -1.5272  1.5008 -0.9791
 3020TIP3    H230552   0.084   4.546   0.631  0.8777 -1.7921 -0.2641
 3021TIP3   OH230553   4.433   5.507   4.521 -0.4964  0.2977  0.2024
 3021TIP3    H130554   4.360   5.541   4.469 -0.2051  0.9687  0.2203
 3021TIP3    H230555   4.394   5.482   4.605 -1.1156 -1.5314 -0.5807
 3022TIP3   OH230556   2.802   3.716  14.761 -0.4377  0.0409 -0.0302
 3022TIP3    H130557   2.833   3.756  14.680  0.9578 -1.2685 -0.2130
 3022TIP3    H230558   2.762   3.633  14.732 -0.6610 -0.0504  0.5407
 3023TIP3   OH230559   0.735   3.977   4.498 -0.3469  0.4891 -0.2295
 3023TIP3    H130560   0.802   4.013   4.440 -1.0601  1.2640 -0.5723
 3023TIP3    H230561   0.652   4.000   4.458 -0.8318 -0.4004  0.2403
 3024TIP3   OH230562   0.043   0.299   1.861  0.2030  0.4027 -0.0598
 3024TIP3    H130563  -0.028   0.247   1.823 -1.6186  1.6299  1.4625
 3024TIP3    H230564   0.041   0.381   1.811  1.6115 -0.0933 -1.0007
 3025TIP3   OH230565   3.866   3.126  15.422 -0.2789  0.0679  0.4366
 3025TIP3    H130566   3.878   3.156  15.512 -0.4115  0.6382  0.2689
 3025TIP3    H230567   3.913   3.043  15.418  1.1484  0.8366  0.5853
 3026TIP3   OH230568   4.594   4.162  15.326  0.1054  0.2379 -0.0034
 3026TIP3    H130569   4.547   4.220  15.385 -3.1891 -2.1331 -0.0242
 3026TIP3    H230570   4.685   4.168  15.354 -0.9464  1.0580  3.7305
 3027TIP3   OH230571   0.695   1.873  13.166 -0.0937 -0.1064 -0.1399
 3027TIP3    H130572   0.711   1.967  13.158 -0.8070  0.0719  0.4825
 3027TIP3    H230573   0.780   1.833  13.147  0.5688  0.7237  0.9822
 3028TIP3   OH230574   2.659   3.233  12.365 -0.1094 -0.0658  0.1184
 3028TIP3    H130575   2.713   3.310  12.347  1.6797 -1.7382 -2.1425
 3028TIP3    H230576   2.705   3.187  12.434 -0.0065 -0.2037 -0.0419
 3029TIP3   OH230577   4.043   6.524  12.314  0.5455  0.0785  0.0294
 3029TIP3    H130578   3.978   6.462  12.345 -1.7363  1.7389 -1.1732
 3029TIP3    H230579   4.110   6.525  12.383 -1.7548 -0.1192  2.4357
 3030TIP3   OH230580   2.383   5.885  16.071  0.1010 -0.1533  0.1165
 3030TIP3    H130581   2.302   5.842  16.097  0.4125 -0.3932  0.7351
 3030TIP3    H230582   2.429   5.820  16.017  1.0390 -1.0515  1.8959
 3031TIP3   OH230583   2.082   6.015   4.306 -0.7449 -0.3886  0.0048
 3031TIP3    H130584   1.990   6.000   4.284 -0.5880 -1.2099 -0.1372
 3031TIP3    H230585   2.131   5.977   4.232 -0.3173  2.5971 -1.3773
 3032TIP3   OH230586   3.888   5.046   4.165 -0.1361 -0.0205  0.5057
 3032TIP3    H130587   3.940   5.103   4.109 -0.7009  0.5963  0.6003
 3032TIP3    H230588   3.945   5.028   4.240 -0.0023  0.5138  0.5320
 3033TIP3   OH230589   3.618   2.591   0.688 -0.6178  0.4945 -0.0128
 3033TIP3    H130590   3.522   2.595   0.688 -0.6023  1.0344  0.4632
 3033TIP3    H230591   3.645   2.681   0.707  0.0182  0.8092 -2.2095
 3034TIP3   OH230592   3.566   0.856   5.444  0.2374 -0.2336 -0.0982
 3034TIP3    H130593   3.503   0.914   5.400 -0.5990 -0.6701  0.5128
 3034TIP3    H230594   3.524   0.771   5.445  0.6455 -0.4331  0.7388
 3035TIP3   OH230595   1.425   5.155  17.233 -0.3763 -0.2085  0.2158
 3035TIP3    H130596   1.339   5.174  17.195 -0.5448 -0.4152  0.4987
 3035TIP3    H230597   1.447   5.232  17.284 -0.1793  0.0433 -0.2398
 3036TIP3   OH230598   2.902   2.368  11.304  0.0023  0.3384  0.5678
 3036TIP3    H130599   2.946   2.432  11.359  1.7467 -0.6009  0.3133
 3036TIP3    H230600   2.957   2.360  11.226 -1.8277  0.8181 -0.8742
 3037TIP3   OH230601   5.195   0.657  15.725 -0.1098  0.4615  0.7408
 3037TIP3    H130602   5.162   0.692  15.642  1.3237 -0.3942 -0.2312
 3037TIP3    H230603   5.202   0.733  15.782 -0.3313  1.2049 -0.1987
 3038TIP3   OH230604   0.079   4.074   5.038  0.2821  0.3130  0.6683
 3038TIP3    H130605   0.027   4.065   4.958  0.7428  1.0143  0.2716
 3038TIP3    H230606   0.162   4.110   5.008  0.1707  1.3652  1.5499
 3039TIP3   OH230607   3.732   5.616   5.252 -0.0368  0.1384  0.3917
 3039TIP3    H130608   3.703   5.653   5.169  1.3589 -0.5716 -0.4448
 3039TIP3    H230609   3.810   5.666   5.275  0.6801 -0.8891  0.2860
 3040TIP3   OH230610   3.217   5.967   2.576  0.0028  0.3331  0.4521
 3040TIP3    H130611   3.176   5.990   2.659  0.1103  0.5862  0.4341
 3040TIP3    H230612   3.248   5.877   2.589 -0.7564  0.0563  0.3902
 3041TIP3   OH230613   5.302   5.114  15.037  0.2542  0.1851  0.5755
 3041TIP3    H130614   5.208   5.102  15.024  0.3093 -2.4475  1.8079
 3041TIP3    H230615   5.339   5.107  14.949 -0.6769  1.4892  0.0476
 3042TIP3   OH230616   6.251   1.610  13.624 -0.0109  0.5404  0.2281
 3042TIP3    H130617   6.209   1.696  13.620  0.3925  1.0367  3.6407
 3042TIP3    H230618   6.181   1.549  13.600 -1.0395  1.6808  0.2180
 3043TIP3   OH230619   5.917   2.128  16.923  0.5355 -0.5556  0.4103
 3043TIP3    H130620   6.005   2.098  16.902 -0.2096 -3.5301  1.0691
 3043TIP3    H230621   5.862   2.092  16.853 -0.2882  0.6671  0.3926
 3044TIP3   OH230622   4.127   6.764  12.430 -0.2758  0.0653 -0.1780
 3044TIP3    H130623   4.061   6.696  12.445 -0.7596  0.2923 -1.1499
 3044TIP3    H230624   4.211   6.719  12.443 -0.6055 -0.1449  1.3964
 3045TIP3   OH230625   5.419   1.039  15.385 -0.2168 -0.3662  0.2993
 3045TIP3    H130626   5.415   0.943  15.383 -1.2688 -0.3283 -1.1938
 3045TIP3    H230627   5.511   1.058  15.402  0.4169 -1.6663 -1.3398
 3046TIP3   OH230628   5.802   4.595  14.438  0.0194 -0.0832 -0.2866
 3046TIP3    H130629   5.759   4.665  14.389  0.8702  1.6593  1.3088
 3046TIP3    H230630   5.748   4.584  14.517 -0.7107 -2.0383 -1.0097
 3047TIP3   OH230631   0.888   1.378  12.556  0.2944  0.0267  0.0170
 3047TIP3    H130632   0.885   1.335  12.471  0.2336 -0.3987  0.2302
 3047TIP3    H230633   0.958   1.443  12.548 -0.4057  0.7150 -0.6911
 3048TIP3   OH230634   1.336   3.308   1.693  0.1774  0.4239 -0.4196
 3048TIP3    H130635   1.392   3.384   1.710  0.0468  0.6926 -1.1310
 3048TIP3    H230636   1.248   3.338   1.716  0.1450  0.4526 -0.5749
 3049TIP3   OH230637   2.710   2.850  11.335  0.0219 -0.0908  0.2611
 3049TIP3    H130638   2.778   2.806  11.284 -0.0489 -1.5511  1.3511
 3049TIP3    H230639   2.628   2.827  11.291  0.0699 -0.0692  0.1601
 3050TIP3   OH230640   2.706   0.622   0.628  0.5681  0.1015 -0.2228
 3050TIP3    H130641   2.629   0.595   0.579 -1.2071  0.3886  2.1980
 3050TIP3    H230642   2.707   0.718   0.622  2.3921  0.0215 -2.4584
 3051TIP3   OH230643   0.186   6.549  12.619 -0.0302  0.6068 -0.1351
 3051TIP3    H130644   0.126   6.620  12.598 -0.0605 -0.1328 -2.9723
 3051TIP3    H230645   0.269   6.575  12.580  0.3938 -0.2202  0.1847
 3052TIP3   OH230646   2.013   0.598  14.761  0.2545  0.3737  0.0579
 3052TIP3    H130647   2.068   0.673  14.737  0.6505 -0.1090 -0.5735
 3052TIP3    H230648   1.970   0.573  14.679  0.3093 -0.2370  0.2140
 3053TIP3   OH230649   0.066   0.658   6.255  0.0184  0.0194  0.3690
 3053TIP3    H130650   0.160   0.642   6.257  0.0801  0.4028  0.6640
 3053TIP3    H230651   0.034   0.622   6.338  0.0578  0.7773  0.7244
 3054TIP3   OH230652   6.613   4.188  13.285 -0.6554 -0.1955 -0.3603
 3054TIP3    H130653   6.578   4.251  13.348 -1.0632 -1.3039  0.5646
 3054TIP3    H230654   6.648   4.242  13.214  2.3714  1.2881  2.0125
 3055TIP3   OH230655   4.877   3.167   0.216  0.1146 -0.2954 -0.0424
 3055TIP3    H130656   4.902   3.259   0.228 -1.2135  0.1671 -0.6299
 3055TIP3    H230657   4.915   3.143   0.132 -0.7009  0.1498 -0.5445
 3056TIP3   OH230658   1.071   0.913   3.392  0.2257 -0.5101 -0.0150
 3056TIP3    H130659   1.052   0.967   3.315  1.0120 -0.5739 -0.2624
 3056TIP3    H230660   1.165   0.896   3.387  0.5316  0.4679  1.5756
 3057TIP3   OH230661   4.338   3.572   0.089  0.0272 -1.0306  0.0654
 3057TIP3    H130662   4.313   3.482   0.071 -0.4843 -1.1369  1.2415
 3057TIP3    H230663   4.430   3.567   0.114 -0.2978 -1.4006  1.2593
 3058TIP3   OH230664   5.357   0.824   6.048 -0.5048 -0.0666 -0.2719
 3058TIP3    H130665   5.406   0.869   6.117  0.6557 -1.9989  0.2391
 3058TIP3    H230666   5.277   0.794   6.091 -0.0200 -0.8288  0.0995
 3059TIP3   OH230667   0.688   6.063  13.561  0.4236  0.1738 -0.1529
 3059TIP3    H130668   0.603   6.104  13.579  1.6133  2.5940  0.4821
 3059TIP3    H230669   0.686   6.043  13.467 -0.8407  0.1877 -0.1455
 3060TIP3   OH230670   5.422   1.185   3.676 -0.1706  0.3019  0.1267
 3060TIP3    H130671   5.368   1.193   3.755 -1.7447  1.5658 -0.9908
 3060TIP3    H230672   5.510   1.168   3.708 -0.9253 -0.1247  2.1075
 3061TIP3   OH230673   3.044   2.624  16.698  0.3870  0.1110 -0.3084
 3061TIP3    H130674   3.138   2.606  16.694  0.2973 -0.8194  1.0358
 3061TIP3    H230675   3.014   2.611  16.608  1.5293  0.4036 -0.7569
 3062TIP3   OH230676   2.541   6.404  13.240 -0.0495  0.1085 -0.4662
 3062TIP3    H130677   2.490   6.329  13.269  1.9175 -1.1501 -0.0947
 3062TIP3    H230678   2.578   6.441  13.321  0.0748  0.6562 -0.7687
 3063TIP3   OH230679   0.786   5.603  15.969 -0.1410  0.1711 -0.4015
 3063TIP3    H130680   0.733   5.524  15.960 -0.3787  0.4404 -1.6760
 3063TIP3    H230681   0.867   5.573  16.009 -1.1079 -0.3035  1.2773
 3064TIP3   OH230682   3.458   2.726   6.507 -0.3792 -0.2552  0.1507
 3064TIP3    H130683   3.384   2.764   6.460 -0.8514 -1.1856  0.1069
 3064TIP3    H230684   3.423   2.706   6.594  0.4606  1.3697  0.8928
 3065TIP3   OH230685   0.293   5.153  16.012  0.6334 -0.1090  0.1734
 3065TIP3    H130686   0.304   5.248  16.012 -1.4522  0.1781  0.0014
 3065TIP3    H230687   0.357   5.121  15.949  0.7139  1.2743 -0.4833
 3066TIP3   OH230688   5.415   1.364   1.171  0.1991 -0.6677  0.0132
 3066TIP3    H130689   5.450   1.453   1.171  2.2493 -1.3541 -2.3519
 3066TIP3    H230690   5.462   1.320   1.241  2.0749 -0.7868 -1.2243
 3067TIP3   OH230691   0.826   1.259  15.079 -0.2960  0.3982  0.2923
 3067TIP3    H130692   0.821   1.178  15.129 -0.3987 -0.4508 -1.0491
 3067TIP3    H230693   0.760   1.249  15.011  1.0307  0.7407 -1.0982
 3068TIP3   OH230694   1.420   2.136   5.903  0.2653 -0.1598 -0.2491
 3068TIP3    H130695   1.439   2.136   5.809 -0.2156  1.6479 -0.3899
 3068TIP3    H230696   1.498   2.098   5.943 -0.3878 -3.0794 -1.4672
 3069TIP3   OH230697   2.687   0.125  12.749  0.0115 -0.5750 -0.3512
 3069TIP3    H130698   2.617   0.188  12.765 -0.2684 -0.5130 -1.7676
 3069TIP3    H230699   2.765   0.178  12.732  0.4726 -0.6428  1.3562
 3070TIP3   OH230700   4.665   5.635   0.303  0.7388  0.1479  0.1380
 3070TIP3    H130701   4.748   5.610   0.343  0.2800 -0.5128  0.7000
 3070TIP3    H230702   4.674   5.611   0.211  1.4265  0.7411  0.0463
 3071TIP3   OH230703   0.717   4.093   3.462  0.0213  0.5376 -0.1851
 3071TIP3    H130704   0.812   4.084   3.458 -0.0430 -0.4710  0.1571
 3071TIP3    H230705   0.695   4.152   3.390  1.1115  2.6651  1.1479
 3072TIP3   OH230706   1.716   1.736  11.702 -0.6688 -0.1084  0.1047
 3072TIP3    H130707   1.661   1.669  11.742 -1.5402  0.0635 -0.7631
 3072TIP3    H230708   1.658   1.782  11.642  0.4181  0.1019 -0.8245
 3073TIP3   OH230709   2.096   2.312  13.067 -0.6971  0.2077  0.6396
 3073TIP3    H130710   2.093   2.407  13.076 -0.7315  0.2398  0.2719
 3073TIP3    H230711   2.181   2.294  13.026 -1.5239  0.2237 -1.1619
 3074TIP3   OH230712   5.032   2.790  14.923 -0.2241  0.6786 -0.2433
 3074TIP3    H130713   4.999   2.711  14.881  1.5517  0.2708 -0.9986
 3074TIP3    H230714   5.098   2.758  14.984  0.6912  1.5639 -0.7374
 3075TIP3   OH230715   5.101   3.668   6.126  0.8144 -0.0652  0.4269
 3075TIP3    H130716   5.065   3.678   6.214 -2.8432  0.3177 -0.9365
 3075TIP3    H230717   5.178   3.724   6.125  0.1585  1.0145  2.9673
 3076TIP3   OH230718   1.583   1.036  15.320 -0.2809 -0.1274 -0.3695
 3076TIP3    H130719   1.541   1.056  15.237 -0.4919 -2.6670 -0.9484
 3076TIP3    H230720   1.520   1.062  15.387 -0.1370  1.8717 -0.9576
 3077TIP3   OH230721   4.035   5.386  14.628  0.4791 -0.0453 -0.1581
 3077TIP3    H130722   3.939   5.376  14.627  0.6045 -1.6703  0.6307
 3077TIP3    H230723   4.052   5.461  14.572 -1.1855 -0.3984 -1.2050
 3078TIP3   OH230724   5.166   4.376   5.312  0.0831  0.4249 -0.3569
 3078TIP3    H130725   5.093   4.421   5.269 -1.9247 -1.8937  0.3764
 3078TIP3    H230726   5.156   4.398   5.404  0.4855  0.3308 -0.2894
 3079TIP3   OH230727   1.095   2.596   2.160  0.2391 -0.9330  0.0199
 3079TIP3    H130728   1.055   2.681   2.179  1.7437 -0.2081  0.0720
 3079TIP3    H230729   1.120   2.563   2.246 -1.4703 -2.0516  0.1356
 3080TIP3   OH230730   1.556   1.117  14.512  0.0987  0.0782 -0.3457
 3080TIP3    H130731   1.584   1.030  14.541 -1.7576 -0.4686 -0.0522
 3080TIP3    H230732   1.637   1.167  14.505  1.2351 -1.6983 -0.6246
 3081TIP3   OH230733   0.688   2.065   1.498  0.0012 -0.3900  0.3543
 3081TIP3    H130734   0.616   2.086   1.438  0.1203  0.5350  0.5171
 3081TIP3    H230735   0.649   2.006   1.562 -0.7127  0.3395  0.6152
 3082TIP3   OH230736   5.536   6.765   0.093  0.3145 -0.5998 -0.0001
 3082TIP3    H130737   5.495   6.688   0.054  0.2037 -0.3034 -0.4659
 3082TIP3    H230738   5.575   6.812   0.020 -0.0510  0.0554  0.2168
 3083TIP3   OH230739   0.770   0.638  14.060 -0.0578  0.3568 -0.0048
 3083TIP3    H130740   0.806   0.727  14.052 -3.8127  2.6857  4.1085
 3083TIP3    H230741   0.816   0.601  14.135 -0.7238  0.1437  0.2982
 3084TIP3   OH230742   3.854   2.077  12.322  0.3083  0.2083 -0.0988
 3084TIP3    H130743   3.797   2.046  12.251  0.3377 -1.1630  0.4463
 3084TIP3    H230744   3.926   2.121  12.277  0.7100 -1.2695 -1.0036
 3085TIP3   OH230745   3.097   5.041   1.601 -0.2240  0.0771 -0.4686
 3085TIP3    H130746   3.033   5.107   1.626  1.9610  2.1474  0.0774
 3085TIP3    H230747   3.094   4.976   1.672 -0.6097  0.9588  0.3383
 3086TIP3   OH230748   0.767   5.978  13.905  0.3266 -0.4866 -0.5792
 3086TIP3    H130749   0.698   6.044  13.898 -0.1113 -0.9764 -0.9832
 3086TIP3    H230750   0.727   5.898  13.871  1.2339 -0.6754 -1.2288
 3087TIP3   OH230751   5.441   5.654  11.940  0.0131  0.4564  0.5266
 3087TIP3    H130752   5.442   5.584  11.875 -0.4088  0.7685  0.1778
 3087TIP3    H230753   5.534   5.666  11.963 -0.0529 -1.8746  2.4362
 3088TIP3   OH230754   6.034   1.928  11.086  0.0984 -0.1468 -0.0645
 3088TIP3    H130755   5.950   1.940  11.130  1.1545  0.5488  1.8494
 3088TIP3    H230756   6.047   1.834  11.086 -1.0414 -0.3414 -1.1631
 3089TIP3   OH230757   6.019   4.697  14.301 -0.0524 -0.2651  0.2487
 3089TIP3    H130758   5.953   4.652  14.354 -0.1195  0.5181  0.8527
 3089TIP3    H230759   6.014   4.788  14.331  1.1977 -0.1702  0.1921
 3090TIP3   OH230760   1.940   0.430   5.785 -0.0915 -0.6706  0.2247
 3090TIP3    H130761   1.852   0.417   5.820 -0.0169 -0.8551  0.3472
 3090TIP3    H230762   1.927   0.481   5.705 -0.2292  0.0930  0.7213
 3091TIP3   OH230763   0.445   6.404  12.658  0.0467 -0.7703 -0.2665
 3091TIP3    H130764   0.489   6.319  12.655 -0.5811 -1.1162  0.0221
 3091TIP3    H230765   0.358   6.384  12.695 -0.4310 -0.1407 -1.0169
 3092TIP3   OH230766   4.923   3.028   4.200  0.0227  0.4158  0.0827
 3092TIP3    H130767   5.013   3.002   4.184 -0.1429 -0.2563  0.2047
 3092TIP3    H230768   4.875   2.945   4.208 -0.4882  0.7592  0.6939
 3093TIP3   OH230769   0.885   3.676  15.215  0.1081 -0.1183  0.0366
 3093TIP3    H130770   0.824   3.620  15.168 -0.5357  1.6902 -1.3978
 3093TIP3    H230771   0.971   3.648  15.186 -0.1781 -0.6232 -0.3317
 3094TIP3   OH230772   3.458   0.900   1.393  0.1127  0.1860 -0.0144
 3094TIP3    H130773   3.496   0.858   1.471  1.2796 -0.1373 -0.7216
 3094TIP3    H230774   3.482   0.841   1.321 -0.4460  0.7765 -0.6946
 3095TIP3   OH230775   5.208   4.106   1.477  0.8520  0.1796 -0.1592
 3095TIP3    H130776   5.294   4.139   1.450  1.0628 -0.7619 -0.6814
 3095TIP3    H230777   5.158   4.100   1.395  0.9291 -1.0649 -0.1392
 3096TIP3   OH230778   3.786   3.960   5.146  0.4195 -0.3544 -0.6119
 3096TIP3    H130779   3.790   4.055   5.154  1.9364 -0.4612  0.5085
 3096TIP3    H230780   3.752   3.930   5.231  0.6887 -0.8291 -0.6655
 3097TIP3   OH230781   1.428   6.806  15.933 -0.2092  0.2586  0.2028
 3097TIP3    H130782   1.383   6.890  15.942  0.7359  0.7175  0.6839
 3097TIP3    H230783   1.520   6.826  15.945  0.0831 -0.7692 -0.2223
 3098TIP3   OH230784   3.729   5.663  14.651 -0.4879 -0.2171 -0.5902
 3098TIP3    H130785   3.650   5.638  14.603  0.3874 -0.1436 -2.1511
 3098TIP3    H230786   3.797   5.671  14.583  1.1407 -1.3931  0.8110
 3099TIP3   OH230787   5.633   0.056   5.608 -0.3014 -0.1185  0.6232
 3099TIP3    H130788   5.680   0.139   5.610 -0.2407 -0.1659  1.2086
 3099TIP3    H230789   5.581   0.055   5.688 -0.9048 -0.3028  0.2366
 3100TIP3   OH230790   0.979   5.679  12.843  0.1121 -0.1239  0.3711
 3100TIP3    H130791   0.954   5.753  12.787  1.5601  1.0539  1.2196
 3100TIP3    H230792   0.998   5.718  12.928 -0.1767 -1.6411  1.1725
 3101TIP3   OH230793   3.619   2.458   3.663  0.5192  0.4209  0.0940
 3101TIP3    H130794   3.664   2.542   3.669  1.6564 -0.1057 -0.6799
 3101TIP3    H230795   3.563   2.466   3.586 -0.8436  1.1192  1.1271
 3102TIP3   OH230796   2.985   0.180   4.692 -0.2111  0.5681  0.2781
 3102TIP3    H130797   3.029   0.152   4.773 -2.4425 -0.1421  1.3268
 3102TIP3    H230798   2.942   0.262   4.715  0.9901  1.5820 -0.9137
 3103TIP3   OH230799   3.989   0.931   2.905 -0.3448  0.9235 -0.7349
 3103TIP3    H130800   3.917   0.885   2.948 -0.0719 -0.1302 -1.3784
 3103TIP3    H230801   3.960   0.940   2.814  0.1533  0.8747 -0.8998
 3104TIP3   OH230802   0.057   2.864  16.256 -0.6492 -0.3943 -0.3392
 3104TIP3    H130803  -0.003   2.936  16.238 -1.0876 -0.1556  1.8502
 3104TIP3    H230804   0.011   2.809  16.320  1.1467 -0.5651  0.8811
 3105TIP3   OH230805   0.329   0.008   3.280  0.1686  0.0529  0.0894
 3105TIP3    H130806   0.305   0.099   3.299 -0.1190 -0.4373  2.3181
 3105TIP3    H230807   0.345   0.007   3.186  0.9836  2.5913  0.1342
 3106TIP3   OH230808   3.823   0.765   0.377  0.0380  0.1812  0.3803
 3106TIP3    H130809   3.868   0.848   0.393  4.3828 -1.9693  0.8153
 3106TIP3    H230810   3.841   0.744   0.285 -0.3451 -0.6369  0.4759
 3107TIP3   OH230811   0.696   6.563   3.455  0.4965  0.3354  0.0368
 3107TIP3    H130812   0.627   6.615   3.415 -0.5224 -0.8800  0.1550
 3107TIP3    H230813   0.677   6.565   3.549  0.9601  0.4645  0.1317
 3108TIP3   OH230814   0.658   0.011   5.059 -0.1022  0.2281  0.1824
 3108TIP3    H130815   0.699  -0.062   5.106 -1.4603 -0.9308 -0.3972
 3108TIP3    H230816   0.616  -0.029   4.983  1.1898  1.9380 -1.5350
 3109TIP3   OH230817   4.303   5.320  14.603 -0.5058 -0.1918 -0.1143
 3109TIP3    H130818   4.331   5.412  14.600 -0.0310 -0.3427 -1.3682
 3109TIP3    H230819   4.208   5.324  14.600 -0.4815  0.2755 -2.1513
 3110TIP3   OH230820   5.671   4.183   2.645 -0.0814  0.0433 -0.2957
 3110TIP3    H130821   5.641   4.245   2.712 -1.3352  0.4789 -1.2339
 3110TIP3    H230822   5.734   4.232   2.593  0.3851 -0.0838  0.1444
 3111TIP3   OH230823   0.349   0.524  13.281 -0.6659 -0.6031  0.1302
 3111TIP3    H130824   0.323   0.463  13.350 -1.5597 -1.2939 -0.7865
 3111TIP3    H230825   0.337   0.610  13.321  2.1807 -0.9471  2.0099
 3112TIP3   OH230826   0.829   0.175  10.182 -0.2024  0.4322 -0.1433
 3112TIP3    H130827   0.740   0.158  10.213 -0.1405  1.0569  0.3957
 3112TIP3    H230828   0.882   0.108  10.224 -0.2844  0.6059  0.2380
 3113TIP3   OH230829   1.992   2.161  13.537 -0.4412 -0.0412 -0.0263
 3113TIP3    H130830   2.035   2.137  13.455 -0.2670  1.6914 -0.4705
 3113TIP3    H230831   1.921   2.097  13.546 -2.2248  1.2904 -2.9592
 3114TIP3   OH230832   2.135   6.776  11.672 -0.0915  0.6477  0.3891
 3114TIP3    H130833   2.138   6.720  11.750  2.4476 -0.8357 -0.6459
 3114TIP3    H230834   2.121   6.715  11.599  0.7135  1.5998 -0.5934
 3115TIP3   OH230835   2.711   1.782  16.358  0.5879  0.0582  0.6479
 3115TIP3    H130836   2.722   1.793  16.264 -2.6105 -0.3080  0.1142
 3115TIP3    H230837   2.757   1.857  16.397  0.8130  0.9770 -1.2973
 3116TIP3   OH230838   0.982   5.463   2.673 -0.3209  0.2646 -0.6895
 3116TIP3    H130839   0.922   5.505   2.735  1.4321 -0.7530  1.9161
 3116TIP3    H230840   1.055   5.524   2.665 -0.3468  0.1996 -1.4544
 3117TIP3   OH230841   0.198   5.982  14.258  0.1631  0.1204  0.0210
 3117TIP3    H130842   0.130   5.921  14.286  0.0367  0.8175  1.3277
 3117TIP3    H230843   0.280   5.936  14.274  0.1085  0.5624  1.8748
 3118TIP3   OH230844   1.979   4.632   0.982  0.4774 -0.1101 -0.4383
 3118TIP3    H130845   1.915   4.607   1.048  0.1524 -3.3805 -1.7857
 3118TIP3    H230846   2.056   4.662   1.032 -1.2884  1.9672  1.2231
 3119TIP3   OH230847   4.095   2.305  15.558  0.4225 -0.3901 -0.9237
 3119TIP3    H130848   4.030   2.273  15.496 -0.9264 -2.1647  1.2342
 3119TIP3    H230849   4.057   2.385  15.593 -1.3009 -1.9538  1.1001
 3120TIP3   OH230850   2.670   4.589  16.189 -0.4636 -0.5363  0.1789
 3120TIP3    H130851   2.658   4.603  16.282 -2.4896 -1.8898  0.1973
 3120TIP3    H230852   2.622   4.661  16.147 -1.1834 -0.9899  0.2099
 3121TIP3   OH230853   2.436   0.313   1.027  0.0025  0.5764  0.0037
 3121TIP3    H130854   2.396   0.244   1.080  0.3484  1.7162  1.8436
 3121TIP3    H230855   2.441   0.388   1.085 -1.3317  2.5412 -2.2170
 3122TIP3   OH230856   6.738   1.631   1.032  0.1922 -0.7407  1.0355
 3122TIP3    H130857   6.710   1.566   0.967  0.3058  0.1852  0.0265
 3122TIP3    H230858   6.831   1.612   1.046  0.4354 -0.2741  0.1004
 3123TIP3   OH230859   5.394   2.980  13.141 -0.5098 -0.4082 -0.0216
 3123TIP3    H130860   5.334   2.955  13.211 -1.9673  0.5516 -0.8788
 3123TIP3    H230861   5.481   2.978  13.182 -1.1902 -1.0838  1.4578
 3124TIP3   OH230862   3.410   5.415   0.659  0.1984  0.3140  0.9657
 3124TIP3    H130863   3.392   5.321   0.658 -1.6374  0.5373 -1.9555
 3124TIP3    H230864   3.334   5.453   0.703  0.2132  0.4843  0.8473
 3125TIP3   OH230865   0.498   0.720  11.765  0.0745  0.0577 -0.0346
 3125TIP3    H130866   0.424   0.665  11.790 -0.4214  0.4965 -0.5206
 3125TIP3    H230867   0.552   0.726  11.844  0.8009 -2.1381 -0.2849
 3126TIP3   OH230868   5.231   5.962  14.506 -0.2740 -0.4443 -0.0857
 3126TIP3    H130869   5.222   5.949  14.600  1.1271 -0.1196  0.1201
 3126TIP3    H230870   5.214   5.876  14.468  0.7214 -0.9584  0.5945
 3127TIP3   OH230871   1.869   5.550  15.706  0.4512  0.0010 -0.0379
 3127TIP3    H130872   1.838   5.629  15.749  0.2762 -0.4530  0.6954
 3127TIP3    H230873   1.905   5.580  15.622  2.4190  1.1101  1.1555
 3128TIP3   OH230874   0.352   6.114   4.322 -0.1730  0.6830  0.2196
 3128TIP3    H130875   0.355   6.032   4.274 -1.3158  0.5248  0.4016
 3128TIP3    H230876   0.327   6.180   4.257  1.7891  1.1124 -0.1735
 3129TIP3   OH230877   5.077   3.861  16.156 -0.0147 -0.7840  0.4351
 3129TIP3    H130878   5.072   3.905  16.241  2.3294 -0.6610  0.5650
 3129TIP3    H230879   4.988   3.829  16.141 -2.0643  4.1923  0.1387
 3130TIP3   OH230880   1.577   1.331  12.020  0.1048 -0.5213  0.3936
 3130TIP3    H130881   1.575   1.235  12.022  2.5850 -0.7395 -1.8762
 3130TIP3    H230882   1.666   1.353  12.048  0.2466  0.9604 -1.1069
 3131TIP3   OH230883   2.644   1.359  16.408  0.5754  1.2822  0.1725
 3131TIP3    H130884   2.653   1.288  16.344  0.4569 -0.2430  1.7717
 3131TIP3    H230885   2.728   1.404  16.406  0.5319  1.3325 -1.1236
 3132TIP3   OH230886   3.352   4.448   2.512  0.5577 -0.2124 -0.3503
 3132TIP3    H130887   3.425   4.491   2.468  0.2861 -0.2237 -0.8135
 3132TIP3    H230888   3.347   4.362   2.472  0.7557 -0.4857  0.1976
 3133TIP3   OH230889   2.157   1.184   0.199  0.2902 -0.3516 -0.2792
 3133TIP3    H130890   2.075   1.139   0.218 -0.7763  1.2629 -0.8119
 3133TIP3    H230891   2.215   1.116   0.168 -1.4462 -1.3062 -1.6341
 3134TIP3   OH230892   0.423   0.322  15.857 -0.0838  0.1744 -0.4033
 3134TIP3    H130893   0.378   0.238  15.864 -0.6655  0.5220  0.2421
 3134TIP3    H230894   0.382   0.366  15.783  1.0109 -0.5589 -1.4729
 3135TIP3   OH230895   2.973   1.047   1.362  0.7019 -0.1173 -0.9652
 3135TIP3    H130896   2.881   1.020   1.358  0.8469 -0.9210  0.3388
 3135TIP3    H230897   3.021   0.966   1.379  1.0941  0.7999  3.8440
 3136TIP3   OH230898   4.964   3.541   4.241  0.2555 -0.1627  0.0981
 3136TIP3    H130899   5.018   3.611   4.206 -1.4670  2.7635  2.7961
 3136TIP3    H230900   5.025   3.468   4.255  1.9249  0.2556 -3.7824
 3137TIP3   OH230901   5.766   4.893   2.001 -0.2565  0.6300  0.0192
 3137TIP3    H130902   5.744   4.839   2.077 -1.8774 -0.1593 -0.9503
 3137TIP3    H230903   5.739   4.981   2.025  1.1908  0.7970  1.1271
 3138TIP3   OH230904   6.560   0.038  12.508  0.2273  0.0845 -0.4412
 3138TIP3    H130905   6.525   0.106  12.450 -1.9714 -0.4680  0.1338
 3138TIP3    H230906   6.655   0.043  12.497  0.1183  3.0360 -0.6269
 3139TIP3   OH230907   3.571   4.537   2.355  0.3344 -0.7045  0.1034
 3139TIP3    H130908   3.586   4.501   2.267 -2.1010  1.0445 -1.1699
 3139TIP3    H230909   3.614   4.622   2.354 -1.3220  0.1712 -0.1644
 3140TIP3   OH230910   0.366   4.549   5.239 -0.7060  0.2051  0.3824
 3140TIP3    H130911   0.437   4.586   5.186 -0.6641  2.2189  1.7221
 3140TIP3    H230912   0.408   4.477   5.287 -0.3213 -0.4976 -0.9552
 3141TIP3   OH230913   4.564   1.132  10.856  0.8742  0.4708 -0.6531
 3141TIP3    H130914   4.601   1.211  10.894 -0.8464  0.8508  0.3265
 3141TIP3    H230915   4.575   1.143  10.762  2.9876  0.6546 -0.4154
 3142TIP3   OH230916   2.201   2.909  17.008  0.4506 -1.2659  0.4815
 3142TIP3    H130917   2.256   2.964  16.952  0.0518  0.4523  1.7026
 3142TIP3    H230918   2.111   2.931  16.981  0.2769 -0.9327  1.3161
 3143TIP3   OH230919   1.896   3.360  17.038  0.1050  0.2845  0.0794
 3143TIP3    H130920   1.985   3.327  17.027  0.6023  1.8309 -0.8268
 3143TIP3    H230921   1.886   3.370  17.133  1.4949  1.5678  0.1414
 3144TIP3   OH230922   4.292   0.012  16.048 -0.1759 -0.7574 -0.0191
 3144TIP3    H130923   4.316  -0.071  16.006  0.3900 -0.1878 -0.8586
 3144TIP3    H230924   4.375   0.055  16.065 -0.3830 -0.9490  1.7224
 3145TIP3   OH230925   4.734   4.398  13.891  0.3424  0.3895  0.5369
 3145TIP3    H130926   4.686   4.330  13.938  0.5922 -0.7311 -0.7796
 3145TIP3    H230927   4.775   4.353  13.818  0.4195  1.9748 -0.4534
 3146TIP3   OH230928   2.425   1.139   5.998  0.1243 -0.2097  0.7944
 3146TIP3    H130929   2.486   1.151   6.070 -0.5956  0.5459  1.3006
 3146TIP3    H230930   2.345   1.106   6.039  0.5743 -2.4952 -0.0186
 3147TIP3   OH230931   6.068   1.458  15.308  0.4311  0.0093 -0.0713
 3147TIP3    H130932   5.982   1.463  15.348 -0.6080 -1.6918 -1.8778
 3147TIP3    H230933   6.109   1.382  15.348  0.1131 -0.6019 -0.8737
 3148TIP3   OH230934   4.543   1.554  15.188  0.2461 -0.1976  0.1817
 3148TIP3    H130935   4.512   1.547  15.278 -0.5606  0.0472 -0.0714
 3148TIP3    H230936   4.471   1.597  15.141  0.0776 -1.5484 -0.8639
 3149TIP3   OH230937   3.419   3.852   5.424  0.8489 -0.4559 -0.3128
 3149TIP3    H130938   3.387   3.770   5.460  1.6561 -0.4588  0.4417
 3149TIP3    H230939   3.402   3.846   5.330 -1.9931 -0.1304  0.0906
 3150TIP3   OH230940   5.129   3.218  14.870 -0.7238 -0.3666 -0.1102
 3150TIP3    H130941   5.037   3.193  14.883 -0.7041 -0.0502  0.6885
 3150TIP3    H230942   5.134   3.309  14.900 -0.2245 -0.2620 -0.4993
 3151TIP3   OH230943   6.542   6.269  13.110 -0.6696  0.1309 -0.1101
 3151TIP3    H130944   6.621   6.313  13.078  0.0134 -0.6592  0.4499
 3151TIP3    H230945   6.567   6.237  13.197 -0.3705 -3.3233 -1.3466
 3152TIP3   OH230946   3.347   2.562   3.941 -0.5253  0.0568  0.1247
 3152TIP3    H130947   3.382   2.648   3.916  0.5977 -0.2607  0.5262
 3152TIP3    H230948   3.422   2.503   3.935 -1.4515 -1.0582 -0.8662
 3153TIP3   OH230949   1.768   0.721  16.385 -0.2289 -0.0679 -0.2152
 3153TIP3    H130950   1.753   0.814  16.397 -4.6483 -0.7458  1.3770
 3153TIP3    H230951   1.745   0.682  16.470  2.4518 -2.6045 -0.4957
 3154TIP3   OH230952   3.891   4.300   3.406  0.1288 -0.0565  0.2862
 3154TIP3    H130953   3.876   4.366   3.473 -1.6326 -0.3177  0.1984
 3154TIP3    H230954   3.803   4.278   3.374  0.8559 -0.6701 -1.3866
 3155TIP3   OH230955   4.101   2.919  13.063  0.0141 -0.2179 -0.0941
 3155TIP3    H130956   4.161   2.965  13.004  0.1254 -1.2747 -0.8253
 3155TIP3    H230957   4.156   2.853  13.106 -0.0855  0.4706  1.1372
 3156TIP3   OH230958   2.122   2.695  12.221 -0.0142  0.1168 -0.5149
 3156TIP3    H130959   2.157   2.783  12.238  1.3770 -0.2053 -1.5453
 3156TIP3    H230960   2.057   2.708  12.152 -0.6153  0.4670  0.0995
 3157TIP3   OH230961   0.569   1.688   4.746  0.1247  0.3046  0.3613
 3157TIP3    H130962   0.561   1.597   4.719  0.9992  0.2351  0.3125
 3157TIP3    H230963   0.659   1.696   4.779  1.0586  1.8274 -2.2730
 3158TIP3   OH230964   0.241   1.791  14.797  0.2654 -0.4027  0.0135
 3158TIP3    H130965   0.295   1.722  14.834  0.6849  0.4153  0.9984
 3158TIP3    H230966   0.220   1.848  14.872 -0.4883  0.2526 -0.6695
 3159TIP3   OH230967   5.863   3.872   1.373 -0.4260 -0.5529  0.7098
 3159TIP3    H130968   5.787   3.919   1.408 -0.7423 -0.0623 -0.5569
 3159TIP3    H230969   5.857   3.784   1.410 -2.2659 -0.8644 -0.2313
 3160TIP3   OH230970   6.108   4.418  14.798 -0.0850 -0.2096  0.4134
 3160TIP3    H130971   6.017   4.408  14.824 -0.1335  0.8204  0.6928
 3160TIP3    H230972   6.158   4.408  14.879 -0.0825  0.8862  0.5624
 3161TIP3   OH230973   2.638   5.728  10.716  0.4890 -0.5688 -0.0563
 3161TIP3    H130974   2.568   5.667  10.692 -0.2934 -0.7561  2.4578
 3161TIP3    H230975   2.718   5.678  10.705 -0.0795 -1.7463  0.9667
 3162TIP3   OH230976   6.141   0.314  12.302  0.0433 -0.0169  0.1801
 3162TIP3    H130977   6.171   0.226  12.277  0.4860  0.0660  0.4170
 3162TIP3    H230978   6.046   0.306  12.309 -0.0865 -0.1216 -1.2561
 3163TIP3   OH230979   3.041   4.351   1.748 -0.5056  0.3266  0.3053
 3163TIP3    H130980   3.080   4.438   1.736  2.6198 -0.9189  0.5030
 3163TIP3    H230981   3.068   4.324   1.836 -0.0005 -1.4724 -0.3547
 3164TIP3   OH230982   5.494   0.789   2.198  0.2490  0.7898  0.0898
 3164TIP3    H130983   5.459   0.878   2.205  0.7399  0.9747  0.1970
 3164TIP3    H230984   5.536   0.786   2.112 -0.2659  0.4777 -0.1597
 3165TIP3   OH230985   2.119   4.298   3.370 -0.0755 -0.0504  0.3955
 3165TIP3    H130986   2.176   4.312   3.446 -1.6462 -0.8481  1.7699
 3165TIP3    H230987   2.083   4.385   3.350 -1.7978 -0.2583  2.3572
 3166TIP3   OH230988   1.239   4.374  14.432  0.1432  0.2464  0.2729
 3166TIP3    H130989   1.308   4.308  14.429  0.6392  0.7416  0.5146
 3166TIP3    H230990   1.172   4.337  14.490  1.1251  0.6033  1.6901
 3167TIP3   OH230991   0.491   1.049   4.249  0.1258  0.1146  0.2574
 3167TIP3    H130992   0.440   1.062   4.169 -0.6627  4.1994  1.2039
 3167TIP3    H230993   0.426   1.023   4.315  0.0817  0.6132  0.4134
 3168TIP3   OH230994   6.087   6.411  17.109  0.0295  0.8078  0.4917
 3168TIP3    H130995   6.151   6.469  17.069  1.1693 -0.8766 -0.2697
 3168TIP3    H230996   6.129   6.382  17.191  1.0704 -1.5604 -0.7730
 3169TIP3   OH230997   3.117   1.379  15.379  0.1658 -0.1461 -0.4060
 3169TIP3    H130998   3.202   1.345  15.351 -0.0864 -1.4425  0.3146
 3169TIP3    H230999   3.084   1.427  15.303  2.1426  1.6054 -0.2471
 3170TIP3   OH231000   1.088   6.356  14.887 -0.2456  0.3075 -0.0576
 3170TIP3    H131001   1.018   6.421  14.878  0.0476  1.1418  2.7979
 3170TIP3    H231002   1.095   6.341  14.981  2.0201 -1.3301 -0.4053
 3171TIP3   OH231003   6.682   2.608  15.820 -0.5112 -0.1244  0.6659
 3171TIP3    H131004   6.726   2.626  15.737 -0.3069  0.0304  0.8077
 3171TIP3    H231005   6.748   2.626  15.887 -0.4106 -1.0342  0.8344
 3172TIP3   OH231006   5.612   3.180  14.645  0.3302  0.4194 -0.0738
 3172TIP3    H131007   5.684   3.234  14.611  0.5564 -0.3418 -0.8450
 3172TIP3    H231008   5.543   3.242  14.666  0.3702  0.9867 -1.4911
 3173TIP3   OH231009   3.270   6.033   0.175 -0.1070 -0.0074 -0.1384
 3173TIP3    H131010   3.265   6.121   0.213 -0.5709 -0.2525  0.3982
 3173TIP3    H231011   3.358   6.027   0.138  0.7670 -0.0958  1.8125
 3174TIP3   OH231012   3.103   2.012   4.171  0.2196 -0.6534  0.2259
 3174TIP3    H131013   3.156   1.955   4.115 -1.1443 -0.9139 -0.8514
 3174TIP3    H231014   3.115   2.100   4.134 -1.1004 -0.8978 -0.8784
 3175TIP3   OH231015   5.332   2.918  15.413 -0.1383 -0.2316  0.3647
 3175TIP3    H131016   5.314   2.980  15.484  0.7412  0.7246 -0.2186
 3175TIP3    H231017   5.354   2.836  15.457 -2.4677 -0.5123  1.1459
 3176TIP3   OH231018   2.767   3.658  13.733 -0.2285  0.1148  0.0362
 3176TIP3    H131019   2.756   3.566  13.712  1.4627  0.2514 -1.8061
 3176TIP3    H231020   2.835   3.660  13.800 -1.1071 -0.0083  0.9511
 3177TIP3   OH231021   3.940   4.265   4.178 -0.4918  0.4300  0.2402
 3177TIP3    H131022   3.954   4.198   4.245 -0.6252  0.0794 -0.0853
 3177TIP3    H231023   3.852   4.298   4.195 -0.7003  0.0249 -0.0411
 3178TIP3   OH231024   4.972   5.053  11.236  0.2292 -0.3228  0.2500
 3178TIP3    H131025   4.972   5.126  11.173 -1.6737 -0.7649 -0.3224
 3178TIP3    H231026   5.013   4.981  11.188 -0.0357 -0.2961 -0.0182
 3179TIP3   OH231027   3.666   5.169  11.295  0.7863 -0.1026 -0.1565
 3179TIP3    H131028   3.591   5.111  11.307  0.5484  0.3485  0.5650
 3179TIP3    H231029   3.726   5.119  11.240  1.0934 -1.5043  1.3881
 3180TIP3   OH231030   0.037   2.376   5.223  0.4844  0.5192 -0.1045
 3180TIP3    H131031   0.043   2.431   5.144  1.9816 -0.6287 -0.8483
 3180TIP3    H231032   0.070   2.290   5.194 -1.2425 -0.6220  1.1622
 3181TIP3   OH231033   5.314   0.966  13.749  0.2505 -0.2443 -0.0078
 3181TIP3    H131034   5.237   0.910  13.763  0.0191 -0.0304 -0.4176
 3181TIP3    H231035   5.326   1.011  13.833  0.4894 -0.9619  0.3570
 3182TIP3   OH231036   1.257   5.222  16.690 -0.6880 -0.4128 -0.4985
 3182TIP3    H131037   1.332   5.258  16.738 -1.1376 -0.3483  0.1704
 3182TIP3    H231038   1.252   5.131  16.719 -0.9963 -0.3597 -0.3881
 3183TIP3   OH231039   1.943   2.145  14.439 -0.2918  0.0287 -0.0471
 3183TIP3    H131040   1.990   2.065  14.416  0.4647  0.5865 -0.5029
 3183TIP3    H231041   2.010   2.214  14.435 -1.2301  0.9202 -1.1945
 3184TIP3   OH231042   1.813   2.031  12.525 -0.3212  0.4002  0.0335
 3184TIP3    H131043   1.849   2.010  12.611  0.3246 -0.4006 -0.4183
 3184TIP3    H231044   1.801   2.126  12.527  0.6919  0.5312  0.6212
 3185TIP3   OH231045   4.737   5.201   1.191  0.1940 -0.8347 -0.3712
 3185TIP3    H131046   4.742   5.121   1.243 -1.0680 -1.3426 -0.9706
 3185TIP3    H231047   4.648   5.200   1.155  0.6124  0.1320 -1.5047
 3186TIP3   OH231048   5.056   3.699  16.797 -0.0170 -0.3289 -0.0361
 3186TIP3    H131049   5.144   3.682  16.765 -0.0378  0.3936 -0.5072
 3186TIP3    H231050   5.067   3.720  16.890  0.2009 -1.0952  0.1162
 3187TIP3   OH231051   5.858   1.642   0.683 -0.1783 -0.2427  0.2837
 3187TIP3    H131052   5.833   1.729   0.652  0.8223 -0.0140  0.0945
 3187TIP3    H231053   5.954   1.643   0.685 -0.1608 -0.2844  3.3586
 3188TIP3   OH231054   1.615   0.760   6.227 -0.2222  0.2802  0.2496
 3188TIP3    H131055   1.710   0.759   6.241  0.1327  1.0304 -1.6502
 3188TIP3    H231056   1.594   0.671   6.200  0.4697  0.6998 -1.8971
 3189TIP3   OH231057   1.730   0.235   0.957 -0.0510  0.0535  0.3579
 3189TIP3    H131058   1.688   0.303   0.904  1.7682  0.8792 -0.0877
 3189TIP3    H231059   1.800   0.281   1.003  1.5578 -1.5967 -0.3502
 3190TIP3   OH231060   3.578   4.300   4.527 -0.1697 -0.2194 -0.1103
 3190TIP3    H131061   3.530   4.378   4.498  0.8036  0.1684 -0.7576
 3190TIP3    H231062   3.521   4.227   4.505 -1.5114  0.3482  1.3700
 3191TIP3   OH231063   4.145   3.584   2.148 -0.1499 -0.7669  0.2103
 3191TIP3    H131064   4.123   3.640   2.222  0.8071  1.6242 -1.2182
 3191TIP3    H231065   4.161   3.498   2.187 -1.3436 -0.0113  2.5324
 3192TIP3   OH231066   2.787   6.292   5.337 -0.6158 -0.0585  0.1597
 3192TIP3    H131067   2.759   6.306   5.427 -0.0179  1.8688  0.0890
 3192TIP3    H231068   2.857   6.356   5.323  0.6725 -1.6721 -1.0737
 3193TIP3   OH231069   3.789   6.575  11.837 -1.2315 -0.0019 -0.3114
 3193TIP3    H131070   3.771   6.607  11.925 -1.5068  0.0632 -0.3884
 3193TIP3    H231071   3.853   6.636  11.801 -0.0899 -0.7764  0.3101
 3194TIP3   OH231072   0.144   3.542   0.982 -0.2869  0.6012  0.5112
 3194TIP3    H131073   0.079   3.601   0.942 -1.1528  1.1703  2.5935
 3194TIP3    H231074   0.223   3.556   0.931 -0.9974  2.1741 -0.2557
 3195TIP3   OH231075   6.807   5.412  16.265  0.3642 -0.0126  0.1484
 3195TIP3    H131076   6.721   5.432  16.303  0.5810  1.6211 -0.1414
 3195TIP3    H231077   6.801   5.444  16.175  0.4935 -2.0991 -0.6646
 3196TIP3   OH231078   3.474   0.838   5.777  0.0139  0.2020 -0.4820
 3196TIP3    H131079   3.398   0.871   5.729 -0.5415 -1.0589 -0.4946
 3196TIP3    H231080   3.440   0.810   5.862  0.3798 -0.7299 -0.6303
 3197TIP3   OH231081   1.329   5.984  11.440 -1.0367  0.4468 -0.7536
 3197TIP3    H131082   1.264   5.916  11.421 -1.1315  0.6572 -1.2125
 3197TIP3    H231083   1.346   6.025  11.355 -0.7936  0.8295 -0.5254
 3198TIP3   OH231084   1.754   1.691   3.688  0.5083  0.3684 -0.4435
 3198TIP3    H131085   1.731   1.696   3.595  1.0197  1.5509 -0.5333
 3198TIP3    H231086   1.734   1.601   3.714 -1.6540  0.5960 -1.1579
 3199TIP3   OH231087   1.952   4.344  15.722  0.0301  0.4032 -0.0082
 3199TIP3    H131088   2.032   4.304  15.691 -0.4094 -0.6755  0.1995
 3199TIP3    H231089   1.964   4.350  15.817  0.3855  1.4568 -0.1051
 3200TIP3   OH231090   5.162   0.862  17.041 -0.1953 -0.2995  0.7287
 3200TIP3    H131091   5.068   0.857  17.055 -0.2784 -0.3376  0.2000
 3200TIP3    H231092   5.201   0.824  17.120 -0.6731 -2.3201  0.0715
 3201TIP3   OH231093   0.989   2.844   1.913  0.5657  0.1525 -0.3077
 3201TIP3    H131094   0.953   2.890   1.838  2.2791  0.9041 -0.7273
 3201TIP3    H231095   1.084   2.857   1.906  0.9216 -1.3860  0.9248
 3202TIP3   OH231096   0.379   0.001   0.787 -0.1918 -0.0384 -0.3231
 3202TIP3    H131097   0.392  -0.070   0.723 -2.0786  0.2873 -1.1174
 3202TIP3    H231098   0.340   0.072   0.736  1.2944  1.4820  0.5425
 3203TIP3   OH231099   4.932   0.761   2.970  0.1817 -0.3068  0.4401
 3203TIP3    H131100   5.018   0.761   3.012  0.0295  0.6904  0.7581
 3203TIP3    H231101   4.900   0.850   2.979 -0.8639 -0.6497  0.2579
 3204TIP3   OH231102   4.165   1.533  15.969 -0.1491 -0.0200 -0.5969
 3204TIP3    H131103   4.257   1.549  15.952 -0.2026 -0.4474 -1.3182
 3204TIP3    H231104   4.145   1.586  16.046  0.6388  0.2535 -0.5772
 3205TIP3   OH231105   0.864   5.193   1.866  0.8698  0.1050  0.6312
 3205TIP3    H131106   0.823   5.219   1.949  2.7441  1.4909  1.1910
 3205TIP3    H231107   0.799   5.136   1.825 -0.9640  0.9592  2.1323
 3206TIP3   OH231108   2.889   2.896   1.343  0.5076 -0.3131  0.0568
 3206TIP3    H131109   2.843   2.883   1.426  0.6021  0.3972  0.2240
 3206TIP3    H231110   2.839   2.845   1.280  0.4459 -0.8722  0.5529
 3207TIP3   OH231111   5.006   5.233  11.024  0.1776 -0.1577 -0.2571
 3207TIP3    H131112   5.034   5.167  10.960  1.7761 -0.6488  0.8880
 3207TIP3    H231113   5.058   5.310  11.003 -0.9074  0.4231 -0.9077
 3208TIP3   OH231114   6.533   4.287   5.778  0.2690 -0.4090  0.3779
 3208TIP3    H131115   6.456   4.322   5.733 -0.1171  0.3773  1.6004
 3208TIP3    H231116   6.521   4.192   5.777  0.2169 -0.4078 -1.0379
 3209TIP3   OH231117   3.863   6.005   1.961 -0.0527 -0.1768  0.1625
 3209TIP3    H131118   3.787   5.946   1.967 -0.5698  0.5101  0.5713
 3209TIP3    H231119   3.825   6.089   1.932  0.1329  0.9017  2.7982
 3210TIP3   OH231120   6.638   1.129   1.435  0.2194 -0.8214 -0.1695
 3210TIP3    H131121   6.585   1.133   1.356 -0.6651 -1.4061  0.3650
 3210TIP3    H231122   6.706   1.195   1.423 -0.9287  0.3098 -0.6690
 3211TIP3   OH231123   2.044   5.842  15.965 -0.3634 -0.1107  0.0930
 3211TIP3    H131124   2.110   5.807  15.906 -0.3769  1.6477 -1.0420
 3211TIP3    H231125   2.059   5.796  16.048  3.1501  1.1024  0.3127
 3212TIP3   OH231126   4.707   5.522   4.447 -0.1253 -0.3107  0.6605
 3212TIP3    H131127   4.751   5.511   4.531 -0.1868  0.9627  0.8716
 3212TIP3    H231128   4.615   5.504   4.466 -0.0009 -1.0354  0.6302
 3213TIP3   OH231129   4.893   3.765  14.229  0.0152 -0.0610 -0.1570
 3213TIP3    H131130   4.881   3.853  14.265 -0.7292 -0.2290  0.0158
 3213TIP3    H231131   4.985   3.745  14.247 -0.0346  0.3333  0.5952
 3214TIP3   OH231132   5.187   3.544   3.468  0.4040 -0.1653 -0.4406
 3214TIP3    H131133   5.205   3.515   3.557  1.1891  1.4743 -0.0176
 3214TIP3    H231134   5.094   3.529   3.456  0.2858 -0.3989  0.6627
 3215TIP3   OH231135   2.930   4.331  16.309  0.7394  0.2348 -0.0959
 3215TIP3    H131136   2.933   4.390  16.234  1.5692 -1.0697 -1.1407
 3215TIP3    H231137   2.837   4.328  16.333  0.5503  1.1781 -0.6517
 3216TIP3   OH231138   0.951   1.947   2.126 -0.4355  0.3549 -0.1099
 3216TIP3    H131139   0.903   1.866   2.145 -1.8727  0.6923 -2.0067
 3216TIP3    H231140   1.037   1.917   2.096 -0.8063 -0.4727 -0.4002
 3217TIP3   OH231141   5.050   5.203   1.999 -0.0267  0.4312 -0.0509
 3217TIP3    H131142   4.968   5.214   2.047  0.3362  0.2032  0.6293
 3217TIP3    H231143   5.033   5.130   1.939 -0.3069  0.3539  0.1215
 3218TIP3   OH231144   2.715   5.617   2.623 -0.2003 -0.3739  0.7781
 3218TIP3    H131145   2.736   5.705   2.657 -1.2102  1.0998 -2.0855
 3218TIP3    H231146   2.729   5.624   2.529 -0.7998 -3.1925  0.4055
 3219TIP3   OH231147   2.433   0.782  14.944 -0.0402 -0.4662  0.0425
 3219TIP3    H131148   2.473   0.737  15.018 -2.0398  0.2006  1.5904
 3219TIP3    H231149   2.425   0.873  14.971 -0.4740 -0.1212 -1.1487
 3220TIP3   OH231150   6.690   5.147  14.494 -0.1081 -0.2720  0.0230
 3220TIP3    H131151   6.709   5.223  14.550 -2.1279  0.6548 -0.4547
 3220TIP3    H231152   6.681   5.074  14.554  0.2226  0.1941  0.6505
 3221TIP3   OH231153   6.660   5.336  12.248 -0.1740  0.8649  0.0942
 3221TIP3    H131154   6.644   5.242  12.241  0.3114  0.8547 -1.1645
 3221TIP3    H231155   6.718   5.344  12.325 -1.4892  0.3335  1.1835
 3222TIP3   OH231156   5.225   3.257  10.644 -0.0164 -0.5347  0.0397
 3222TIP3    H131157   5.250   3.203  10.569  2.0434 -1.7373  1.4824
 3222TIP3    H231158   5.249   3.346  10.618 -2.0126 -0.4486 -1.7757
 3223TIP3   OH231159   5.256   5.872  10.562 -0.2235 -0.8147  0.2382
 3223TIP3    H131160   5.338   5.911  10.530  0.3663 -3.2992 -1.6202
 3223TIP3    H231161   5.220   5.937  10.621  3.3673  0.1909  1.5723
 3224TIP3   OH231162   5.205   6.062  14.250 -0.2757  0.5685 -0.0064
 3224TIP3    H131163   5.230   6.082  14.341  0.0046  0.8730 -0.1466
 3224TIP3    H231164   5.192   5.968  14.250  3.0934 -0.0433 -0.4003
 3225TIP3   OH231165   0.320   0.906   2.149  0.2028  0.3778  0.1242
 3225TIP3    H131166   0.331   0.999   2.132 -2.2632  1.1145  1.9499
 3225TIP3    H231167   0.240   0.882   2.102  0.7733 -0.8263 -0.2790
 3226TIP3   OH231168   2.867   6.819   1.935 -0.0096  0.2890 -0.2188
 3226TIP3    H131169   2.830   6.801   1.849 -0.1140  1.7272 -0.5095
 3226TIP3    H231170   2.912   6.903   1.924 -2.6179  2.0920  1.8539
 3227TIP3   OH231171   1.963   4.196  13.820  0.4182 -0.2632  0.0757
 3227TIP3    H131172   1.975   4.253  13.744  0.4241 -1.7559 -1.0785
 3227TIP3    H231173   1.872   4.168  13.815  0.3665 -0.2252  0.7345
 3228TIP3   OH231174   2.178   6.469  10.937 -0.1345  0.1154 -0.5430
 3228TIP3    H131175   2.189   6.378  10.963 -1.7061 -0.4188 -1.5411
 3228TIP3    H231176   2.267   6.501  10.921  0.3957 -1.6442 -1.4090
 3229TIP3   OH231177   5.948   2.558   4.433 -0.0144  0.3771  0.0599
 3229TIP3    H131178   5.888   2.584   4.503 -0.4316  1.6948 -0.7579
 3229TIP3    H231179   5.947   2.463   4.435  0.5930  0.3582  2.3531
 3230TIP3   OH231180   5.931   5.538  16.814  0.3187 -0.2470 -0.1638
 3230TIP3    H131181   5.907   5.471  16.750  1.0709 -0.6907  0.0178
 3230TIP3    H231182   5.850   5.589  16.826 -0.7677 -2.1055  0.9245
 3231TIP3   OH231183   6.471   4.524  16.671  0.0120  1.1266 -0.1636
 3231TIP3    H131184   6.434   4.516  16.759 -1.3755 -0.8763 -0.8730
 3231TIP3    H231185   6.402   4.565  16.619  0.9971  2.7438 -0.2841
 3232TIP3   OH231186   0.728   3.113  15.690  0.4680  0.1432 -0.2615
 3232TIP3    H131187   0.692   3.032  15.656  1.6640 -0.7529  0.5364
 3232TIP3    H231188   0.686   3.182  15.638  0.0553 -1.0148 -1.5034
 3233TIP3   OH231189   4.663   1.916   2.015  0.7007  0.4552  0.0210
 3233TIP3    H131190   4.696   2.005   2.026 -0.0620  0.7844 -0.2439
 3233TIP3    H231191   4.613   1.899   2.095  0.2248  0.5508 -0.2529
 3234TIP3   OH231192   1.504   1.475   1.351  0.5252  0.4082 -0.2798
 3234TIP3    H131193   1.442   1.547   1.362  0.3570  0.3695 -0.9420
 3234TIP3    H231194   1.577   1.497   1.409 -0.5614 -0.0774  1.3524
 3235TIP3   OH231195   6.226   0.002   4.268 -0.3231  0.0199  0.6743
 3235TIP3    H131196   6.219   0.062   4.194  0.6027  0.1818  0.7085
 3235TIP3    H231197   6.315   0.014   4.300 -0.2076 -1.1765  0.8428
 3236TIP3   OH231198   5.152   1.955   0.168 -0.2254  0.1434 -0.1629
 3236TIP3    H131199   5.246   1.947   0.184 -0.1473 -0.4044 -0.8776
 3236TIP3    H231200   5.142   2.040   0.125 -0.1350  0.4750  0.4624
 3237TIP3   OH231201   6.296   6.133   6.840 -0.3048 -0.1481  0.4492
 3237TIP3    H131202   6.341   6.071   6.782 -1.0864 -0.5588  0.2593
 3237TIP3    H231203   6.227   6.171   6.784 -0.7054 -0.1314  0.9463
 3238TIP3   OH231204   1.694   6.820  15.941 -0.2486 -0.1581  0.2709
 3238TIP3    H131205   1.784   6.789  15.948  0.0257  0.7502  0.9089
 3238TIP3    H231206   1.701   6.910  15.908 -1.0312 -0.7185 -1.5690
 3239TIP3   OH231207   0.632   5.258  12.447  0.1731 -0.3275 -0.2915
 3239TIP3    H131208   0.580   5.240  12.525  0.1752  0.9463  0.0319
 3239TIP3    H231209   0.629   5.354  12.438  0.5688 -0.4220 -1.5782
 3240TIP3   OH231210   4.461   1.687   1.844  0.3341 -0.2949 -0.5696
 3240TIP3    H131211   4.384   1.665   1.791 -0.9511  0.9810  0.6797
 3240TIP3    H231212   4.470   1.614   1.905 -0.3643 -0.0953 -0.2207
 3241TIP3   OH231213   4.269   5.679  14.777 -0.2896  0.3712 -0.0218
 3241TIP3    H131214   4.285   5.609  14.841 -0.1325 -0.5261 -1.0208
 3241TIP3    H231215   4.251   5.756  14.831 -0.9459 -0.5353  1.1087
 3242TIP3   OH231216   5.950   1.891  12.667  0.5941  0.8080 -0.4936
 3242TIP3    H131217   5.904   1.948  12.606  0.3326  1.0775 -0.0476
 3242TIP3    H231218   5.995   1.951  12.727 -1.1360  0.6110  1.1071
 3243TIP3   OH231219   3.655   3.780  17.148  0.0789 -0.1708  0.3559
 3243TIP3    H131220   3.724   3.781  17.215  0.4341  0.0087 -0.0054
 3243TIP3    H231221   3.666   3.864  17.102 -1.4143  0.5884  1.3194
 3244TIP3   OH231222   1.855   5.132   2.391 -0.3821 -0.6835  0.0936
 3244TIP3    H131223   1.926   5.160   2.334 -1.7106  0.6398 -1.0015
 3244TIP3    H231224   1.820   5.053   2.349  0.5271 -1.4496  0.7397
 3245TIP3   OH231225   4.929   3.705   1.589  0.5570 -0.4497  0.0226
 3245TIP3    H131226   4.896   3.617   1.572 -2.7542  1.1446 -3.0748
 3245TIP3    H231227   4.851   3.760   1.594  2.3738  2.2672  3.2147
 3246TIP3   OH231228   6.076   1.583   2.458  0.1077 -0.1803 -0.3704
 3246TIP3    H131229   6.125   1.509   2.422  1.5765  1.2591 -1.4781
 3246TIP3    H231230   5.987   1.551   2.467  0.8619 -2.3397  0.0163
 3247TIP3   OH231231   4.501   5.445  16.535 -0.3830 -0.6493 -0.3417
 3247TIP3    H131232   4.454   5.399  16.604  1.4014  1.2630  2.3369
 3247TIP3    H231233   4.433   5.471  16.473 -2.3887 -0.7636  1.6857
 3248TIP3   OH231234   4.114   1.681  11.917 -0.1942 -0.2950 -0.4316
 3248TIP3    H131235   4.137   1.773  11.922 -1.7422  0.0868  0.3185
 3248TIP3    H231236   4.194   1.634  11.942  0.5868  0.8262 -0.7620
 3249TIP3   OH231237   5.900   0.425  13.679 -0.2958 -0.2977  0.1914
 3249TIP3    H131238   5.854   0.500  13.639 -1.6041 -0.3815  1.4538
 3249TIP3    H231239   5.929   0.457  13.764  2.8626  0.0135 -0.8917
 3250TIP3   OH231240   2.885   3.359  15.539  0.5461  0.3011 -0.0463
 3250TIP3    H131241   2.872   3.454  15.538  0.4590  0.3828  2.3267
 3250TIP3    H231242   2.980   3.348  15.533  0.4383  0.3398 -3.2539
 3251TIP3   OH231243   5.534   4.678   1.877  0.0658  0.4588 -0.0172
 3251TIP3    H131244   5.519   4.588   1.847 -0.7900 -0.5419  3.0107
 3251TIP3    H231245   5.605   4.710   1.822 -1.3349 -1.0840 -2.9714
 3252TIP3   OH231246   2.207   2.539  14.182  0.5620  0.1529 -0.2030
 3252TIP3    H131247   2.130   2.503  14.225  0.9091  0.2057  0.4704
 3252TIP3    H231248   2.177   2.624  14.147  0.5531  0.5892  0.8410
 3253TIP3   OH231249   0.825   5.625  11.518  0.1661 -0.0455  0.1744
 3253TIP3    H131250   0.824   5.656  11.608 -0.4422 -0.5887  0.3572
 3253TIP3    H231251   0.858   5.535  11.523 -1.5182 -0.7129  0.0816
 3254TIP3   OH231252   0.397   1.999  13.085 -0.2401 -0.0041 -0.1640
 3254TIP3    H131253   0.458   2.041  13.145  0.6831  0.3601 -1.3224
 3254TIP3    H231254   0.310   2.024  13.117  0.1827 -0.7902  1.6939
 3255TIP3   OH231255   5.615   0.656   0.319  0.4451  0.0542 -0.4713
 3255TIP3    H131256   5.695   0.695   0.282  1.8147 -1.8251  0.3446
 3255TIP3    H231257   5.627   0.663   0.414 -0.7735  0.4698 -0.3319
 3256TIP3   OH231258   3.493   4.793  12.748 -0.0624  0.3021 -0.1629
 3256TIP3    H131259   3.474   4.700  12.758  0.5894  0.3018  1.3771
 3256TIP3    H231260   3.465   4.833  12.830  1.7222  1.0849  0.1248
 3257TIP3   OH231261   0.005   4.180  12.370 -0.1591  0.4077 -0.4234
 3257TIP3    H131262   0.086   4.225  12.392 -0.2256 -0.0422  0.8251
 3257TIP3    H231263  -0.028   4.147  12.453 -0.7366 -0.9037 -1.1356
 3258TIP3   OH231264   6.473   5.361  15.906 -0.2552  0.2296  0.2734
 3258TIP3    H131265   6.395   5.407  15.938  1.8983  2.5710  2.6120
 3258TIP3    H231266   6.506   5.314  15.982  1.0874  0.0096 -0.4170
 3259TIP3   OH231267   0.606   3.759  16.012 -0.2376  0.2076 -0.3095
 3259TIP3    H131268   0.512   3.759  16.032 -0.1286  0.9723  0.2726
 3259TIP3    H231269   0.648   3.780  16.096  0.3096  2.6325 -1.1141
 3260TIP3   OH231270   5.094   2.709  16.036  0.2266  0.1139 -0.2049
 3260TIP3    H131271   5.147   2.700  15.956  1.9160 -0.4541  0.9274
 3260TIP3    H231272   5.134   2.648  16.098  0.7577  2.5489  2.0144
 3261TIP3   OH231273   6.561   2.699   3.239  0.4031 -0.3027  0.4234
 3261TIP3    H131274   6.624   2.770   3.253  1.5145 -1.4278  1.3420
 3261TIP3    H231275   6.574   2.672   3.149  0.3445  0.2953  0.2294
 3262TIP3   OH231276   2.512   5.315   3.021 -0.9038 -0.0599  0.2788
 3262TIP3    H131277   2.561   5.233   3.019  0.4242  0.5622  2.8293
 3262TIP3    H231278   2.435   5.296   3.074  0.1901  0.6310  2.2220
 3263TIP3   OH231279   3.848   4.751   0.214 -0.3936 -0.3727 -0.0255
 3263TIP3    H131280   3.805   4.694   0.149  1.8746 -1.0034 -1.0989
 3263TIP3    H231281   3.787   4.754   0.287 -2.2047 -1.2390 -1.4028
 3264TIP3   OH231282   5.892   5.216   2.147 -0.5328 -0.1158 -0.3526
 3264TIP3    H131283   5.798   5.208   2.130 -0.8204  2.1189 -0.0968
 3264TIP3    H231284   5.898   5.246   2.237  0.3655  0.7467 -0.6812
 3265TIP3   OH231285   4.448   1.649  15.442 -0.2379  0.3325 -0.0899
 3265TIP3    H131286   4.516   1.700  15.399  1.2434 -1.2229  0.3294
 3265TIP3    H231287   4.443   1.684  15.531  1.6523 -0.9946  0.5859
 3266TIP3   OH231288   4.335   0.977   0.436 -0.4291  0.0794 -0.1424
 3266TIP3    H131289   4.267   0.945   0.494 -0.7902 -2.4692 -1.8141
 3266TIP3    H231290   4.404   0.910   0.439  0.8184  1.2922 -0.4956
 3267TIP3   OH231291   3.679   2.564  11.434  0.3771 -0.3427 -0.3890
 3267TIP3    H131292   3.667   2.508  11.357 -0.7200 -0.6985  0.0231
 3267TIP3    H231293   3.729   2.639  11.401 -0.9361  0.0140 -1.6824
 3268TIP3   OH231294   4.672   0.051   3.081 -0.1638 -0.2070  0.0867
 3268TIP3    H131295   4.646   0.127   3.134 -0.1155  0.3084 -0.6182
 3268TIP3    H231296   4.694  -0.016   3.146 -1.8924 -0.2191  0.7187
 3269TIP3   OH231297   1.662   4.540   3.746 -0.1889 -0.4955  0.2928
 3269TIP3    H131298   1.641   4.631   3.768  0.0993 -0.6570  1.3328
 3269TIP3    H231299   1.578   4.497   3.736 -0.3279 -0.0499 -0.5164
 3270TIP3   OH231300   4.142   5.370   4.964  0.4250 -0.6070 -0.2493
 3270TIP3    H131301   4.086   5.301   4.927 -0.2399  0.2428 -0.8691
 3270TIP3    H231302   4.094   5.399   5.043  0.4921 -0.5636 -0.2245
 3271TIP3   OH231303   6.438   1.684   0.769 -0.4748 -0.3745 -0.4445
 3271TIP3    H131304   6.373   1.646   0.829  0.0325 -2.8848 -1.3368
 3271TIP3    H231305   6.493   1.610   0.744  3.8346  1.8295  1.4273
 3272TIP3   OH231306   2.458   6.565  11.293  0.2359  0.1134  0.2114
 3272TIP3    H131307   2.466   6.477  11.256  0.2177 -0.0199  0.5177
 3272TIP3    H231308   2.547   6.598  11.297  0.0841  0.8299 -1.6141
 3273TIP3   OH231309   4.963   5.679   2.348 -0.4672 -0.0225  0.3442
 3273TIP3    H131310   4.934   5.703   2.436 -1.6312  0.2636 -0.1040
 3273TIP3    H231311   4.897   5.717   2.290  0.1571 -0.4161 -0.6455
 3274TIP3   OH231312   0.869   5.902  12.682 -0.1164  0.0835  0.2555
 3274TIP3    H131313   0.800   5.948  12.730  0.4266  1.4763 -0.2481
 3274TIP3    H231314   0.904   5.968  12.622 -0.0538 -1.3166 -1.2983
 3275TIP3   OH231315   5.219   2.966   6.018 -0.2278  0.1317  0.5019
 3275TIP3    H131316   5.314   2.954   6.018  0.0742  2.1993  1.2744
 3275TIP3    H231317   5.195   2.969   6.110 -1.2923 -1.7445  0.3427
 3276TIP3   OH231318   5.609   4.180  13.929  0.2777  0.1345 -0.2567
 3276TIP3    H131319   5.611   4.271  13.957  2.2025  0.1978 -0.4828
 3276TIP3    H231320   5.642   4.131  14.004 -0.9448 -0.4290 -0.0610
 3277TIP3   OH231321   2.942   5.480   2.138  0.4179  0.2218  0.0266
 3277TIP3    H131322   2.872   5.523   2.089  0.5980  1.2615  0.6484
 3277TIP3    H231323   2.948   5.529   2.219 -0.3918 -1.9243  1.4710
 3278TIP3   OH231324   5.964   0.535  13.943 -0.2693  0.1165  0.2950
 3278TIP3    H131325   5.943   0.443  13.961 -0.4432  0.1947  0.4999
 3278TIP3    H231326   5.926   0.583  14.017 -0.9953  0.4484 -0.2783
 3279TIP3   OH231327   3.456   2.855   4.714  0.2195 -0.1744 -0.1685
 3279TIP3    H131328   3.523   2.833   4.649  0.1396  0.4813 -0.4865
 3279TIP3    H231329   3.417   2.771   4.738  0.0013 -0.4054 -1.2478
 3280TIP3   OH231330   4.687   0.728  10.772 -0.2232 -0.3556 -0.2180
 3280TIP3    H131331   4.668   0.656  10.712 -0.0681  0.0117 -0.7214
 3280TIP3    H231332   4.732   0.793  10.717 -0.1410  0.0165  0.2833
 3281TIP3   OH231333   4.319   0.651   0.671 -0.5567 -0.1024  0.5382
 3281TIP3    H131334   4.362   0.691   0.595 -1.0927 -0.2841  0.1292
 3281TIP3    H231335   4.231   0.631   0.640 -0.5406 -0.8963  0.9709
 3282TIP3   OH231336   6.194   6.655  12.826  0.3290 -0.0780 -0.1342
 3282TIP3    H131337   6.143   6.575  12.815  1.1437 -0.7133  0.5900
 3282TIP3    H231338   6.245   6.662  12.745  0.3247 -0.3439 -0.1593
 3283TIP3   OH231339   3.778   4.144  15.238  0.1678 -0.2168 -0.8188
 3283TIP3    H131340   3.746   4.160  15.326  2.5701  0.7567 -0.0353
 3283TIP3    H231341   3.748   4.219  15.187  1.5918  0.9972  0.0472
 3284TIP3   OH231342   6.118   2.414  11.639 -0.2389  0.2742 -0.5387
 3284TIP3    H131343   6.173   2.361  11.582 -0.0844  0.3828 -0.4909
 3284TIP3    H231344   6.078   2.351  11.699 -1.0509  0.0555 -1.2913
 3285TIP3   OH231345   5.764   0.722  13.225  0.3712  0.2475 -0.4190
 3285TIP3    H131346   5.790   0.656  13.160  0.7841  0.8112 -0.8319
 3285TIP3    H231347   5.845   0.768  13.246  0.4677 -0.6628  1.3669
 3286TIP3   OH231348   3.513   3.839  14.445 -0.6083 -0.3927  0.3730
 3286TIP3    H131349   3.531   3.904  14.377  2.3899 -1.5765 -0.1369
 3286TIP3    H231350   3.433   3.795  14.417 -1.3067  1.3889 -0.5548
 3287TIP3   OH231351   5.547   1.945   6.100  0.0135  0.5062  0.5475
 3287TIP3    H131352   5.480   1.950   6.168  0.2677  0.5569  0.7959
 3287TIP3    H231353   5.619   1.897   6.141 -0.2062 -0.3098  0.0016
 3288TIP3   OH231354   2.794   2.076   4.574  0.2199 -0.2304  0.3579
 3288TIP3    H131355   2.887   2.087   4.556  0.6572 -0.0918  2.4107
 3288TIP3    H231356   2.770   2.154   4.624 -1.4715  0.6145 -1.6442
 3289TIP3   OH231357   5.196   3.616   6.375 -0.8087  0.0390  0.2137
 3289TIP3    H131358   5.284   3.588   6.400  0.4400  1.1454 -2.5810
 3289TIP3    H231359   5.180   3.694   6.429 -0.3323 -0.4883  1.1399
 3290TIP3   OH231360   1.217   4.322   0.029  0.2467  0.1481  0.4711
 3290TIP3    H131361   1.306   4.357   0.022  1.0561 -1.6042  1.4788
 3290TIP3    H231362   1.218   4.246  -0.029 -1.2291  1.2000 -1.0296
 3291TIP3   OH231363   4.174   0.388  17.114 -0.0462  0.1956  0.2356
 3291TIP3    H131364   4.109   0.457  17.113 -0.8058 -0.4997  0.2823
 3291TIP3    H231365   4.240   0.415  17.050 -0.2539  1.0288  0.3737
 3292TIP3   OH231366   0.393   3.332   1.258 -0.6866  0.3962 -0.6447
 3292TIP3    H131367   0.370   3.296   1.172  2.1774 -0.8191 -1.0032
 3292TIP3    H231368   0.359   3.269   1.321 -0.0217 -0.3867 -1.0583
 3293TIP3   OH231369   5.913   0.644  17.029 -0.1078 -0.0604  0.2365
 3293TIP3    H131370   5.837   0.638  17.087 -0.6251  0.3281 -0.3901
 3293TIP3    H231371   5.921   0.737  17.009 -0.2887 -0.2482 -0.7601
 3294TIP3   OH231372   4.099   4.517  12.744  0.2244  0.7701 -0.0979
 3294TIP3    H131373   4.168   4.576  12.772 -0.3509  1.2143  0.4037
 3294TIP3    H231374   4.103   4.443  12.805  0.0242  0.9687  0.1574
 3295TIP3   OH231375   6.322   4.956   3.091  0.3265  0.1491 -0.2157
 3295TIP3    H131376   6.391   4.913   3.141  0.2640  0.1523 -0.1271
 3295TIP3    H231377   6.347   4.942   3.000  0.2924 -0.0975 -0.1881
 3296TIP3   OH231378   0.023   5.158  16.091 -0.0223 -0.1881 -0.0482
 3296TIP3    H131379   0.119   5.151  16.094  0.1233  1.0195 -1.1173
 3296TIP3    H231380   0.000   5.210  16.168  0.2960  0.4371 -0.3681
 3297TIP3   OH231381   4.951   6.691  11.619 -0.0631  0.3505  0.5685
 3297TIP3    H131382   4.978   6.686  11.527  0.3222  1.8101  0.5813
 3297TIP3    H231383   4.856   6.687  11.616 -0.0498  0.3245  0.1082
 3298TIP3   OH231384   2.759   2.668   5.466  0.8402  0.0966 -0.1494
 3298TIP3    H131385   2.737   2.736   5.528 -0.0793  0.2439 -0.6243
 3298TIP3    H231386   2.825   2.708   5.408  1.6570 -0.0264  0.6685
 3299TIP3   OH231387   3.442   5.953  14.870 -0.7715  0.2337 -0.1687
 3299TIP3    H131388   3.462   5.981  14.959 -0.8265 -1.0304  0.2496
 3299TIP3    H231389   3.525   5.921  14.835 -0.6328  1.1796 -0.7731
 3300TIP3   OH231390   4.954   0.848  12.850 -0.5787 -0.2781 -0.2067
 3300TIP3    H131391   4.995   0.911  12.790 -0.7482 -1.3507 -1.4851
 3300TIP3    H231392   4.860   0.858  12.835 -0.6316 -0.3962  0.0502
 3301TIP3   OH231393   0.992   5.392   0.405 -0.3550  0.2931 -0.4939
 3301TIP3    H131394   1.028   5.345   0.480  0.2007 -0.3389 -1.1429
 3301TIP3    H231395   0.899   5.369   0.404 -0.5559  0.9811  0.4877
 3302TIP3   OH231396   1.097   3.328  13.989 -0.3425  0.2917 -0.0295
 3302TIP3    H131397   1.012   3.301  13.955 -0.0331  0.6316 -1.1452
 3302TIP3    H231398   1.150   3.248  13.988 -1.5579 -0.7586  3.9481
 3303TIP3   OH231399   5.170   6.505   2.479  0.0670 -0.1041 -0.6056
 3303TIP3    H131400   5.178   6.420   2.522 -0.0463 -1.6838 -3.4014
 3303TIP3    H231401   5.154   6.483   2.387 -1.9520  2.9783 -1.1343
 3304TIP3   OH231402   2.649   4.685   0.199 -0.5169 -0.0680 -0.3519
 3304TIP3    H131403   2.571   4.636   0.227 -0.0774 -1.5763 -1.6141
 3304TIP3    H231404   2.721   4.642   0.245 -0.1432 -0.5003 -1.3288
 3305TIP3   OH231405   2.352   0.280  13.974 -0.3554  0.5255 -0.4014
 3305TIP3    H131406   2.324   0.206  14.028  0.1660 -0.0232 -0.8751
 3305TIP3    H231407   2.446   0.287  13.989 -0.3918  1.0586 -0.4042
 3306TIP3   OH231408   5.824   3.630  11.860 -0.1186  0.3359  0.1204
 3306TIP3    H131409   5.839   3.558  11.798 -2.3232  0.3683 -0.5146
 3306TIP3    H231410   5.842   3.709  11.810  0.7522  0.2957  0.3525
 3307TIP3   OH231411   3.156   5.141  11.957  0.0837  0.0763  0.1239
 3307TIP3    H131412   3.176   5.233  11.943 -0.6646  0.2247 -0.0494
 3307TIP3    H231413   3.159   5.130  12.052 -0.8223  0.5352  0.2219
 3308TIP3   OH231414   4.618   5.986   0.633  0.8738  0.3792 -0.0206
 3308TIP3    H131415   4.573   5.952   0.555  0.4602  1.1059 -0.1027
 3308TIP3    H231416   4.593   6.078   0.637 -0.5381 -0.0330  1.9552
 3309TIP3   OH231417   4.561   6.336   2.722 -0.4134 -0.0003 -0.2308
 3309TIP3    H131418   4.474   6.313   2.690 -0.0200 -0.7138 -0.8207
 3309TIP3    H231419   4.614   6.346   2.643  0.6392 -2.0305  0.1561
 3310TIP3   OH231420   5.520   5.922   0.283 -0.4240 -0.3677 -0.1105
 3310TIP3    H131421   5.586   5.887   0.344 -1.7764 -1.0391  1.0116
 3310TIP3    H231422   5.562   6.000   0.246 -0.0552  0.9541  2.7934
 3311TIP3   OH231423   5.484   2.967   3.928 -0.2373  0.4845 -0.2318
 3311TIP3    H131424   5.543   3.035   3.894 -0.6292  0.0607 -1.8228
 3311TIP3    H231425   5.399   3.010   3.935 -0.7467 -0.0581 -2.2929
 3312TIP3   OH231426   1.495   2.552   4.690  0.2016 -0.5602  0.2114
 3312TIP3    H131427   1.406   2.576   4.714  0.6601 -0.5870  2.1511
 3312TIP3    H231428   1.485   2.477   4.632 -1.0591 -2.3252  2.4993
 3313TIP3   OH231429   6.704   0.371  15.131 -0.1202 -0.6666 -0.4762
 3313TIP3    H131430   6.725   0.295  15.077  2.5841 -1.0794  0.9987
 3313TIP3    H231431   6.730   0.347  15.220  0.0457  1.6736  0.1905
 3314TIP3   OH231432   1.678   4.474   1.508 -0.1757  0.1313 -0.2174
 3314TIP3    H131433   1.679   4.416   1.584  0.5331  1.1434  0.5773
 3314TIP3    H231434   1.611   4.437   1.451 -2.2728  0.4728  1.8286
 3315TIP3   OH231435   0.301   6.617  14.999  0.1061  0.2230 -0.4109
 3315TIP3    H131436   0.329   6.676  14.930  1.5631 -0.6737 -0.6180
 3315TIP3    H231437   0.381   6.574  15.028 -0.8344 -1.2378  0.1136
 3316TIP3   OH231438   4.024   1.307   1.268 -0.5480 -0.1411  0.0386
 3316TIP3    H131439   3.947   1.289   1.213 -0.0020  0.5218 -0.9783
 3316TIP3    H231440   4.098   1.302   1.207  0.0826  0.5366  0.7381
 3317TIP3   OH231441   4.111   3.294   1.966 -0.5028  0.5793  0.1224
 3317TIP3    H131442   4.040   3.252   1.917 -0.0867  0.8876 -0.7558
 3317TIP3    H231443   4.077   3.302   2.055 -1.3000  0.0792 -0.1308
 3318TIP3   OH231444   0.278   5.783   0.339  0.3118  0.1400  0.3755
 3318TIP3    H131445   0.271   5.781   0.435 -3.5596 -0.5106  0.2271
 3318TIP3    H231446   0.265   5.692   0.313 -2.3364  0.7716 -0.7990
 3319TIP3   OH231447   6.037   3.159  11.803 -0.3280 -0.0069  0.2165
 3319TIP3    H131448   6.020   3.174  11.896  1.9891 -1.0979  0.9032
 3319TIP3    H231449   6.000   3.072  11.786  0.9587 -0.6701  0.6774
 3320TIP3   OH231450   2.960   1.211  16.117  0.5394 -0.7566 -0.4404
 3320TIP3    H131451   2.938   1.128  16.075 -1.2452  0.0772 -1.2211
 3320TIP3    H231452   2.933   1.200  16.208 -2.0279 -0.2616 -1.0597
 3321TIP3   OH231453   5.015   2.685   0.093  0.1493  0.0817  1.1624
 3321TIP3    H131454   5.003   2.734   0.011 -0.2533  0.2760  1.3342
 3321TIP3    H231455   4.959   2.609   0.084  0.5585 -0.2074  1.0154
 3322TIP3   OH231456   4.451   1.971   0.791 -0.0988 -0.2859  0.9571
 3322TIP3    H131457   4.512   1.945   0.860  0.8991  1.5145  0.8077
 3322TIP3    H231458   4.426   2.060   0.813 -1.4078 -0.4177  0.1111
 3323TIP3   OH231459   3.520   4.625  11.975 -0.4251 -0.1504 -0.1830
 3323TIP3    H131460   3.438   4.638  12.022  0.0893  3.9249 -0.1052
 3323TIP3    H231461   3.495   4.623  11.882 -0.6399  0.7419 -0.1454
 3324TIP3   OH231462   6.148   2.926   5.520  0.1809  0.0575  0.1325
 3324TIP3    H131463   6.077   2.990   5.531 -1.6233 -2.2061  2.8027
 3324TIP3    H231464   6.104   2.847   5.488  1.2182 -1.7095  2.7352
 3325TIP3   OH231465   0.008   1.951   0.408  0.2301  0.5850 -0.3744
 3325TIP3    H131466   0.027   1.859   0.388 -0.2777 -0.1500  2.1705
 3325TIP3    H231467  -0.027   1.986   0.326  0.5608 -1.4368 -1.4575
 3326TIP3   OH231468   0.922   5.545  14.983  0.4459 -0.0761  0.0066
 3326TIP3    H131469   1.015   5.523  14.978  0.5287 -0.0861  1.4003
 3326TIP3    H231470   0.897   5.565  14.892  1.1564 -2.6749 -0.8357
 3327TIP3   OH231471   1.877   6.504   1.059  0.6709 -0.0923  0.3770
 3327TIP3    H131472   1.856   6.578   1.116  0.6293 -1.3537  2.0570
 3327TIP3    H231473   1.843   6.530   0.973 -2.2827  0.5208  1.6133
 3328TIP3   OH231474   6.776   5.389   3.146 -0.4701 -0.6667 -0.4579
 3328TIP3    H131475   6.756   5.463   3.204 -0.6654 -0.6624 -0.5298
 3328TIP3    H231476   6.708   5.392   3.079  0.4822  0.1127 -1.4334
 3329TIP3   OH231477   5.786   5.440  15.896  0.1700 -0.2913 -0.4200
 3329TIP3    H131478   5.756   5.501  15.963 -0.8957 -0.5371 -0.6681
 3329TIP3    H231479   5.811   5.361  15.945 -0.7574 -0.5298 -0.3091
 3330TIP3   OH231480   6.374   4.065  13.169 -0.0914  0.6058  0.1257
 3330TIP3    H131481   6.389   4.159  13.181  2.0380  0.1956  1.2523
 3330TIP3    H231482   6.454   4.034  13.125 -0.3226 -0.8363  0.6879
 3331TIP3   OH231483   4.679   6.162   5.019 -0.6432  0.4143  0.4033
 3331TIP3    H131484   4.611   6.162   4.952  0.0415 -0.6389 -0.3341
 3331TIP3    H231485   4.747   6.104   4.984  0.7057  1.5567  1.0552
 3332TIP3   OH231486   5.725   5.527   5.477  0.0389 -0.3703  0.1267
 3332TIP3    H131487   5.759   5.478   5.402 -0.6291 -1.2073  0.3574
 3332TIP3    H231488   5.801   5.575   5.511  0.2863  0.2498 -1.2447
 3333TIP3   OH231489   5.961   0.031   3.562 -0.1495  0.0817  0.0308
 3333TIP3    H131490   5.920  -0.012   3.487  1.2809  1.2039 -1.4553
 3333TIP3    H231491   5.913   0.113   3.573 -0.5313 -0.2036  0.5352
 3334TIP3   OH231492   6.168   6.140   1.498 -0.3704  0.0632 -0.3209
 3334TIP3    H131493   6.193   6.078   1.430 -0.2503  1.5349 -1.6706
 3334TIP3    H231494   6.113   6.205   1.454  0.8173  1.8262  0.6364
 3335TIP3   OH231495   0.451   0.659  12.891  0.3009 -0.8580 -0.5377
 3335TIP3    H131496   0.493   0.623  12.969  2.9408  0.2516 -1.3323
 3335TIP3    H231497   0.361   0.675  12.917  1.0621 -0.6225  2.2409
 3336TIP3   OH231498   4.244   3.375   6.203 -0.4908  0.0895 -0.1108
 3336TIP3    H131499   4.188   3.393   6.279 -0.5008  0.3905 -0.1858
 3336TIP3    H231500   4.326   3.419   6.224 -0.1365 -0.6951  0.1812
 3337TIP3   OH231501   0.162   4.987   1.178  0.7345  0.3349  0.2644
 3337TIP3    H131502   0.090   4.975   1.240  0.0906  1.0146 -0.3288
 3337TIP3    H231503   0.158   4.910   1.121  0.6951  0.2029  0.4453
 3338TIP3   OH231504   6.363   3.137   2.346  0.1211 -0.0272 -0.0042
 3338TIP3    H131505   6.293   3.147   2.410 -0.0000  3.2090 -0.4756
 3338TIP3    H231506   6.333   3.185   2.269  1.8857 -0.5685 -1.0944
 3339TIP3   OH231507   4.247   0.816   1.262 -0.0051 -0.0905 -0.2266
 3339TIP3    H131508   4.154   0.796   1.249 -0.0115 -0.4954  0.3759
 3339TIP3    H231509   4.285   0.813   1.175 -0.7801  1.2731 -0.6409
 3340TIP3   OH231510   1.535   4.369   0.304 -0.3226 -0.1237 -0.1012
 3340TIP3    H131511   1.579   4.293   0.265  0.0216  1.2198 -2.5575
 3340TIP3    H231512   1.528   4.348   0.397 -0.4352 -3.2248 -0.7135
 3341TIP3   OH231513   0.377   3.142  15.715  0.7753 -0.2509 -0.0453
 3341TIP3    H131514   0.329   3.061  15.731  1.4800 -0.4066  1.4334
 3341TIP3    H231515   0.319   3.210  15.750 -0.7905  0.1963 -3.1681
 3342TIP3   OH231516   3.689   6.245   0.156  0.1195  0.6362 -0.6116
 3342TIP3    H131517   3.762   6.183   0.160  0.3741  0.9552 -0.2586
 3342TIP3    H231518   3.727   6.327   0.186  0.6799  1.8190 -4.1286
 3343TIP3   OH231519   3.611   1.572   6.568 -0.0630 -0.4520  0.5523
 3343TIP3    H131520   3.632   1.650   6.517 -1.7006  1.0382  2.0129
 3343TIP3    H231521   3.669   1.504   6.533  0.4202  1.0245 -1.7430
 3344TIP3   OH231522   1.812   2.809  12.242  0.0488  0.2525  0.0471
 3344TIP3    H131523   1.718   2.796  12.249  0.2326 -0.8413  0.8347
 3344TIP3    H231524   1.829   2.810  12.147 -0.8104  1.0047 -0.1018
 3345TIP3   OH231525   3.900   5.229   3.213 -0.0800  0.0777 -0.0676
 3345TIP3    H131526   3.955   5.190   3.281  0.5666 -1.0431 -1.1954
 3345TIP3    H231527   3.815   5.240   3.256  0.5736  0.3418  1.2150
 3346TIP3   OH231528   0.281   4.145   1.038  0.9431  0.1136 -0.1653
 3346TIP3    H131529   0.312   4.171   0.951 -3.1552  0.6768 -1.6820
 3346TIP3    H231530   0.273   4.227   1.086  1.9990 -0.0649  0.3397
 3347TIP3   OH231531   5.518   1.067  17.128  0.0543  0.3818  0.1341
 3347TIP3    H131532   5.430   1.051  17.162 -0.5697  1.0915 -1.0947
 3347TIP3    H231533   5.527   1.162  17.131 -0.1036  0.4956 -1.8077
 3348TIP3   OH231534   3.193   3.958   0.433 -0.4946  0.6832 -0.0256
 3348TIP3    H131535   3.284   3.931   0.444  0.0550  2.1734 -0.6566
 3348TIP3    H231536   3.158   3.960   0.522  0.4524  1.2334  0.3485
 3349TIP3   OH231537   3.350   6.593  12.436  0.1414 -0.4208  0.6350
 3349TIP3    H131538   3.410   6.594  12.511 -1.0338  1.0330  1.5965
 3349TIP3    H231539   3.350   6.682  12.403 -1.8753 -0.2404  0.9950
 3350TIP3   OH231540   0.843   4.583   3.016 -0.2122 -0.0219 -0.3785
 3350TIP3    H131541   0.814   4.545   3.098 -0.1036  1.8020  0.5467
 3350TIP3    H231542   0.858   4.507   2.958  0.7418 -1.4152  1.5922
 3351TIP3   OH231543   5.843   5.619  15.696  0.1996  0.0500  0.1863
 3351TIP3    H131544   5.934   5.597  15.676 -0.1553 -2.0261  0.6619
 3351TIP3    H231545   5.817   5.555  15.762 -2.0079 -0.2266 -0.8743
 3352TIP3   OH231546   4.582   4.673  15.375 -0.1445 -0.2157 -0.3173
 3352TIP3    H131547   4.637   4.690  15.299 -0.6599 -1.0541 -0.8962
 3352TIP3    H231548   4.551   4.584  15.363 -2.4843  0.5667 -0.5839
 3353TIP3   OH231549   0.911   3.678  15.496  0.3294 -0.3152 -0.4515
 3353TIP3    H131550   0.838   3.729  15.533  1.5310  1.7507 -0.7496
 3353TIP3    H231551   0.896   3.681  15.401  1.3138  1.0735 -0.6023
 3354TIP3   OH231552   6.114   4.057  16.706 -0.1536 -0.7377  0.5048
 3354TIP3    H131553   6.076   4.072  16.792 -0.8098 -1.2443  0.3057
 3354TIP3    H231554   6.100   3.964  16.689  1.4316 -1.0199  0.5477
 3355TIP3   OH231555   5.682   5.378   1.395 -0.6618  0.2589 -0.3823
 3355TIP3    H131556   5.652   5.304   1.448  0.7837  0.3326  0.5970
 3355TIP3    H231557   5.606   5.404   1.344 -1.7182 -0.7019  0.6594
 3356TIP3   OH231558   6.405   3.851   0.587  0.1695 -0.2990  0.1438
 3356TIP3    H131559   6.381   3.823   0.499 -0.8857 -0.0628  0.3412
 3356TIP3    H231560   6.498   3.830   0.595  0.2048 -0.5779 -0.9209
 3357TIP3   OH231561   4.031   4.385   2.001 -0.3750 -0.0828 -0.4492
 3357TIP3    H131562   4.070   4.446   1.939  0.7227 -1.0526 -0.7491
 3357TIP3    H231563   4.045   4.299   1.961  0.4790 -0.7480  1.1943
 3358TIP3   OH231564   1.624   6.107  14.610  0.3577  0.3342  0.5263
 3358TIP3    H131565   1.645   6.121  14.518 -1.3404 -0.9658 -0.1182
 3358TIP3    H231566   1.566   6.180  14.632 -0.7703 -0.3585 -0.0316
 3359TIP3   OH231567   6.410   6.252   1.510 -0.0386  0.1032 -0.2787
 3359TIP3    H131568   6.329   6.202   1.509  0.6083 -1.0011 -1.7562
 3359TIP3    H231569   6.382   6.343   1.512 -1.2866 -0.2701  0.2101
 3360TIP3   OH231570   0.744   5.231   4.826 -0.3755  0.2553 -0.1252
 3360TIP3    H131571   0.742   5.194   4.737  2.3505 -0.0472 -0.1447
 3360TIP3    H231572   0.685   5.306   4.822 -3.4223 -1.9672 -1.0400
 3361TIP3   OH231573   5.589   1.551   5.924  0.0342  0.0118  0.3091
 3361TIP3    H131574   5.602   1.502   6.005  1.7540 -0.7197 -0.3631
 3361TIP3    H231575   5.531   1.495   5.872 -0.5985  0.2125  0.7793
 3362TIP3   OH231576   5.663   3.184  13.621  0.0629  0.0595 -0.0118
 3362TIP3    H131577   5.750   3.149  13.643  0.4201  0.1401 -1.2551
 3362TIP3    H231578   5.640   3.238  13.696  0.0312 -1.8463  1.4346
 3363TIP3   OH231579   4.006   6.544   2.302  0.1421  0.1390  0.1265
 3363TIP3    H131580   4.081   6.548   2.242 -1.0912  1.0908 -1.4433
 3363TIP3    H231581   4.008   6.455   2.337  1.0985 -0.3502 -1.0893
 3364TIP3   OH231582   3.237   0.083  15.354  0.1418  0.3896  0.1898
 3364TIP3    H131583   3.174   0.040  15.297  1.3107 -0.4614 -0.5041
 3364TIP3    H231584   3.245   0.024  15.429 -0.4931  0.9093  0.6752
 3365TIP3   OH231585   5.424   0.059  13.835  0.4312  0.2598 -0.3057
 3365TIP3    H131586   5.372  -0.019  13.853  1.3324 -0.5936 -1.2698
 3365TIP3    H231587   5.368   0.114  13.780 -0.4613  0.6378  0.9284
 3366TIP3   OH231588   0.631   4.854  14.905  0.1624 -0.2900 -0.2175
 3366TIP3    H131589   0.664   4.854  14.816  0.2661  1.8499 -0.2319
 3366TIP3    H231590   0.536   4.867  14.896 -0.3834 -3.3133 -0.0605
 3367TIP3   OH231591   6.356   5.336   3.175  0.1141 -0.0533  0.2309
 3367TIP3    H131592   6.317   5.402   3.118 -2.4911 -0.3920  1.4289
 3367TIP3    H231593   6.440   5.316   3.135  0.3150  2.7993 -1.0461
 3368TIP3   OH231594   0.540   5.575  16.203 -0.3962  0.3493  0.1624
 3368TIP3    H131595   0.592   5.501  16.173 -2.3712 -0.3727 -1.8061
 3368TIP3    H231596   0.530   5.562  16.297  1.2170 -0.5918  0.2280
 3369TIP3   OH231597   4.500   1.674   5.484  0.5431  0.1836  0.1819
 3369TIP3    H131598   4.515   1.717   5.400  0.6452 -0.5554 -0.1856
 3369TIP3    H231599   4.569   1.608   5.490  0.5879  0.2860  0.8894
 3370TIP3   OH231600   0.521   2.810   1.070 -0.7472 -0.1275 -0.1359
 3370TIP3    H131601   0.514   2.875   1.139 -1.4049 -2.6322  2.3364
 3370TIP3    H231602   0.431   2.797   1.040 -0.7138 -0.3294 -0.1527
 3371TIP3   OH231603   5.597   6.494  16.913 -0.2888 -0.4435  0.9011
 3371TIP3    H131604   5.658   6.468  16.981 -0.7236  1.7958  2.2471
 3371TIP3    H231605   5.640   6.567  16.869 -1.7734  0.9029  1.6097
 3372TIP3   OH231606   2.617   3.862   5.642 -0.1063  0.0100 -0.2892
 3372TIP3    H131607   2.559   3.794   5.676 -0.6827  1.2731  1.3743
 3372TIP3    H231608   2.600   3.938   5.697  2.9244  0.5268  0.1181
 3373TIP3   OH231609   5.682   4.387  11.926 -0.5255 -1.0684  0.6006
 3373TIP3    H131610   5.660   4.345  12.009 -0.1811 -2.4174  0.0258
 3373TIP3    H231611   5.626   4.344  11.861  1.4390 -2.3138 -0.3644
 3374TIP3   OH231612   4.421   0.903   2.685 -0.6815  0.1360  0.7911
 3374TIP3    H131613   4.357   0.869   2.623  0.4449 -0.6441  0.0123
 3374TIP3    H231614   4.406   0.854   2.765 -2.1429  1.1420  1.1614
 3375TIP3   OH231615   1.371   1.544   3.333 -0.3250 -0.2671  0.1447
 3375TIP3    H131616   1.425   1.510   3.263  0.9231  0.1614  0.8708
 3375TIP3    H231617   1.310   1.604   3.290  1.7074  1.5099 -0.3876
 3376TIP3   OH231618   2.578   3.989   2.804  0.0616 -0.3133  0.1095
 3376TIP3    H131619   2.599   4.081   2.814  1.4286 -0.4505 -1.1452
 3376TIP3    H231620   2.627   3.944   2.873 -0.5055 -0.1379  0.6394
 3377TIP3   OH231621   3.692   5.881  14.822 -0.1352 -0.7323 -0.4017
 3377TIP3    H131622   3.712   5.805  14.767  0.7651 -1.2438  0.5914
 3377TIP3    H231623   3.743   5.867  14.902  0.2457  1.0587 -0.2930
 3378TIP3   OH231624   5.223   1.188  13.269 -0.3493  0.1964  0.0913
 3378TIP3    H131625   5.225   1.194  13.174  1.1011  0.7229  0.1367
 3378TIP3    H231626   5.272   1.109  13.289 -0.8346 -0.0300  0.3963
 3379TIP3   OH231627   3.003   6.633  16.692  0.3266  0.6645  0.2458
 3379TIP3    H131628   2.924   6.591  16.725  0.0610  2.2178  1.7195
 3379TIP3    H231629   3.070   6.565  16.698 -0.8302 -0.6894 -1.0431
 3380TIP3   OH231630   4.367   3.290  15.910  0.4027  0.2296  0.6594
 3380TIP3    H131631   4.448   3.240  15.903  1.2220  1.5852  0.0138
 3380TIP3    H231632   4.367   3.347  15.833 -1.5278 -0.2468  0.2657
 3381TIP3   OH231633   5.635   4.157   5.876  0.4508  0.0885 -0.4712
 3381TIP3    H131634   5.582   4.094   5.826  0.1288 -0.7777  0.9034
 3381TIP3    H231635   5.581   4.236   5.879 -0.6585 -0.6528  0.5796
 3382TIP3   OH231636   4.472   2.531   3.422  0.7959 -0.0399  0.1748
 3382TIP3    H131637   4.459   2.478   3.501  1.1319 -0.4471 -0.0345
 3382TIP3    H231638   4.518   2.609   3.452 -1.7594  1.2892  0.8847
 3383TIP3   OH231639   1.276   6.468  15.776 -0.2201  0.1120 -0.4170
 3383TIP3    H131640   1.325   6.544  15.747 -0.5651  0.5428  0.1185
 3383TIP3    H231641   1.341   6.414  15.822  0.0051  0.1156 -0.7253
 3384TIP3   OH231642   6.628   6.375   1.998 -0.3450 -0.0839 -0.2529
 3384TIP3    H131643   6.610   6.371   1.905 -0.3341  0.1695 -0.2672
 3384TIP3    H231644   6.707   6.322   2.010  0.3324  0.8239 -0.5684
 3385TIP3   OH231645   1.909   1.517  16.263  0.1586 -0.5251  0.5058
 3385TIP3    H131646   1.981   1.534  16.203 -0.4507  1.9231  0.3582
 3385TIP3    H231647   1.841   1.477  16.209  0.3891 -0.3201  0.0589
 3386TIP3   OH231648   2.150   5.755  16.201 -0.5920  0.7692 -0.1781
 3386TIP3    H131649   2.078   5.695  16.219 -1.2027  1.3649 -0.5736
 3386TIP3    H231650   2.188   5.773  16.287 -0.3348 -0.2486 -0.0692
 3387TIP3   OH231651   0.809   0.021  14.692  0.3658  0.4495 -0.1096
 3387TIP3    H131652   0.883   0.028  14.752  1.6215  0.6535 -1.5954
 3387TIP3    H231653   0.789  -0.072  14.688  0.9626  0.3181 -0.1502
 3388TIP3   OH231654   3.874   2.152  17.101  0.6057  0.0527  0.1563
 3388TIP3    H131655   3.958   2.176  17.061  2.1069 -1.1132  2.4315
 3388TIP3    H231656   3.859   2.062  17.072 -0.2917  0.5007 -0.8446
 3389TIP3   OH231657   3.282   4.232   5.362  0.0213 -0.7392 -0.4899
 3389TIP3    H131658   3.214   4.178   5.322 -2.5692  1.9079  0.0033
 3389TIP3    H231659   3.276   4.212   5.456 -0.3629 -0.2400 -0.4038
 3390TIP3   OH231660   1.778   5.316  14.849  1.0899 -0.0243  0.4164
 3390TIP3    H131661   1.789   5.360  14.933 -0.0038  1.5981 -0.2299
 3390TIP3    H231662   1.709   5.366  14.805  1.6167 -0.8506 -1.4416
 3391TIP3   OH231663   3.439   1.034   5.166 -1.2326  0.4196  0.2702
 3391TIP3    H131664   3.395   0.952   5.144 -1.9778  0.6282  0.9528
 3391TIP3    H231665   3.447   1.080   5.082 -1.5543  0.0118  0.0130
 3392TIP3   OH231666   0.538   6.552  16.868  0.4344 -0.0321  0.4203
 3392TIP3    H131667   0.550   6.473  16.922  2.5176 -0.0554  0.0100
 3392TIP3    H231668   0.451   6.541  16.829 -0.4169 -0.8450  2.3824
 3393TIP3   OH231669   0.367   4.133  14.954 -0.3546 -0.1097 -0.1651
 3393TIP3    H131670   0.315   4.071  15.006  2.2446 -2.0973  0.3178
 3393TIP3    H231671   0.425   4.175  15.018  0.3901  0.1003 -0.9544
 3394TIP3   OH231672   5.149   2.844  14.034  0.1695 -0.0071 -0.2663
 3394TIP3    H131673   5.073   2.902  14.024 -0.0093 -0.0409  0.7649
 3394TIP3    H231674   5.196   2.880  14.110 -0.1064 -1.3636  0.5833
 3395TIP3   OH231675   3.880   6.161  13.054 -0.1715  0.7129  0.4215
 3395TIP3    H131676   3.868   6.250  13.022  0.7936  0.5271 -0.4915
 3395TIP3    H231677   3.935   6.119  12.988  1.1639  0.0552  1.8985
 3396TIP3   OH231678   5.086   0.210  16.698  0.7401  0.4250  0.0889
 3396TIP3    H131679   5.036   0.162  16.632  2.7330 -0.7965 -0.6086
 3396TIP3    H231680   5.116   0.144  16.760 -0.7176  1.4954  2.0687
 3397TIP3   OH231681   6.493   1.413   4.446 -0.2121  0.1543  0.0719
 3397TIP3    H131682   6.429   1.357   4.491  0.1927 -0.6922 -0.3761
 3397TIP3    H231683   6.526   1.471   4.515 -1.9494  1.0868  0.1663
 3398TIP3   OH231684   4.615   0.704  12.702 -0.5377  0.3561  0.4327
 3398TIP3    H131685   4.585   0.665  12.620  3.1326 -1.5050 -0.2364
 3398TIP3    H231686   4.620   0.797  12.684 -1.9614  0.2663 -0.6316
 3399TIP3   OH231687   3.265   1.178   2.177 -0.0284 -0.8283  0.4952
 3399TIP3    H131688   3.176   1.160   2.207  0.3312 -1.8526  0.9938
 3399TIP3    H231689   3.295   1.250   2.233 -1.4562  1.4492 -1.4695
 3400TIP3   OH231690   4.577   6.265   6.031  0.3116  0.0313 -0.4743
 3400TIP3    H131691   4.538   6.201   6.090 -2.8187  1.3139 -0.9951
 3400TIP3    H231692   4.616   6.212   5.961 -2.0421 -1.3887 -0.8189
 3401TIP3   OH231693   2.251   6.299  14.771 -0.1623  0.3783  1.3033
 3401TIP3    H131694   2.321   6.263  14.825  0.2902  0.4690  0.7870
 3401TIP3    H231695   2.258   6.394  14.782  0.7246  0.4777  0.1553
 3402TIP3   OH231696   3.244   1.537   2.164 -0.2234  0.1535 -0.0281
 3402TIP3    H131697   3.297   1.459   2.145  0.2965  0.1684  1.2749
 3402TIP3    H231698   3.205   1.560   2.080  0.8382 -0.6106 -0.7582
 3403TIP3   OH231699   4.720   4.073  10.977  0.3914 -0.5249  0.2212
 3403TIP3    H131700   4.655   4.006  10.998 -1.0920  0.3979 -1.1305
 3403TIP3    H231701   4.738   4.061  10.884  1.5898 -0.2624  0.4044
 3404TIP3   OH231702   3.255   5.410  13.811  0.3966  1.5595 -0.7050
 3404TIP3    H131703   3.270   5.319  13.788 -0.4957  0.9759  0.8333
 3404TIP3    H231704   3.336   5.439  13.853  1.1821  1.9273 -2.4145
 3405TIP3   OH231705   0.282   1.614  13.522 -0.3737 -0.9753 -0.6246
 3405TIP3    H131706   0.212   1.606  13.457  0.0733  1.2900 -1.4765
 3405TIP3    H231707   0.236   1.625  13.605 -1.0043 -0.5900 -1.0195
 3406TIP3   OH231708   2.495   6.345  15.336 -0.2332 -0.3260  0.7027
 3406TIP3    H131709   2.547   6.266  15.346 -0.8141 -0.7531  0.3930
 3406TIP3    H231710   2.412   6.315  15.299 -0.2703  0.4907  0.0953
 3407TIP3   OH231711   5.559   2.883   3.578  0.5291  0.1822  0.0869
 3407TIP3    H131712   5.476   2.855   3.616  0.7763 -1.2996 -0.4036
 3407TIP3    H231713   5.621   2.883   3.652  0.5069 -0.5046  0.1055
 3408TIP3   OH231714   3.915   1.792   5.902  0.6276  0.5970  0.4478
 3408TIP3    H131715   3.947   1.882   5.890 -0.2993  1.1405  1.7180
 3408TIP3    H231716   3.871   1.771   5.820  0.1653  1.6242  0.4129
 3409TIP3   OH231717   2.931   2.125  12.420 -0.1589 -0.8839 -0.0572
 3409TIP3    H131718   2.896   2.066  12.354  0.7700  0.1818 -1.5671
 3409TIP3    H231719   3.015   2.154  12.385  0.2830 -0.1310  1.5160
 3410TIP3   OH231720   0.480   1.682   3.814 -0.1974 -0.0808 -0.0098
 3410TIP3    H131721   0.478   1.590   3.841  0.2293 -0.6318 -1.7590
 3410TIP3    H231722   0.567   1.712   3.840  0.0596 -0.4802 -0.4034
 3411TIP3   OH231723   6.572   1.199   1.701 -0.2025  0.1620  0.1034
 3411TIP3    H131724   6.588   1.184   1.608 -0.6528 -2.1206  0.3380
 3411TIP3    H231725   6.592   1.292   1.715 -1.0114  0.7870 -2.4395
 3412TIP3   OH231726   0.756   0.588   2.282 -0.2885 -0.8356  0.4406
 3412TIP3    H131727   0.725   0.590   2.192 -3.3707 -0.6550  1.3859
 3412TIP3    H231728   0.684   0.550   2.332  1.1815 -0.6581  2.8856
 3413TIP3   OH231729   3.931   6.034  16.383  0.1392  0.0737 -0.1944
 3413TIP3    H131730   3.892   6.120  16.370 -0.0511  0.1504  0.8127
 3413TIP3    H231731   3.932   5.995  16.296 -0.2296  0.8978 -0.5808
 3414TIP3   OH231732   5.164   4.247   6.558  0.4852 -0.2449 -0.3151
 3414TIP3    H131733   5.223   4.319   6.583  0.4147 -0.4478  0.4660
 3414TIP3    H231734   5.097   4.246   6.626 -0.4355 -0.0192 -1.1971
 3415TIP3   OH231735   6.254   4.569   3.985  0.5883 -0.1752 -0.0768
 3415TIP3    H131736   6.166   4.582   4.020  0.3017 -1.2347 -0.3606
 3415TIP3    H231737   6.312   4.573   4.061  0.4509  1.7375 -0.0329
 3416TIP3   OH231738   0.281   3.910  11.115 -0.1376  0.7820 -0.5993
 3416TIP3    H131739   0.323   3.899  11.200 -1.6488  1.8676  0.3537
 3416TIP3    H231740   0.239   3.826  11.097 -0.2697  0.7105  0.0189
 3417TIP3   OH231741   0.760   1.071   4.257 -0.1637 -0.2365 -0.0907
 3417TIP3    H131742   0.667   1.058   4.240 -0.3109 -0.2385  0.7131
 3417TIP3    H231743   0.777   1.024   4.338  0.0579  1.5548  0.9568
 3418TIP3   OH231744   0.871   5.532  13.771 -0.1607 -0.3501 -0.5083
 3418TIP3    H131745   0.888   5.626  13.770  4.0733 -0.7800  2.4417
 3418TIP3    H231746   0.941   5.494  13.718 -0.1259 -1.8622  0.5422
 3419TIP3   OH231747   5.567   0.223  14.022 -0.4188 -0.3941  0.7430
 3419TIP3    H131748   5.511   0.175  13.961  1.5360 -0.4900 -1.0537
 3419TIP3    H231749   5.607   0.156  14.076 -0.8301 -0.4298  1.0147
 3420TIP3   OH231750   0.249   2.348   3.269  0.2262 -0.0097 -0.2469
 3420TIP3    H131751   0.263   2.254   3.282  0.6054  0.2098  1.0421
 3420TIP3    H231752   0.337   2.384   3.260  0.0403 -0.0913 -3.5028
 3421TIP3   OH231753   5.452   1.491   4.861 -0.0935 -0.4236 -0.2275
 3421TIP3    H131754   5.544   1.489   4.890  0.1548  0.0289 -0.9737
 3421TIP3    H231755   5.407   1.540   4.930  0.0732 -1.3086  0.5334
 3422TIP3   OH231756   2.650   2.867  15.556  0.5873  0.4945  0.0894
 3422TIP3    H131757   2.577   2.809  15.533 -0.1429  1.1681  0.6695
 3422TIP3    H231758   2.710   2.811  15.606  1.1394 -0.4145 -1.5015
 3423TIP3   OH231759   3.471   6.820   2.492  0.1260  0.3557  0.3043
 3423TIP3    H131760   3.538   6.810   2.559  1.1672  0.7737 -0.6467
 3423TIP3    H231761   3.395   6.855   2.539  0.0554 -1.4579  1.6593
 3424TIP3   OH231762   2.701   3.132   3.747 -0.0046  0.1633  0.2235
 3424TIP3    H131763   2.636   3.115   3.815 -2.4858  1.0780 -1.7950
 3424TIP3    H231764   2.765   3.189   3.790  0.8686 -2.5797  2.9336
 3425TIP3   OH231765   5.065   1.083  14.657 -0.6302  0.3950 -0.4782
 3425TIP3    H131766   5.092   1.166  14.618 -1.0762  1.1323  0.7203
 3425TIP3    H231767   5.113   1.079  14.740 -0.5501 -0.5973 -0.5624
 3426TIP3   OH231768   3.066   2.558  11.136  0.1921 -0.0028 -0.5326
 3426TIP3    H131769   2.999   2.627  11.130 -0.6728 -0.8056 -0.3371
 3426TIP3    H231770   3.146   2.604  11.163 -0.5258  0.8420  0.2161
 3427TIP3   OH231771   3.062   2.806   4.052 -0.4166 -0.2396 -0.2442
 3427TIP3    H131772   3.057   2.875   4.118 -1.3623  1.1849 -1.7467
 3427TIP3    H231773   3.132   2.834   3.993  2.6759 -3.0552  1.7432
 3428TIP3   OH231774   1.063   1.390  16.031  0.8425  0.5269  0.1637
 3428TIP3    H131775   1.096   1.347  16.110 -0.3282  0.0412  0.4100
 3428TIP3    H231776   0.968   1.379  16.036  0.6217  1.9075 -0.4937
 3429TIP3   OH231777   0.209   2.813  10.589 -0.1600  0.9822 -0.4560
 3429TIP3    H131778   0.157   2.746  10.545  0.5577 -0.3873  0.6731
 3429TIP3    H231779   0.284   2.827  10.531 -0.7189  1.4329 -1.0853
 3430TIP3   OH231780   6.421   2.315   1.276  0.1406  0.5355 -0.7840
 3430TIP3    H131781   6.433   2.386   1.339 -0.4867  1.5451 -1.7604
 3430TIP3    H231782   6.502   2.315   1.224  0.2033  0.4212 -0.6888
 3431TIP3   OH231783   2.613   6.034   2.034  0.0300 -0.4472  0.6115
 3431TIP3    H131784   2.707   6.030   2.051  0.5095  0.9561 -1.3477
 3431TIP3    H231785   2.577   6.083   2.108  1.4371  2.2412 -0.3633
 3432TIP3   OH231786   6.562   3.836   4.622  0.4380  0.6258 -0.3360
 3432TIP3    H131787   6.526   3.924   4.636 -1.1751  0.0140 -0.4643
 3432TIP3    H231788   6.488   3.785   4.591  1.5413 -0.6036 -1.0257
 3433TIP3   OH231789   1.139   2.671   3.362 -0.2411  0.0950  0.3317
 3433TIP3    H131790   1.107   2.753   3.325 -0.3715  0.4579  1.2243
 3433TIP3    H231791   1.071   2.644   3.424 -0.4431 -0.9660 -0.3244
 3434TIP3   OH231792   4.639   1.589   6.013  0.2732  0.2013 -0.1895
 3434TIP3    H131793   4.693   1.510   6.007  1.3514  0.9752 -1.0756
 3434TIP3    H231794   4.634   1.608   6.107 -0.3622 -1.1368  0.0746
 3435TIP3   OH231795   2.779   5.289  13.391  0.1269 -0.1008 -0.0198
 3435TIP3    H131796   2.809   5.307  13.302 -0.4027 -0.7674 -0.3456
 3435TIP3    H231797   2.757   5.196  13.391  0.3449 -0.1676  0.8796
 3436TIP3   OH231798   2.940   6.323  14.990 -0.0495  0.4813 -0.3035
 3436TIP3    H131799   2.881   6.332  14.915  0.9457 -0.5152 -1.2399
 3436TIP3    H231800   2.963   6.230  14.992  1.3886  0.8196  0.1067
 3437TIP3   OH231801   4.811   0.944  13.282 -0.0581 -0.1300 -0.2440
 3437TIP3    H131802   4.728   0.926  13.325 -0.4528  1.5928 -0.2034
 3437TIP3    H231803   4.826   1.038  13.297  0.0755  0.4442 -3.3145
 3438TIP3   OH231804   6.506   0.086   6.443 -0.0553 -0.1350 -0.4309
 3438TIP3    H131805   6.545   0.173   6.434 -1.9072  0.7224 -0.7749
 3438TIP3    H231806   6.441   0.096   6.513 -1.8188 -0.6084 -1.9174
 3439TIP3   OH231807   2.100   0.485  12.450  0.3712  0.1184  0.8927
 3439TIP3    H131808   2.187   0.445  12.450  0.5334  0.3896 -0.7457
 3439TIP3    H231809   2.044   0.420  12.409  0.4380  1.1169 -0.8774
 3440TIP3   OH231810   5.841   0.630  11.497 -0.5124  0.3897 -0.2285
 3440TIP3    H131811   5.900   0.558  11.474 -0.7290  0.5383 -1.3039
 3440TIP3    H231812   5.864   0.652  11.587  0.8060  0.1816 -0.4915
 3441TIP3   OH231813   4.406   5.227  15.537  0.3764 -0.0733  0.3180
 3441TIP3    H131814   4.426   5.301  15.480  0.8687 -1.3925 -1.3356
 3441TIP3    H231815   4.322   5.194  15.504 -0.2906  0.2695  1.6186
 3442TIP3   OH231816   2.311   0.578  15.327  0.0379 -0.6022 -0.4674
 3442TIP3    H131817   2.401   0.606  15.310  0.5247 -0.4314  1.9330
 3442TIP3    H231818   2.260   0.659  15.325  0.0770 -0.5886 -1.0278
 3443TIP3   OH231819   3.686   2.199  14.615 -0.3873 -0.2821 -0.3333
 3443TIP3    H131820   3.729   2.174  14.534  1.5617  0.2727  0.4796
 3443TIP3    H231821   3.623   2.129  14.631  0.3448 -1.2390 -1.4689
 3444TIP3   OH231822   5.704   2.230   3.618 -0.3645 -0.4013 -0.0794
 3444TIP3    H131823   5.763   2.252   3.690  0.3219 -0.1004 -0.7144
 3444TIP3    H231824   5.646   2.163   3.654  1.2478 -1.7357  0.1828
 3445TIP3   OH231825   2.068   6.451  16.932  0.2553 -0.6270  0.1131
 3445TIP3    H131826   2.008   6.377  16.941 -0.2935 -0.3044 -0.7596
 3445TIP3    H231827   2.051   6.505  17.010 -1.0596 -0.2178 -0.4316
 3446TIP3   OH231828   3.282   2.272   4.595 -0.1479  0.0546 -0.5361
 3446TIP3    H131829   3.198   2.248   4.557 -1.0802  0.8980  0.9104
 3446TIP3    H231830   3.262   2.294   4.686  1.8404 -0.9827  0.2086
 3447TIP3   OH231831   0.433   3.263  14.459  0.4688 -0.1829 -0.2366
 3447TIP3    H131832   0.461   3.183  14.415  1.0442  1.8038 -3.9031
 3447TIP3    H231833   0.513   3.313  14.471  0.1165 -0.0452  1.9713
 3448TIP3   OH231834   4.248   4.036  15.583 -0.2915  0.1955 -0.0489
 3448TIP3    H131835   4.157   4.040  15.554 -0.6851 -0.4125  1.0330
 3448TIP3    H231836   4.262   3.943  15.605  0.9362  0.0588 -1.2454
 3449TIP3   OH231837   5.955   2.921   6.113 -0.4698 -0.5141 -0.6095
 3449TIP3    H131838   5.920   2.867   6.043  1.5228  0.1746 -2.2255
 3449TIP3    H231839   6.042   2.946   6.084 -0.1122  1.0031  1.4808
 3450TIP3   OH231840   1.578   2.493  16.211 -0.0538  0.2852 -0.0541
 3450TIP3    H131841   1.616   2.500  16.299 -2.2254 -2.5662  1.2656
 3450TIP3    H231842   1.628   2.423  16.169  0.3486  0.9826 -0.7474
 3451TIP3   OH231843   0.058   3.408   4.632  0.8188  0.3588 -0.4394
 3451TIP3    H131844   0.035   3.416   4.724  0.0337  2.2083 -0.7418
 3451TIP3    H231845   0.144   3.366   4.632 -0.2547 -2.0009  0.9737
 3452TIP3   OH231846   1.245   2.916   5.516 -0.0105  0.2066 -0.0778
 3452TIP3    H131847   1.193   2.987   5.552  0.9910  0.2467  1.3681
 3452TIP3    H231848   1.297   2.958   5.447  2.3121  1.5429  2.2701
 3453TIP3   OH231849   3.040   5.117   0.058  0.1220 -0.1151 -0.0149
 3453TIP3    H131850   3.019   5.166   0.137  1.6100  0.2987  0.1490
 3453TIP3    H231851   3.127   5.081   0.074 -0.0050 -0.9330 -1.0343
 3454TIP3   OH231852   0.322   6.592   1.572  0.4177 -0.4493  0.0022
 3454TIP3    H131853   0.269   6.575   1.494  1.2937  1.0473 -0.9792
 3454TIP3    H231854   0.407   6.555   1.551 -0.3759 -3.7155  1.9552
 3455TIP3   OH231855   4.993   3.759   2.116  0.2465 -0.3167 -0.0912
 3455TIP3    H131856   4.985   3.854   2.111  0.2534 -0.2470  0.9721
 3455TIP3    H231857   5.085   3.742   2.095  0.2044 -0.1136 -0.4610
 3456TIP3   OH231858   4.783   0.182   0.152  0.3261  0.7082  0.3681
 3456TIP3    H131859   4.850   0.118   0.177 -1.2106 -1.2523 -0.2564
 3456TIP3    H231860   4.790   0.187   0.057 -0.9157 -0.1713  0.2065
 3457TIP3   OH231861   3.868   3.096   0.782  0.3050  0.2947  0.4622
 3457TIP3    H131862   3.909   3.128   0.702  0.8338 -1.0601  0.1820
 3457TIP3    H231863   3.929   3.032   0.817 -2.1995 -3.1556 -0.8983
 3458TIP3   OH231864   5.413   4.079   2.380  0.1574  0.6023 -0.1514
 3458TIP3    H131865   5.360   4.076   2.300  0.1663  0.3972 -0.1511
 3458TIP3    H231866   5.441   4.170   2.387  0.1674  0.6182 -0.3897
 3459TIP3   OH231867   3.487   5.353   2.245 -0.1145 -0.2031 -0.2317
 3459TIP3    H131868   3.439   5.270   2.245  1.1103 -0.9740  1.2012
 3459TIP3    H231869   3.579   5.327   2.257  0.5627  1.2659 -1.8976
 3460TIP3   OH231870   3.061   2.880  17.249 -0.0109  0.0666  0.3581
 3460TIP3    H131871   2.974   2.888  17.210  0.0003  0.3465  0.3907
 3460TIP3    H231872   3.120   2.875  17.173  0.1927  2.4417  0.2846
 3461TIP3   OH231873   0.109   1.024  16.806  0.2182 -0.5406 -0.1696
 3461TIP3    H131874   0.061   1.090  16.757 -2.3243 -2.2071 -0.0961
 3461TIP3    H231875   0.119   0.951  16.745  0.8093 -1.0176  0.4834
 3462TIP3   OH231876   0.947   1.180   0.922  0.0999  0.6111 -0.3258
 3462TIP3    H131877   0.903   1.099   0.947 -3.1250  2.9534  2.5453
 3462TIP3    H231878   0.929   1.190   0.828 -1.3422 -0.9382 -0.2568
 3463TIP3   OH231879   4.660   2.720   2.165 -0.3600 -0.3971  0.1029
 3463TIP3    H131880   4.667   2.626   2.147  1.6861 -0.0354 -1.3107
 3463TIP3    H231881   4.704   2.732   2.249  0.7274 -0.5375 -0.4301
 3464TIP3   OH231882   1.787   1.346   2.775 -0.1119  0.4710 -0.8335
 3464TIP3    H131883   1.844   1.269   2.780 -0.7115  0.0786  0.2055
 3464TIP3    H231884   1.820   1.395   2.700 -0.7966 -1.6889 -2.6674
 3465TIP3   OH231885   5.514   4.538  17.163 -0.5108 -0.0011 -0.1866
 3465TIP3    H131886   5.514   4.632  17.144  0.8114 -0.1219 -0.8532
 3465TIP3    H231887   5.594   4.523  17.213 -0.3231 -0.9048 -0.7401
 3466TIP3   OH231888   3.944   0.085  11.578  0.2327  0.0069  0.6623
 3466TIP3    H131889   3.967   0.172  11.610  1.1726 -0.7311  2.0660
 3466TIP3    H231890   4.028   0.042  11.562 -0.1268  0.3093 -2.9560
 3467TIP3   OH231891   4.696   2.975  12.441 -0.3690 -0.5081  0.2300
 3467TIP3    H131892   4.778   3.001  12.399  0.4750  0.5659  2.4137
 3467TIP3    H231893   4.694   2.880  12.432  1.0039 -0.5308 -0.0358
 3468TIP3   OH231894   1.573   1.577  12.314 -0.1038 -0.1868 -0.6602
 3468TIP3    H131895   1.535   1.539  12.393  1.8601 -0.2500  0.3185
 3468TIP3    H231896   1.551   1.515  12.244 -1.8107 -0.1622 -0.1895
 3469TIP3   OH231897   5.466   0.855  14.745 -0.0435 -0.5642 -0.1365
 3469TIP3    H131898   5.554   0.824  14.725  0.5031 -0.3576  1.8322
 3469TIP3    H231899   5.434   0.890  14.662  2.1826  0.4858 -0.6159
 3470TIP3   OH231900   2.314   3.744  14.658 -0.5658  0.5168 -0.3356
 3470TIP3    H131901   2.339   3.795  14.736 -0.4489  0.5752 -0.4111
 3470TIP3    H231902   2.390   3.751  14.600 -0.0783 -0.7043  0.1283
 3471TIP3   OH231903   6.184   2.707   0.762  0.1817 -0.1761  0.0894
 3471TIP3    H131904   6.196   2.708   0.667  0.6896 -0.5403  0.1469
 3471TIP3    H231905   6.202   2.797   0.789  1.4841 -0.3971  0.0026
 3472TIP3   OH231906   1.412   4.423   6.022 -0.0728 -0.3046 -0.3151
 3472TIP3    H131907   1.494   4.410   5.975 -0.3916  1.1400 -1.3205
 3472TIP3    H231908   1.434   4.405   6.114  1.4722  0.3932 -0.5204
 3473TIP3   OH231909   2.306   2.077   5.095  0.4777 -0.1112  0.5301
 3473TIP3    H131910   2.330   2.136   5.024  2.5008  0.2208  1.3918
 3473TIP3    H231911   2.301   1.991   5.054 -0.5254  0.3553 -0.3769
 3474TIP3   OH231912   4.056   5.300  17.032  0.1978  0.7378  0.3038
 3474TIP3    H131913   4.071   5.340  16.946  0.1079  3.0989  1.2959
 3474TIP3    H231914   3.962   5.306  17.046  0.0800 -0.5432  0.2010
 3475TIP3   OH231915   3.762   1.916   3.533 -0.3026 -0.1135  0.5636
 3475TIP3    H131916   3.840   1.908   3.588  0.3596 -1.0847 -0.4910
 3475TIP3    H231917   3.790   1.971   3.460  0.3777 -2.8542 -1.4134
 3476TIP3   OH231918   0.583   0.798  14.604 -0.1007  0.4948  0.1187
 3476TIP3    H131919   0.566   0.803  14.510  0.3222  0.2397  0.0247
 3476TIP3    H231920   0.518   0.735  14.637  0.3090 -0.0810 -0.1491
 3477TIP3   OH231921   2.497   5.754   6.597  0.0734  0.2631  0.2134
 3477TIP3    H131922   2.412   5.777   6.635 -1.1059 -2.2375 -0.6443
 3477TIP3    H231923   2.494   5.787   6.508 -0.5697 -0.8559 -0.2083
 3478TIP3   OH231924   1.363   6.337  14.875 -0.0939 -0.1617 -0.2379
 3478TIP3    H131925   1.271   6.317  14.893  0.0341 -1.4827 -0.9024
 3478TIP3    H231926   1.370   6.336  14.780  0.4275  0.8910 -0.2256
 3479TIP3   OH231927   4.358   1.845   6.791 -0.4869  0.6452  0.4618
 3479TIP3    H131928   4.329   1.904   6.860  1.3817  3.0101 -0.6652
 3479TIP3    H231929   4.444   1.815   6.819 -1.6279 -2.1806  1.3052
 3480TIP3   OH231930   2.268   4.857  11.510  0.0253 -0.4677  0.2232
 3480TIP3    H131931   2.240   4.949  11.509  1.3902  0.0084 -2.0848
 3480TIP3    H231932   2.352   4.858  11.464  1.1935 -2.5883  2.1366
 3481TIP3   OH231933   0.464   2.424   0.739  0.1925 -0.3106 -0.3485
 3481TIP3    H131934   0.447   2.502   0.687 -1.7845 -0.5885 -0.1756
 3481TIP3    H231935   0.558   2.408   0.728  0.1565  0.6186 -2.4382
 3482TIP3   OH231936   2.994   6.721  16.167 -0.2818 -0.6553 -0.2652
 3482TIP3    H131937   3.041   6.789  16.119  0.1219 -0.4469  0.4226
 3482TIP3    H231938   3.023   6.730  16.258 -0.8154 -1.2394 -0.0273
 3483TIP3   OH231939   3.474   2.165   2.472 -0.2131 -0.5265  0.2514
 3483TIP3    H131940   3.535   2.147   2.401  0.7131 -0.3737  0.9799
 3483TIP3    H231941   3.426   2.242   2.444 -1.1036 -1.4743 -0.9620
 3484TIP3   OH231942   3.366   6.302  12.635 -0.3472  0.8186 -0.5591
 3484TIP3    H131943   3.431   6.232  12.646 -0.2807  0.8564 -0.6970
 3484TIP3    H231944   3.345   6.330  12.723  0.8423  1.7376 -0.5439
 3485TIP3   OH231945   1.536   5.461  16.961  0.2459 -0.4000  0.0483
 3485TIP3    H131946   1.443   5.482  16.972  0.5347  0.9985 -0.0150
 3485TIP3    H231947   1.547   5.450  16.867  0.0913 -0.8598  0.0811
 3486TIP3   OH231948   5.773   1.997   1.617 -0.1225 -0.0563  0.6485
 3486TIP3    H131949   5.844   1.941   1.648 -1.3919 -2.0120  0.1989
 3486TIP3    H231950   5.776   2.073   1.675  0.1219 -1.7189  2.9917
 3487TIP3   OH231951   1.206   2.990  14.938  0.7968 -0.4072  0.0081
 3487TIP3    H131952   1.265   3.065  14.942  1.5801 -1.0279  0.2808
 3487TIP3    H231953   1.118   3.029  14.931  1.1649  0.5293  0.4161
 3488TIP3   OH231954   4.854   0.749  12.365 -0.4097 -0.4615 -0.2438
 3488TIP3    H131955   4.869   0.841  12.344  0.4306 -0.6269 -0.4120
 3488TIP3    H231956   4.920   0.728  12.431 -0.8991 -0.8269  0.1422
 3489TIP3   OH231957   4.858   4.959  11.669  0.5380 -0.4457 -0.2989
 3489TIP3    H131958   4.782   4.984  11.722 -0.6705 -0.2020 -2.0694
 3489TIP3    H231959   4.843   5.000  11.584  1.8443 -1.7467 -1.2043
 3490TIP3   OH231960   1.980   5.530  15.451  0.1843 -0.7942  0.1806
 3490TIP3    H131961   2.065   5.563  15.422 -0.5589  0.4649 -0.6775
 3490TIP3    H231962   1.916   5.589  15.410 -1.1330 -2.0618  0.3320
 3491TIP3   OH231963   4.513   5.932  16.127  0.1198 -0.0897  0.3634
 3491TIP3    H131964   4.502   5.837  16.135 -1.5527 -0.0623 -1.0003
 3491TIP3    H231965   4.607   5.944  16.114  0.2191 -1.7053 -0.8095
 3492TIP3   OH231966   6.345   1.669  16.196 -0.0139  0.2219  0.2076
 3492TIP3    H131967   6.417   1.687  16.256  0.1168  0.8432 -0.1251
 3492TIP3    H231968   6.386   1.672  16.109 -0.1188 -1.0458  0.0931
 3493TIP3   OH231969   3.470   6.026   3.702 -0.0851  0.3979  0.2282
 3493TIP3    H131970   3.541   5.966   3.726  0.2593  1.4501  2.0488
 3493TIP3    H231971   3.406   6.018   3.774 -0.9471  0.7881 -0.4779
 3494TIP3   OH231972   3.471   3.836  10.808  0.2051  0.9980  0.4450
 3494TIP3    H131973   3.565   3.848  10.803  0.2174  1.1008  0.8893
 3494TIP3    H231974   3.458   3.770  10.876  0.0285 -0.0881 -0.6088
 3495TIP3   OH231975   0.471   2.159   4.649 -0.1326 -0.2505  0.4033
 3495TIP3    H131976   0.458   2.067   4.629 -1.1484 -0.1603  0.6135
 3495TIP3    H231977   0.564   2.166   4.671  0.8639 -0.5819 -3.0941
 3496TIP3   OH231978   0.435   2.641  15.660 -0.1450  0.1131  0.0082
 3496TIP3    H131979   0.347   2.670  15.635 -0.2880  0.4704  0.8844
 3496TIP3    H231980   0.493   2.709  15.625 -0.3751  0.8195  0.9537
 3497TIP3   OH231981   3.069   5.607  10.542  0.3146 -0.3450 -0.4034
 3497TIP3    H131982   2.997   5.610  10.605 -0.3093 -0.3901 -1.0975
 3497TIP3    H231983   3.148   5.617  10.595 -0.2436  0.5840  0.2793
 3498TIP3   OH231984   2.793   2.132   1.596  0.1599  0.0902 -0.3853
 3498TIP3    H131985   2.741   2.072   1.650  0.5075 -0.3466 -0.5221
 3498TIP3    H231986   2.766   2.219   1.624 -0.6319 -0.1227 -0.4418
 3499TIP3   OH231987   1.679   0.153  13.145  0.6827 -0.0059  0.5148
 3499TIP3    H131988   1.716   0.230  13.101 -0.1023  0.9964  1.5286
 3499TIP3    H231989   1.588   0.151  13.117  0.3191  0.3244  1.6198
 3500TIP3   OH231990   0.634   3.567   5.976  0.4114  0.3205  0.3684
 3500TIP3    H131991   0.722   3.565   6.013  1.2680 -0.7872 -1.5824
 3500TIP3    H231992   0.604   3.657   5.990  2.3244  1.0587  0.0370
 3501TIP3   OH231993   3.610   3.522   4.455  0.5337  0.2577  0.0786
 3501TIP3    H131994   3.704   3.533   4.468  0.6597 -1.7116  1.2850
 3501TIP3    H231995   3.601   3.434   4.418 -0.8703 -0.0307  1.0134
 3502TIP3   OH231996   4.011   0.322   4.496 -0.3839 -0.3579  0.1981
 3502TIP3    H131997   4.027   0.279   4.412 -1.2941 -2.0010  0.8139
 3502TIP3    H231998   3.916   0.334   4.499 -0.5332 -1.5611  1.5171
 3503TIP3   OH231999   5.777   5.652   3.085  0.2304 -0.2521 -0.4958
 3503TIP3    H132000   5.825   5.606   3.155  1.3829  1.0502 -0.3912
 3503TIP3    H232001   5.828   5.637   3.006  1.1633  1.5667 -0.2933
 3504TIP3   OH232002   2.548   3.192   1.594 -0.0826  0.6430 -0.3062
 3504TIP3    H132003   2.584   3.248   1.525 -0.3919 -0.7698 -1.6764
 3504TIP3    H232004   2.460   3.169   1.563  0.0673 -0.6591  0.1656
 3505TIP3   OH232005   0.856   4.238  16.936 -0.2418 -0.3476 -0.2701
 3505TIP3    H132006   0.797   4.310  16.915 -0.3924 -0.2549  0.4536
 3505TIP3    H232007   0.943   4.278  16.937 -0.3958 -0.0110  0.8468
 3506TIP3   OH232008   4.023   4.713   5.507  0.2542 -0.6946  0.2633
 3506TIP3    H132009   3.960   4.659   5.459  0.9194  1.4536 -3.3272
 3506TIP3    H232010   4.059   4.773   5.442  3.3708  0.6372  2.9280
 3507TIP3   OH232011   1.168   2.676  16.615 -0.1078  0.0750 -0.0756
 3507TIP3    H132012   1.251   2.698  16.656  0.3221 -1.6663  0.0444
 3507TIP3    H232013   1.116   2.636  16.684  0.0721 -1.5207 -0.8156
 3508TIP3   OH232014   2.993   2.611  14.560  0.5866  0.1001 -0.1302
 3508TIP3    H132015   3.044   2.692  14.560  2.2040 -0.8743 -0.5355
 3508TIP3    H232016   2.996   2.581  14.470  2.3366 -1.7622  0.4638
 3509TIP3   OH232017   0.641   5.904   5.283 -0.4323  0.5839  0.4284
 3509TIP3    H132018   0.582   5.978   5.284  0.7467  1.6937 -2.3880
 3509TIP3    H232019   0.707   5.925   5.350 -0.3709  1.8943 -0.0111
 3510TIP3   OH232020   3.333   6.334   6.318  0.0620 -0.0606 -0.1516
 3510TIP3    H132021   3.250   6.327   6.272  0.1721 -0.1139 -0.3405
 3510TIP3    H232022   3.333   6.423   6.354 -0.1323 -0.1036 -0.0399
 3511TIP3   OH232023   4.978   0.963   3.586 -0.2796  0.2365  0.0815
 3511TIP3    H132024   4.913   1.021   3.547 -1.0916  0.8668  2.2020
 3511TIP3    H232025   5.027   1.019   3.647 -1.3700 -1.2727  2.5226
 3512TIP3   OH232026   2.604   4.079   2.473 -0.2914 -0.3070  0.1933
 3512TIP3    H132027   2.665   4.152   2.481 -0.3963  0.0934 -2.1727
 3512TIP3    H232028   2.523   4.111   2.513  0.6515 -0.4776  2.4261
 3513TIP3   OH232029   6.789   5.125  12.060 -0.1890  0.0442  0.0246
 3513TIP3    H132030   6.735   5.125  12.139 -0.2809 -0.2990 -0.0376
 3513TIP3    H232031   6.855   5.058  12.076 -0.8814 -0.8156 -0.6422
 3514TIP3   OH232032   0.528   4.254   2.500  0.0238 -0.3180  0.0859
 3514TIP3    H132033   0.569   4.325   2.550  0.1318 -0.5122  0.2738
 3514TIP3    H232034   0.457   4.223   2.555  1.2238 -1.7121  0.9252
 3515TIP3   OH232035   3.346   4.730   2.305 -0.2196 -0.4572  0.2387
 3515TIP3    H132036   3.387   4.659   2.354 -1.6478 -0.5394  1.3752
 3515TIP3    H232037   3.321   4.795   2.371 -2.1029 -0.5323 -0.3272
 3516TIP3   OH232038   2.990   6.798   1.624 -0.0465 -0.1952 -0.1767
 3516TIP3    H132039   2.966   6.776   1.534  1.1447  1.0122 -0.8237
 3516TIP3    H232040   3.014   6.891   1.620  1.9998 -0.6329  0.9525
 3517TIP3   OH232041   3.658   4.590  13.280 -0.0718 -0.0013 -0.1423
 3517TIP3    H132042   3.654   4.598  13.185 -0.3376  0.0305 -0.1292
 3517TIP3    H232043   3.749   4.609  13.302 -0.0315  0.0850 -0.3809
 3518TIP3   OH232044   6.368   2.844  12.260  0.0078  0.6392 -0.0776
 3518TIP3    H132045   6.406   2.887  12.337  1.7060  0.3037 -0.6759
 3518TIP3    H232046   6.334   2.761  12.292  0.7128  0.4973  0.3190
 3519TIP3   OH232047   2.549   6.781   5.872 -0.0650  0.2627 -0.3369
 3519TIP3    H132048   2.641   6.809   5.868  0.1329 -0.4482 -0.8871
 3519TIP3    H232049   2.499   6.857   5.841  0.3652  0.4984 -0.4568
 3520TIP3   OH232050   2.420   6.681   6.117 -0.1241 -0.2242 -0.6604
 3520TIP3    H132051   2.477   6.709   6.046 -1.4127  0.6926 -1.3497
 3520TIP3    H232052   2.473   6.694   6.196 -0.2212  3.1841 -1.0223
 3521TIP3   OH232053   3.859   2.449  17.107  1.0577  0.6518  0.4149
 3521TIP3    H132054   3.908   2.385  17.056  0.1406  0.2955 -0.0281
 3521TIP3    H232055   3.927   2.503  17.148  1.8198  0.5949 -0.7176
 3522TIP3   OH232056   6.213   3.125   4.975 -0.1686  0.0963 -0.6889
 3522TIP3    H132057   6.293   3.088   4.940 -0.7592 -1.3169 -0.6335
 3522TIP3    H232058   6.231   3.219   4.985  0.9075  0.0779 -2.1858
 3523TIP3   OH232059   5.552   2.636  12.179 -0.4339 -0.1988  0.0909
 3523TIP3    H132060   5.505   2.696  12.121 -0.7667  0.7306  1.2835
 3523TIP3    H232061   5.634   2.619  12.134 -1.0567 -0.2334 -1.0752
 3524TIP3   OH232062   5.536   2.328   3.314 -0.1674 -0.6827  0.3563
 3524TIP3    H132063   5.529   2.413   3.356  1.2393 -0.4368  0.1190
 3524TIP3    H232064   5.512   2.265   3.382 -2.3570 -0.0821  0.2111
 3525TIP3   OH232065   4.014   3.219   5.347  0.4945 -0.1275  0.0796
 3525TIP3    H132066   4.051   3.134   5.325 -0.5445 -0.8296  0.9607
 3525TIP3    H232067   4.012   3.266   5.264  0.3323 -1.2625 -0.5775
 3526TIP3   OH232068   4.323   3.681   0.844  0.4913  0.4232  0.0352
 3526TIP3    H132069   4.245   3.718   0.886  0.2350 -0.4411  0.3249
 3526TIP3    H232070   4.370   3.636   0.914 -0.4301 -1.8575 -0.7191
 3527TIP3   OH232071   1.749   6.174   0.515 -0.8874 -0.1099 -1.1678
 3527TIP3    H132072   1.685   6.203   0.451 -0.6081 -0.5496 -1.6546
 3527TIP3    H232073   1.755   6.079   0.503 -1.9767 -0.4519  0.5643
 3528TIP3   OH232074   2.261   6.180   4.402 -0.2882  0.0654  1.0185
 3528TIP3    H132075   2.203   6.107   4.380  0.9328 -0.7273  0.2734
 3528TIP3    H232076   2.279   6.223   4.319 -1.2730  1.4642  1.5023
 3529TIP3   OH232077   0.190   6.165  13.898 -0.5732  0.0181  0.1271
 3529TIP3    H132078   0.198   6.213  13.980 -0.4985  0.0952  0.0752
 3529TIP3    H232079   0.177   6.232  13.831 -0.2744 -0.0209  0.0274
 3530TIP3   OH232080   5.232   5.032   0.015  0.0231 -0.0124  0.9343
 3530TIP3    H132081   5.254   4.943  -0.012  1.5838  0.1492  1.5784
 3530TIP3    H232082   5.155   5.054  -0.036  0.1897 -1.3759  0.0447
 3531TIP3   OH232083   0.778   1.378  12.853 -0.1071  0.3781  0.7131
 3531TIP3    H132084   0.702   1.398  12.908 -0.9176  1.4002 -0.7073
 3531TIP3    H232085   0.805   1.463  12.819 -0.5912 -0.3614 -1.6683
 3532TIP3   OH232086   3.160   4.895  12.231  0.4503 -0.1377 -0.3625
 3532TIP3    H132087   3.188   4.831  12.296  0.0316  0.8171  0.8024
 3532TIP3    H232088   3.236   4.952  12.218  0.8151 -0.8390 -1.3783
 3533TIP3   OH232089   6.722   0.809   3.990 -0.0087 -0.0532 -0.3477
 3533TIP3    H132090   6.700   0.895   3.954 -1.1261 -0.4902 -0.7450
 3533TIP3    H232091   6.647   0.754   3.970 -0.0061 -0.7265  1.2942
 3534TIP3   OH232092   4.164   0.702  15.146 -0.5018 -0.1075 -0.8540
 3534TIP3    H132093   4.111   0.653  15.083  0.0494  0.3101 -1.6533
 3534TIP3    H232094   4.232   0.641  15.173 -0.8110 -0.3276 -0.5618
 3535TIP3   OH232095   0.103   6.126   4.949  0.1095 -0.3176  0.2183
 3535TIP3    H132096   0.019   6.131   4.902  0.2279 -1.8566 -0.1909
 3535TIP3    H232097   0.169   6.129   4.880  0.2683 -3.9389  0.0395
 3536TIP3   OH232098   2.245   2.942  16.443 -0.3022 -0.2053  0.6312
 3536TIP3    H132099   2.305   2.975  16.376  2.3377  0.3644  3.0608
 3536TIP3    H232100   2.180   3.011  16.453  1.6021  1.6046  1.3663
 3537TIP3   OH232101   3.579   5.254   1.711 -0.3185 -0.5320 -0.2819
 3537TIP3    H132102   3.585   5.220   1.622 -1.1681 -1.5852  0.0423
 3537TIP3    H232103   3.499   5.215   1.747 -0.4739  0.5894  0.6474
 3538TIP3   OH232104   2.642   1.186   4.381 -0.6587 -0.6708 -0.3744
 3538TIP3    H132105   2.622   1.278   4.400 -0.0717 -0.5866 -0.1299
 3538TIP3    H232106   2.677   1.151   4.463  1.4482 -0.4324 -1.1046
 3539TIP3   OH232107   2.492   4.790  16.830 -0.2462  0.1848  0.0344
 3539TIP3    H132108   2.403   4.800  16.865  0.6434  0.1443  2.5019
 3539TIP3    H232109   2.549   4.798  16.907  1.8310 -1.0355 -1.2830
 3540TIP3   OH232110   1.075   5.894   1.098  0.2909  0.4161 -0.0569
 3540TIP3    H132111   1.044   5.979   1.065  0.0481  0.9079  1.3652
 3540TIP3    H232112   1.003   5.863   1.153  1.6066  0.8147  2.0091
 3541TIP3   OH232113   4.282   1.771  12.540 -0.1777  0.2941 -0.7534
 3541TIP3    H132114   4.253   1.859  12.518 -0.2059  0.2426 -0.9210
 3541TIP3    H232115   4.211   1.714  12.510 -0.8852  0.3258  0.7483
 3542TIP3   OH232116   4.805   4.775  11.314  0.1254 -0.5212 -0.1778
 3542TIP3    H132117   4.827   4.850  11.368 -1.9487  0.9759 -1.2834
 3542TIP3    H232118   4.771   4.812  11.233 -2.4723 -2.5949 -0.1695
 3543TIP3   OH232119   4.250   2.843   0.133 -0.1343 -0.2866  0.2386
 3543TIP3    H132120   4.230   2.777   0.199 -0.0035  0.4119  0.9920
 3543TIP3    H232121   4.175   2.842   0.073  0.6642 -2.3715 -0.8208
 3544TIP3   OH232122   2.504   1.972  13.792 -1.0763 -0.1749  0.2046
 3544TIP3    H132123   2.528   2.055  13.751 -0.2545 -0.2870  0.4530
 3544TIP3    H232124   2.511   1.908  13.721 -0.6067 -0.2139  0.2879
 3545TIP3   OH232125   4.618   4.299   5.728  0.3784 -0.0113  0.1830
 3545TIP3    H132126   4.638   4.218   5.775  1.8548 -1.2408 -2.3761
 3545TIP3    H232127   4.523   4.304   5.729  0.2794 -1.4852  0.8485
 3546TIP3   OH232128   1.940   2.623   3.940  1.0081 -0.0134 -0.2210
 3546TIP3    H132129   1.974   2.534   3.952  2.7367  0.2340 -2.4961
 3546TIP3    H232130   2.008   2.680   3.978  0.8688  0.3675 -0.5365
 3547TIP3   OH232131   6.750   5.061  12.857  0.4073 -0.0874  0.5651
 3547TIP3    H132132   6.732   5.000  12.928 -2.6505 -0.1113 -0.1226
 3547TIP3    H232133   6.689   5.133  12.870  0.9250  0.7240 -1.1216
 3548TIP3   OH232134   5.104   2.407  10.692 -0.4049 -0.6365  0.7421
 3548TIP3    H132135   5.174   2.381  10.632 -0.4421  0.0169  0.4036
 3548TIP3    H232136   5.023   2.386  10.645 -0.4343 -0.0994  0.5445
 3549TIP3   OH232137   0.811   6.593   3.727  0.1607  0.2865 -0.1649
 3549TIP3    H132138   0.852   6.578   3.642 -1.9389 -0.4359 -1.1202
 3549TIP3    H232139   0.809   6.688   3.737 -0.5970  0.4329 -1.5044
 3550TIP3   OH232140   3.118   1.792  13.029 -0.2760 -0.2232  0.1318
 3550TIP3    H132141   3.170   1.730  12.979 -0.9866 -1.2878  0.6871
 3550TIP3    H232142   3.177   1.820  13.100  0.5812  0.9657 -1.0024
 3551TIP3   OH232143   0.921   0.605  14.300  0.5356 -0.2235 -0.4213
 3551TIP3    H132144   0.998   0.629  14.248  1.9760 -1.0079  1.2524
 3551TIP3    H232145   0.935   0.647  14.385 -0.0056 -1.7908  0.4838
 3552TIP3   OH232146   1.326   5.118  14.039  0.2783  0.0541 -0.1726
 3552TIP3    H132147   1.371   5.126  13.954 -0.6964  0.3307 -0.6734
 3552TIP3    H232148   1.359   5.035  14.074  1.5659  0.4838 -0.2790
 3553TIP3   OH232149   1.147   4.047  16.755  0.4804 -0.3337  0.1596
 3553TIP3    H132150   1.100   4.017  16.832  0.0263  0.8839  0.3730
 3553TIP3    H232151   1.126   4.140  16.748  1.5078 -0.1431 -0.7171
 3554TIP3   OH232152   3.601   5.282  13.119  0.1067 -0.7968 -0.4817
 3554TIP3    H132153   3.562   5.202  13.154  3.4949 -2.8018 -0.8270
 3554TIP3    H232154   3.573   5.351  13.179  0.6369 -3.0309  2.5906
 3555TIP3   OH232155   1.172   3.185   0.807 -0.4543  0.1304  0.2958
 3555TIP3    H132156   1.102   3.122   0.824 -1.4158  1.2323  0.5972
 3555TIP3    H232157   1.127   3.261   0.769  0.8910 -0.0205 -1.7387
 3556TIP3   OH232158   6.636   1.843   6.465 -1.0405  0.4562  0.0117
 3556TIP3    H132159   6.689   1.766   6.483 -3.3744 -0.5120  3.8714
 3556TIP3    H232160   6.693   1.917   6.483  0.6818 -0.3050 -1.9367
 3557TIP3   OH232161   4.619   3.390   5.903 -0.4780 -0.4245 -0.1455
 3557TIP3    H132162   4.630   3.304   5.944 -2.3004 -1.3581 -1.5077
 3557TIP3    H232163   4.700   3.437   5.925 -0.7353 -1.2988  3.3318
 3558TIP3   OH232164   4.029   2.041  13.678  0.5588  0.0768 -0.6822
 3558TIP3    H132165   4.061   1.998  13.598  1.4537  2.3379 -1.6216
 3558TIP3    H232166   3.943   2.076  13.654 -0.2835 -1.2976  0.1602
 3559TIP3   OH232167   3.543   6.664   5.006 -1.3670 -0.2112  0.5564
 3559TIP3    H132168   3.548   6.569   5.003  2.0508 -0.1407 -1.6373
 3559TIP3    H232169   3.454   6.685   4.977 -1.1569 -2.7713 -2.4304
 3560TIP3   OH232170   3.987   5.372  12.437 -0.0059 -0.0586  0.5390
 3560TIP3    H132171   4.079   5.384  12.413  0.0125 -2.8366 -1.2245
 3560TIP3    H232172   3.987   5.367  12.532  1.5131  0.9197  0.6164
 3561TIP3   OH232173   5.363   5.623   4.031  0.0310 -0.1179 -0.4497
 3561TIP3    H132174   5.334   5.678   4.105 -1.3104 -1.9582  0.4669
 3561TIP3    H232175   5.455   5.604   4.050 -1.0496 -3.3285  2.7393
 3562TIP3   OH232176   3.642   3.609  12.090  0.0126  0.4557  0.3299
 3562TIP3    H132177   3.606   3.690  12.126  0.7755  1.0584 -0.2494
 3562TIP3    H232178   3.566   3.564  12.052 -0.7512  0.0016  2.2481
 3563TIP3   OH232179   4.029   0.915  15.029  0.1969  0.1330  0.1242
 3563TIP3    H132180   4.095   0.934  14.963  0.3707  0.3081  0.3438
 3563TIP3    H232181   4.072   0.856  15.090 -0.3888 -1.1097 -0.6346
 3564TIP3   OH232182   3.695   6.772   3.756  0.5094 -0.0349  0.0775
 3564TIP3    H132183   3.716   6.763   3.849  1.9904  1.0771 -0.1037
 3564TIP3    H232184   3.633   6.702   3.738  0.5891 -0.5824  1.7871
 3565TIP3   OH232185   0.014   5.145   0.601 -0.1510  0.5258  0.1659
 3565TIP3    H132186  -0.021   5.080   0.662 -0.8433  0.2163 -0.5469
 3565TIP3    H232187   0.104   5.117   0.585 -0.2057  0.1731  0.4549
 3566TIP3   OH232188   6.611   6.706  17.019 -0.2490 -0.6588  0.2442
 3566TIP3    H132189   6.568   6.762  17.083 -0.4428 -1.1769  0.5696
 3566TIP3    H232190   6.607   6.756  16.937 -1.8270 -0.8641  0.1781
 3567TIP3   OH232191   1.954   6.406   2.767 -0.1496  0.2400  0.3849
 3567TIP3    H132192   1.965   6.348   2.843 -0.9009  0.7231  0.8819
 3567TIP3    H232193   1.904   6.355   2.704  0.1427 -0.0301  0.3685
 3568TIP3   OH232194   1.968   2.972   0.741  0.4653  0.0805 -0.2523
 3568TIP3    H132195   2.053   3.008   0.765  0.4626 -0.5990  0.8104
 3568TIP3    H232196   1.936   2.928   0.820 -1.9006  2.2105  0.1090
 3569TIP3   OH232197   6.511   6.001   0.482 -0.4339  0.3408  0.1115
 3569TIP3    H132198   6.517   6.022   0.575 -0.4986  0.5962  0.0574
 3569TIP3    H232199   6.429   6.041   0.453 -0.0207  0.9470 -0.2407
 3570TIP3   OH232200   0.554   6.751  15.139 -0.2313  0.3677  0.0015
 3570TIP3    H132201   0.522   6.810  15.070 -0.8926  1.4783  1.2095
 3570TIP3    H232202   0.594   6.809  15.203  0.2291 -0.6355  0.6391
 3571TIP3   OH232203   5.574   3.449  14.837  0.1727  0.3735 -0.1093
 3571TIP3    H132204   5.515   3.410  14.773  1.2434  0.6311 -1.2936
 3571TIP3    H232205   5.620   3.375  14.876  0.8491  0.3257 -0.9864
 3572TIP3   OH232206   2.480   4.062   6.247  0.0168 -0.3301 -0.2097
 3572TIP3    H132207   2.504   4.154   6.231 -2.0596  0.5572  1.2848
 3572TIP3    H232208   2.563   4.015   6.242  2.4444  2.4990  4.8003
 3573TIP3   OH232209   1.950   6.065   4.564 -0.3823 -0.7594 -0.5006
 3573TIP3    H132210   2.006   6.011   4.509  0.6233  0.4861 -0.7225
 3573TIP3    H232211   1.896   6.114   4.503  1.0703  0.9883 -0.4546
 3574TIP3   OH232212   1.467   0.192  13.348 -0.0222  0.1844 -0.0335
 3574TIP3    H132213   1.520   0.119  13.379  1.0667  0.8604 -0.2469
 3574TIP3    H232214   1.504   0.269  13.391 -0.6798  0.7038 -0.3737
 3575TIP3   OH232215   3.105   0.763   2.701  0.5775 -0.1564 -0.1890
 3575TIP3    H132216   3.180   0.819   2.720 -0.9103  1.7093  0.4528
 3575TIP3    H232217   3.105   0.755   2.606  1.7732 -0.5178 -0.1861
 3576TIP3   OH232218   3.301   4.316   2.119  0.1654  0.0992 -0.1722
 3576TIP3    H132219   3.229   4.266   2.081 -0.3285  0.1053  0.7166
 3576TIP3    H232220   3.335   4.368   2.047 -0.2285 -0.4701 -0.7800
 3577TIP3   OH232221   0.058   6.522  16.296 -0.4390 -0.9630 -0.1597
 3577TIP3    H132222  -0.020   6.568  16.329 -0.5003 -0.4299 -1.0253
 3577TIP3    H232223   0.120   6.592  16.275 -0.2248 -1.3194 -0.7259
 3578TIP3   OH232224   2.920   2.891   0.429  0.1232  0.5629 -0.9147
 3578TIP3    H132225   2.923   2.962   0.365 -0.3802  2.0052  0.5808
 3578TIP3    H232226   2.826   2.872   0.439  0.2604 -0.4133 -1.3853
 3579TIP3   OH232227   5.209   2.099   4.007  0.0781  0.0829 -1.1097
 3579TIP3    H132228   5.302   2.086   4.027  0.2643  0.7458 -1.5309
 3579TIP3    H232229   5.178   2.013   3.979 -0.1770 -0.9279  1.8698
 3580TIP3   OH232230   2.072   3.945   4.467 -0.5124  0.4526  0.0972
 3580TIP3    H132231   2.059   3.990   4.550  1.6294 -1.2850  1.4981
 3580TIP3    H232232   1.987   3.949   4.424 -1.6504  1.5833  2.2804
 3581TIP3   OH232233   4.403   2.650   1.236  0.0636  0.1670 -0.2136
 3581TIP3    H132234   4.490   2.612   1.246 -0.5803 -1.8399 -1.6255
 3581TIP3    H232235   4.350   2.607   1.303 -0.0460  0.7245  0.0623
 3582TIP3   OH232236   3.061   3.886   0.145  0.2028  0.1202  0.2144
 3582TIP3    H132237   3.026   3.888   0.234 -0.8111  0.1080 -0.1644
 3582TIP3    H232238   3.144   3.840   0.153 -0.9624 -2.0182  0.8095
 3583TIP3   OH232239   5.177   4.770   1.422  0.1858 -0.6638 -0.0678
 3583TIP3    H132240   5.271   4.784   1.407  0.1624  0.5928  0.8357
 3583TIP3    H232241   5.135   4.850   1.392 -0.5717 -1.0784 -0.1459
 3584TIP3   OH232242   2.835   4.870  16.622  0.0228 -0.1403  0.8394
 3584TIP3    H132243   2.782   4.942  16.656 -0.9634 -0.5004  0.0861
 3584TIP3    H232244   2.925   4.894  16.644 -0.3778  0.8521  1.4416
 3585TIP3   OH232245   2.261   4.747  16.289 -0.0422 -0.3098  0.0535
 3585TIP3    H132246   2.220   4.769  16.206 -1.8796 -1.8611  0.4854
 3585TIP3    H232247   2.259   4.828  16.339  1.3332  0.7217 -1.4417
 3586TIP3   OH232248   4.786   5.202   5.716 -0.7013 -0.1228  0.0542
 3586TIP3    H132249   4.746   5.249   5.789  2.9286 -1.8089  3.5018
 3586TIP3    H232250   4.861   5.256   5.691  0.0108 -1.1593 -0.0914
 3587TIP3   OH232251   5.063   3.414   0.137 -0.2858 -0.6038  0.3610
 3587TIP3    H132252   5.158   3.404   0.135 -0.3653 -1.2110 -0.6857
 3587TIP3    H232253   5.040   3.408   0.230  0.6008 -1.3493  0.5372
 3588TIP3   OH232254   1.798   2.833  13.527 -0.1801 -0.4475 -0.2563
 3588TIP3    H132255   1.758   2.867  13.447 -0.3970  0.2543  0.1426
 3588TIP3    H232256   1.885   2.872  13.529 -0.2262 -0.3506 -0.0827
 3589TIP3   OH232257   2.476   3.984  17.022 -0.4283 -0.2723  0.4221
 3589TIP3    H132258   2.558   3.963  16.978 -0.4448 -0.8169  0.6508
 3589TIP3    H232259   2.497   3.982  17.116 -0.3623  0.9970  0.4559
 3590TIP3   OH232260   0.574   2.773  16.831 -0.3131 -0.1732 -0.6459
 3590TIP3    H132261   0.653   2.759  16.882 -1.0222  1.1740  0.8912
 3590TIP3    H232262   0.603   2.818  16.752  0.5486 -0.5398 -0.5444
 3591TIP3   OH232263   5.335   4.083  17.030 -0.3583 -0.1693 -0.2979
 3591TIP3    H132264   5.411   4.026  17.042 -0.7876 -0.4174  1.4459
 3591TIP3    H232265   5.372   4.171  17.026 -0.0093 -0.1877  1.6297
 3592TIP3   OH232266   4.939   6.038  14.057 -0.9521 -0.2906 -0.0291
 3592TIP3    H132267   4.922   6.086  14.138 -1.1245 -1.2174  0.4968
 3592TIP3    H232268   5.033   6.047  14.043 -0.9293 -0.0957  0.2522
 3593TIP3   OH232269   0.507   2.126  14.876  0.0351 -0.0258 -0.4818
 3593TIP3    H132270   0.592   2.101  14.912  0.1962 -0.7289 -1.3262
 3593TIP3    H232271   0.450   2.050  14.891 -0.0303 -0.1353 -1.2542
 3594TIP3   OH232272   0.512   3.776   0.040 -0.0330 -0.2394  0.0310
 3594TIP3    H132273   0.528   3.855   0.091  0.7835  0.1606 -0.8145
 3594TIP3    H232274   0.588   3.721   0.059  0.2100 -0.1398 -0.6576
 3595TIP3   OH232275   3.472   2.045   1.610 -0.0880 -0.1613 -0.0709
 3595TIP3    H132276   3.411   1.971   1.606 -2.1234  1.4560 -2.0787
 3595TIP3    H232277   3.550   2.015   1.564  0.0060 -1.6911  0.9944
 3596TIP3   OH232278   4.964   2.169   3.641  0.2346 -0.2170 -0.4502
 3596TIP3    H132279   4.880   2.145   3.678 -0.1282 -0.0239 -1.1270
 3596TIP3    H232280   4.999   2.236   3.699 -0.0041 -0.4129 -0.0814
 3597TIP3   OH232281   5.892   4.942  16.488 -0.0106  0.3062  0.8519
 3597TIP3    H132282   5.934   4.857  16.503 -0.0598  0.4186  1.6560
 3597TIP3    H232283   5.800   4.927  16.508  0.1423  0.7878  1.9890
 3598TIP3   OH232284   0.631   6.004  15.773 -0.4234  0.0475 -0.0544
 3598TIP3    H132285   0.665   5.952  15.846  0.9965  1.0319  0.0364
 3598TIP3    H232286   0.708   6.048  15.737 -1.3864  1.0992 -0.9153
 3599TIP3   OH232287   1.343   6.755  10.493  0.1890 -0.1944 -0.2194
 3599TIP3    H132288   1.428   6.783  10.459  0.1093 -0.7753 -0.9294
 3599TIP3    H232289   1.362   6.722  10.581  0.8904 -1.2753 -0.7463
 3600TIP3   OH232290   3.110   5.180  12.941  0.2996 -0.3013  0.5169
 3600TIP3    H132291   3.081   5.246  12.878  1.3360  0.5250  0.8799
 3600TIP3    H232292   3.165   5.121  12.890  2.3260  1.1683  0.8470
 3601TIP3   OH232293   2.780   2.319   3.637  0.8634 -0.7406 -0.5821
 3601TIP3    H132294   2.714   2.354   3.578  1.9249 -0.8237 -1.8466
 3601TIP3    H232295   2.762   2.225   3.640  1.5142 -0.9176 -1.7237
 3602TIP3   OH232296   5.639   6.066  15.490  0.6051  0.1723 -0.3333
 3602TIP3    H132297   5.554   6.049  15.532  0.7641  0.2869  0.0361
 3602TIP3    H232298   5.643   6.002  15.418  0.5394 -0.3563  0.1221
 3603TIP3   OH232299   3.528   2.575  15.032 -0.0530  0.1447  0.6505
 3603TIP3    H132300   3.459   2.589  15.097 -0.4281 -0.4772  0.3800
 3603TIP3    H232301   3.572   2.660  15.027 -1.6431  0.9573 -0.1752
 3604TIP3   OH232302   6.435   1.703  13.832 -0.2850 -0.5186  0.6525
 3604TIP3    H132303   6.375   1.777  13.833  0.7575  0.3933 -0.2834
 3604TIP3    H232304   6.438   1.676  13.741  1.4980  0.1757  0.4460
 3605TIP3   OH232305   3.865   0.399   2.244  0.2933 -0.2317  0.0761
 3605TIP3    H132306   3.858   0.494   2.231  0.3977 -0.2578 -0.1709
 3605TIP3    H232307   3.956   0.385   2.269  0.7463 -0.4673 -1.6268
 3606TIP3   OH232308   1.081   3.757  12.348 -0.2324  0.3170 -0.3046
 3606TIP3    H132309   1.092   3.822  12.278  0.5305 -0.2240 -0.6971
 3606TIP3    H232310   1.124   3.679  12.315  3.5374  1.0468  2.2024
 3607TIP3   OH232311   2.445   4.702  12.793 -0.0749  0.0569 -0.2788
 3607TIP3    H132312   2.350   4.715  12.784 -0.6042 -2.6941  0.3720
 3607TIP3    H232313   2.471   4.662  12.710 -0.7619 -4.6752  1.4486
 3608TIP3   OH232314   5.464   0.836  11.945 -0.4518  0.5288  0.1809
 3608TIP3    H132315   5.545   0.886  11.947 -0.8966  1.2473  1.1331
 3608TIP3    H232316   5.421   0.856  12.028 -0.4225 -1.8437  0.8359
 3609TIP3   OH232317   6.496   4.798   5.795  0.1051  0.2404  0.7249
 3609TIP3    H132318   6.509   4.855   5.871 -2.3279  1.3031  0.4458
 3609TIP3    H232319   6.420   4.745   5.817  0.3652 -0.6173 -0.3429
 3610TIP3   OH232320   0.857   3.205  17.039 -0.7369  0.7851 -0.2179
 3610TIP3    H132321   0.910   3.265  17.091 -2.8052  1.4211  1.2841
 3610TIP3    H232322   0.842   3.131  17.097 -0.5372  0.0703 -1.0605
 3611TIP3   OH232323   5.410   3.650   5.733  0.4701  0.3357  0.0378
 3611TIP3    H132324   5.380   3.728   5.780  1.6320  1.0851 -0.4492
 3611TIP3    H232325   5.346   3.582   5.758 -0.6858  1.4779  0.2911
 3612TIP3   OH232326   1.245   0.690   3.812  0.0860 -0.7452  0.3125
 3612TIP3    H132327   1.265   0.782   3.794  1.0339 -1.1904 -1.0428
 3612TIP3    H232328   1.157   0.678   3.778 -0.8043  0.0648  2.1274
 3613TIP3   OH232329   3.781   0.598  12.466  0.1424  0.1655  0.0216
 3613TIP3    H132330   3.827   0.672  12.505  0.2675  0.3049 -0.3859
 3613TIP3    H232331   3.769   0.537  12.538  0.1429  0.5316  0.3347
 3614TIP3   OH232332   5.815   6.219  11.077 -0.3751  0.2427 -0.2709
 3614TIP3    H132333   5.895   6.264  11.048 -0.0095 -0.3407 -0.1957
 3614TIP3    H232334   5.830   6.127  11.055 -1.1711  0.1741 -0.5556
 3615TIP3   OH232335   2.122   3.038  13.580  0.2140 -0.2174  0.1870
 3615TIP3    H132336   2.069   3.092  13.638 -1.0134 -2.1242  0.9371
 3615TIP3    H232337   2.147   3.097  13.508 -2.2775  0.9833  0.2034
 3616TIP3   OH232338   4.903   2.843   0.694 -0.1496 -0.0411 -0.6620
 3616TIP3    H132339   4.972   2.910   0.687 -1.1543  1.4591  2.0552
 3616TIP3    H232340   4.832   2.876   0.640 -0.7960  1.4523  0.9723
 3617TIP3   OH232341   0.990   4.028  12.788 -0.5560  0.0582 -0.1073
 3617TIP3    H132342   0.941   4.104  12.818  1.7959  1.6336  0.0752
 3617TIP3    H232343   1.006   4.045  12.695 -0.0030 -0.2081 -0.0658
 3618TIP3   OH232344   5.568   4.948  15.342 -0.2191 -0.0295 -0.6825
 3618TIP3    H132345   5.586   5.009  15.413 -0.0972 -1.7226  0.8159
 3618TIP3    H232346   5.652   4.906  15.324 -0.5847 -0.7971 -0.6526
 3619TIP3   OH232347   1.635   6.202   1.456 -0.1952 -0.1694  0.7280
 3619TIP3    H132348   1.630   6.128   1.395 -0.0276 -0.0448  0.5580
 3619TIP3    H232349   1.598   6.275   1.407 -0.1298 -0.0856  0.8035
 3620TIP3   OH232350   4.100   5.969   2.860  0.0435 -0.0650  0.5543
 3620TIP3    H132351   4.102   6.004   2.771 -2.0880  0.9650  0.8226
 3620TIP3    H232352   4.065   6.041   2.912 -0.3163 -1.1945  1.9284
 3621TIP3   OH232353   3.425   5.842   5.811  0.5860 -0.0593 -0.4785
 3621TIP3    H132354   3.383   5.789   5.878 -1.9914  1.2205 -0.9371
 3621TIP3    H232355   3.440   5.927   5.853 -1.8770  1.0506 -1.6504
 3622TIP3   OH232356   4.319   3.387  15.439 -0.1895 -0.0125  0.3456
 3622TIP3    H132357   4.357   3.344  15.363  0.9986  1.6753 -0.0490
 3622TIP3    H232358   4.254   3.447  15.403  0.1918  0.6018  0.6733
 3623TIP3   OH232359   6.733   0.320  13.127  0.0983  0.1208  0.4370
 3623TIP3    H132360   6.671   0.393  13.133 -0.2078 -0.0669 -0.2686
 3623TIP3    H232361   6.819   0.362  13.118 -0.1478  0.4218 -0.6909
 3624TIP3   OH232362   0.812   4.964  11.931  0.3611 -0.2661  0.5125
 3624TIP3    H132363   0.727   5.001  11.955 -0.3126 -1.0665 -0.5282
 3624TIP3    H232364   0.861   5.038  11.895 -0.6067 -0.1424 -0.6420
 3625TIP3   OH232365   1.870   0.378  16.160 -0.8206 -0.1163 -0.3702
 3625TIP3    H132366   1.919   0.460  16.158  0.6662 -0.8412  2.2281
 3625TIP3    H232367   1.937   0.310  16.166 -2.0740 -1.4083 -0.5835
 3626TIP3   OH232368   5.638   3.186  12.461  0.2771 -0.0353 -0.6699
 3626TIP3    H132369   5.613   3.108  12.510  1.0513  1.4714  2.3352
 3626TIP3    H232370   5.579   3.186  12.385 -1.1764 -2.3776  0.3461
 3627TIP3   OH232371   1.749   6.811  11.565  0.4871  0.1082 -0.2436
 3627TIP3    H132372   1.791   6.892  11.539  0.4111 -0.1352 -1.1505
 3627TIP3    H232373   1.799   6.742  11.521  0.2202 -0.2997  0.0789
 3628TIP3   OH232374   3.185   5.909  15.551 -0.0668 -0.0078  0.1303
 3628TIP3    H132375   3.095   5.904  15.519  0.0026 -0.2611 -0.0177
 3628TIP3    H232376   3.236   5.855  15.491  0.0264 -0.6593  0.7909
 3629TIP3   OH232377   1.151   6.109  13.179 -0.1097  0.1008  0.1559
 3629TIP3    H132378   1.101   6.037  13.217 -1.1265  0.6070 -0.1917
 3629TIP3    H232379   1.213   6.134  13.247 -0.0231 -0.8222  0.4299
 3630TIP3   OH232380   3.074   0.691  15.654  0.0030  0.7563  0.5049
 3630TIP3    H132381   3.070   0.741  15.735 -1.2754 -0.8612  1.5110
 3630TIP3    H232382   3.151   0.634  15.666  0.2239  0.9987  0.2627
 3631TIP3   OH232383   1.126   2.719   1.561 -0.2604 -0.0036 -0.3942
 3631TIP3    H132384   1.110   2.724   1.467 -1.9457 -0.7885 -0.1868
 3631TIP3    H232385   1.049   2.674   1.596 -0.6896  2.1299  1.6260
 3632TIP3   OH232386   0.473   3.785   0.543  0.0956 -0.3402 -0.5382
 3632TIP3    H132387   0.392   3.756   0.586  0.8948 -0.7183  0.7730
 3632TIP3    H232388   0.524   3.824   0.614  0.2291  1.7807 -1.7286
 3633TIP3   OH232389   6.586   0.610  11.342  0.5280  0.1266  0.1068
 3633TIP3    H132390   6.620   0.656  11.418 -1.4176  0.4226  0.8781
 3633TIP3    H232391   6.654   0.618  11.276  2.9914 -1.4887  2.2481
 3634TIP3   OH232392   1.952   2.857   3.130  0.2020  0.0113 -0.7205
 3634TIP3    H132393   2.031   2.845   3.183  1.3758  0.8960 -2.1883
 3634TIP3    H232394   1.975   2.927   3.068 -1.7963  0.3968 -1.0844
 3635TIP3   OH232395   4.995   4.278  15.902  0.3717 -0.2118 -0.5196
 3635TIP3    H132396   4.945   4.277  15.820  0.5623  2.2026 -0.7463
 3635TIP3    H232397   5.066   4.340  15.886 -1.1716  2.5326  2.2810
 3636TIP3   OH232398   0.679   2.628  13.034  0.1824  0.1140  0.4387
 3636TIP3    H132399   0.724   2.708  13.061  0.9042 -0.0137 -0.3535
 3636TIP3    H232400   0.589   2.655  13.017  0.6903  1.0303 -1.0047
 3637TIP3   OH232401   6.564   4.834   3.160 -0.0499 -0.0698  0.2578
 3637TIP3    H132402   6.645   4.863   3.202 -0.9077  3.6839 -0.3069
 3637TIP3    H232403   6.587   4.822   3.068  0.3436 -1.5310  0.5202
 3638TIP3   OH232404   3.250   2.166  16.558 -0.2299  0.6624 -0.2031
 3638TIP3    H132405   3.206   2.138  16.638  0.5930  0.3287  0.1474
 3638TIP3    H232406   3.286   2.085  16.521  1.2181  1.0716  0.2323
 3639TIP3   OH232407   3.807   4.912   5.916 -0.0694  0.2362  0.2562
 3639TIP3    H132408   3.751   4.906   5.838 -0.7152  0.5615  0.6869
 3639TIP3    H232409   3.886   4.957   5.884 -1.0732  2.0411  0.1455
 3640TIP3   OH232410   5.294   5.702   3.766  0.5255  0.0119 -0.2020
 3640TIP3    H132411   5.225   5.661   3.713 -1.5484  0.5514  1.9214
 3640TIP3    H232412   5.334   5.629   3.813  1.5116 -0.3126 -1.4962
 3641TIP3   OH232413   2.530   0.705  16.737  0.3621 -0.2890  0.5441
 3641TIP3    H132414   2.464   0.766  16.772  2.1540  1.5502  0.9143
 3641TIP3    H232415   2.533   0.634  16.802  0.3239  0.7398  1.7142
 3642TIP3   OH232416   4.896   0.311  11.795 -0.3201 -0.1373  0.3635
 3642TIP3    H132417   4.816   0.258  11.794 -0.2961 -0.1669 -0.5243
 3642TIP3    H232418   4.948   0.275  11.868  0.9265 -3.1987 -1.8345
 3643TIP3   OH232419   3.659   1.241  16.268  0.0011  0.0204  0.4535
 3643TIP3    H132420   3.716   1.227  16.344  1.0879 -2.5044 -0.7071
 3643TIP3    H232421   3.574   1.205  16.295 -0.3168  1.2725  1.2225
 3644TIP3   OH232422   6.436   5.469  12.998  0.1431  0.2637  0.5221
 3644TIP3    H132423   6.347   5.456  13.031  0.6983  1.2161  2.5237
 3644TIP3    H232424   6.435   5.558  12.962 -0.4625 -0.7692 -2.2425
 3645TIP3   OH232425   1.625   2.557  11.202  0.3010  0.6221  0.8981
 3645TIP3    H132426   1.624   2.584  11.110 -2.0177 -1.1327  0.3126
 3645TIP3    H232427   1.700   2.499  11.209 -0.7574 -1.0145 -0.5282
 3646TIP3   OH232428   5.457   1.659   6.192  0.1928 -0.0757  0.3946
 3646TIP3    H132429   5.424   1.748   6.178 -0.4394 -0.5213 -1.1630
 3646TIP3    H232430   5.552   1.667   6.185  0.2980  0.7632  2.1623
 3647TIP3   OH232431   4.255   3.512   1.668 -0.3418 -0.1246  0.1017
 3647TIP3    H132432   4.259   3.431   1.719 -0.6799 -0.7624 -0.8358
 3647TIP3    H232433   4.238   3.581   1.732 -0.9659 -0.9199  0.8182
 3648TIP3   OH232434   6.628   3.044   3.749 -0.5776 -0.2434 -0.0859
 3648TIP3    H132435   6.573   2.972   3.718 -1.1553 -0.1134  0.6076
 3648TIP3    H232436   6.565   3.112   3.773 -0.1200 -0.1067  0.7503
 3649TIP3   OH232437   3.147   0.073  16.061  0.4374 -0.6479 -0.1120
 3649TIP3    H132438   3.235   0.065  16.099  0.8118 -1.3766 -1.0836
 3649TIP3    H232439   3.156   0.144  15.996  0.6420 -1.5132 -1.0598
 3650TIP3   OH232440   1.666   6.113  15.200  0.0181  0.2067 -0.1644
 3650TIP3    H132441   1.665   6.208  15.186 -2.1218  0.7809  3.0483
 3650TIP3    H232442   1.725   6.100  15.274 -1.5262 -0.6369  0.9716
 3651TIP3   OH232443   1.695   6.498  15.149  0.7913  0.4720 -0.0728
 3651TIP3    H132444   1.750   6.565  15.107  0.7455  1.3454  1.2264
 3651TIP3    H232445   1.612   6.502  15.100  0.2604  2.4219  0.8910
 3652TIP3   OH232446   5.791   1.109   0.072 -0.4534 -0.1342 -0.3319
 3652TIP3    H132447   5.761   1.157  -0.004  0.6091 -0.7266 -1.1646
 3652TIP3    H232448   5.885   1.097   0.057 -0.0005  0.6417  1.5798
 3653TIP3   OH232449   6.131   6.659  16.352 -0.0846  0.1587 -0.7023
 3653TIP3    H132450   6.128   6.581  16.297  3.1006 -0.9992  0.5074
 3653TIP3    H232451   6.080   6.637  16.430 -2.0984  0.6827 -1.8130
 3654TIP3   OH232452   2.787   1.265   0.959  0.1314  0.1639 -0.4172
 3654TIP3    H132453   2.804   1.359   0.961 -0.2471  0.2456 -0.7198
 3654TIP3    H232454   2.699   1.256   0.995  0.0675 -0.0472 -0.6214
 3655TIP3   OH232455   3.352   0.805   4.044 -0.3897  0.0413  0.5514
 3655TIP3    H132456   3.420   0.833   3.982 -0.8278 -1.3415 -0.6302
 3655TIP3    H232457   3.290   0.877   4.046  0.0690  0.4628  0.0288
 3656TIP3   OH232458   1.122   4.322  12.209  0.0410 -0.3298  0.1728
 3656TIP3    H132459   1.097   4.412  12.189  1.5192 -0.2774 -1.7466
 3656TIP3    H232460   1.043   4.282  12.246 -2.2986  0.4034 -3.4818
 3657TIP3   OH232461   6.426   0.733   6.427 -0.2684 -0.5615  0.1715
 3657TIP3    H132462   6.505   0.681   6.413  0.5170  0.1197  1.7493
 3657TIP3    H232463   6.400   0.713   6.517 -0.6970  0.7551  0.3641
 3658TIP3   OH232464   3.993   2.388  11.313 -0.6384 -0.6514 -0.0539
 3658TIP3    H132465   4.073   2.347  11.280  0.2578  0.5883  0.5355
 3658TIP3    H232466   3.935   2.392  11.237  0.0033 -1.1816 -0.5806
 3659TIP3   OH232467   6.028   5.730  12.313  0.0123  0.3447 -0.6901
 3659TIP3    H132468   6.077   5.803  12.350 -2.1878  1.7414 -0.3169
 3659TIP3    H232469   6.092   5.660  12.303  1.6646  1.4451  1.4156
 3660TIP3   OH232470   0.897   3.675  13.815 -0.5560 -0.0945  0.0796
 3660TIP3    H132471   0.908   3.758  13.861  1.0911  0.1668 -0.7162
 3660TIP3    H232472   0.837   3.624  13.870 -0.4151  1.0502  1.3236
 3661TIP3   OH232473   3.775   4.495   3.134  0.2537 -0.1763  0.1044
 3661TIP3    H132474   3.729   4.521   3.214 -0.9576  1.4002 -1.0367
 3661TIP3    H232475   3.717   4.522   3.063  2.1010  0.1536 -1.3650
 3662TIP3   OH232476   0.777   0.863  12.530  0.4789  0.0395  0.1382
 3662TIP3    H132477   0.788   0.780  12.577 -1.5506 -0.8896 -0.9072
 3662TIP3    H232478   0.707   0.908  12.577 -0.0156  0.1087 -0.6507
 3663TIP3   OH232479   1.415   5.047  13.098 -0.1388 -0.3550 -0.1128
 3663TIP3    H132480   1.428   5.133  13.058 -0.9536  0.2663  0.9258
 3663TIP3    H232481   1.405   4.987  13.023  1.4322  0.2534 -0.8631
 3664TIP3   OH232482   2.464   2.239   0.081 -0.2324  0.3123  0.6844
 3664TIP3    H132483   2.466   2.166   0.019  0.7390  2.4301 -1.9739
 3664TIP3    H232484   2.380   2.281   0.067 -0.8428 -0.2953  2.2991
 3665TIP3   OH232485   6.032   3.054   3.900 -0.2336 -0.0738  0.1643
 3665TIP3    H132486   6.097   3.006   3.950 -0.2953 -0.2201  0.1053
 3665TIP3    H232487   5.978   3.097   3.967  0.8953  1.3706  0.1974
 3666TIP3   OH232488   0.568   3.613  16.942  0.2367  0.3966 -0.2472
 3666TIP3    H132489   0.624   3.548  16.900  1.7190  1.3798  0.0853
 3666TIP3    H232490   0.522   3.565  17.011  0.5127 -0.4991 -0.6719
 3667TIP3   OH232491   4.632   4.869   6.613  0.0686  0.2232 -0.3863
 3667TIP3    H132492   4.627   4.783   6.572  1.5412  0.5251 -1.2407
 3667TIP3    H232493   4.715   4.868   6.661 -1.1962  0.1811  1.9745
 3668TIP3   OH232494   0.364   6.054   3.487 -0.2174  0.6127 -0.1950
 3668TIP3    H132495   0.454   6.022   3.497 -0.2882  0.7769  1.0820
 3668TIP3    H232496   0.321   6.033   3.570 -1.4241  0.3656 -0.8546
 3669TIP3   OH232497   2.627   3.404   3.906  0.5873  0.1268  0.2454
 3669TIP3    H132498   2.537   3.402   3.874  0.6866 -0.3864 -0.0074
 3669TIP3    H232499   2.678   3.438   3.832  0.4972  1.2485  0.6681
 3670TIP3   OH232500   4.486   2.614  11.035  0.6849  0.8725 -0.2489
 3670TIP3    H132501   4.411   2.629  11.092  2.2944 -1.9089  2.9466
 3670TIP3    H232502   4.467   2.532  10.990  1.8774 -0.1323  0.9752
 3671TIP3   OH232503   2.284   5.816  15.551  0.0775 -0.2394  0.7353
 3671TIP3    H132504   2.226   5.787  15.479  0.5146  1.6670 -0.4424
 3671TIP3    H232505   2.372   5.806  15.516  0.3061  0.4485  1.1036
 3672TIP3   OH232506   3.248   3.414  16.081 -0.0483  0.5337  0.3841
 3672TIP3    H132507   3.254   3.413  15.985 -1.4510  1.0944  0.2589
 3672TIP3    H232508   3.219   3.503  16.101  1.0705  0.6906  1.4090
 3673TIP3   OH232509   0.099   4.403  11.155 -0.4137  0.1142 -0.5298
 3673TIP3    H132510   0.074   4.404  11.063  0.5837 -0.7657 -0.8356
 3673TIP3    H232511   0.025   4.441  11.201 -1.4575 -0.6031 -1.5697
 3674TIP3   OH232512   5.006   1.832   4.632 -0.2217 -0.4253 -0.0003
 3674TIP3    H132513   4.927   1.818   4.579  0.0010 -0.0891 -0.4252
 3674TIP3    H232514   5.067   1.875   4.572  0.6184 -1.5212  0.0567
 3675TIP3   OH232515   4.976   0.866  15.914  0.4633  0.9049  0.3112
 3675TIP3    H132516   4.928   0.800  15.864  0.6373 -0.3949  1.8267
 3675TIP3    H232517   4.911   0.935  15.930 -0.9761 -0.7727  2.2390
 3676TIP3   OH232518   4.125   0.710   3.461  0.6627 -0.2395 -0.0270
 3676TIP3    H132519   4.100   0.771   3.391 -0.4385  0.6932  1.1251
 3676TIP3    H232520   4.186   0.758   3.515 -2.3097  1.0585  2.5049
 3677TIP3   OH232521   5.682   2.873  12.770  0.4046 -0.1964 -0.0426
 3677TIP3    H132522   5.643   2.860  12.856  1.1002 -1.5884  0.0975
 3677TIP3    H232523   5.776   2.879  12.787  0.3872  2.7905 -0.4061
 3678TIP3   OH232524   2.827   1.516  17.176 -0.3841 -0.4772  0.0766
 3678TIP3    H132525   2.883   1.555  17.109 -0.4312 -0.8431 -0.1824
 3678TIP3    H232526   2.790   1.590  17.223  1.0636 -0.2304  0.8942
 3679TIP3   OH232527   2.480   1.166   0.140  0.1126  0.0063  1.2065
 3679TIP3    H132528   2.461   1.203   0.054 -1.3713 -0.7526  1.1606
 3679TIP3    H232529   2.562   1.208   0.168  0.8928 -0.1010 -0.7779
 3680TIP3   OH232530   0.439   1.504   4.993 -0.1439  0.3504  0.0305
 3680TIP3    H132531   0.379   1.450   4.942  0.4813  0.2724 -0.6373
 3680TIP3    H232532   0.386   1.580   5.019  0.2192  1.8461 -3.1513
 3681TIP3   OH232533   2.767   5.073   2.462 -0.5787 -0.3791 -0.3734
 3681TIP3    H132534   2.696   5.137   2.467  0.9258  1.3788 -0.4352
 3681TIP3    H232535   2.824   5.094   2.536  2.3686  1.5012 -2.8818
 3682TIP3   OH232536   0.714   2.550   3.066  0.3610 -0.0541  0.5108
 3682TIP3    H132537   0.805   2.529   3.048  0.6810  1.1290  0.6967
 3682TIP3    H232538   0.714   2.585   3.155 -0.3307 -0.3471  0.6384
 3683TIP3   OH232539   0.430   4.304   5.703 -0.0720  0.4228  0.4066
 3683TIP3    H132540   0.362   4.307   5.770 -1.1142  3.7780 -0.6414
 3683TIP3    H232541   0.505   4.348   5.743  2.2155 -4.2158  1.9854
 3684TIP3   OH232542   2.462   4.823   4.280 -0.0414 -0.1249  0.9698
 3684TIP3    H132543   2.542   4.816   4.331  1.7041 -1.3811 -1.7109
 3684TIP3    H232544   2.427   4.734   4.279 -1.0930  0.2647  1.4862
 3685TIP3   OH232545   5.857   6.009  12.363 -0.0540 -0.1129  0.5285
 3685TIP3    H132546   5.933   5.986  12.416  0.6020  0.1537 -0.2755
 3685TIP3    H232547   5.848   6.103  12.374 -0.1317 -0.1103  0.4409
 3686TIP3   OH232548   0.447   2.115  12.799  0.3440  0.1184 -0.4888
 3686TIP3    H132549   0.471   2.208  12.800  0.3492  0.1522  1.9431
 3686TIP3    H232550   0.517   2.073  12.749  0.8557  1.2906 -0.7993
 3687TIP3   OH232551   0.585   4.222   3.240 -0.1635  0.1232  0.4537
 3687TIP3    H132552   0.576   4.127   3.231 -0.4058  0.0931  0.9516
 3687TIP3    H232553   0.630   4.250   3.161 -1.0309 -0.2767 -0.2033
 3688TIP3   OH232554   2.757   1.050   5.449  0.1571  0.0416 -0.6773
 3688TIP3    H132555   2.717   0.983   5.506 -1.1501  0.7991 -0.6690
 3688TIP3    H232556   2.801   0.999   5.381  2.9970 -0.9631  1.7106
 3689TIP3   OH232557   4.000   0.152   2.842  0.4035  0.1079  0.7927
 3689TIP3    H132558   4.011   0.057   2.848  1.0928  0.1391  0.1808
 3689TIP3    H232559   3.973   0.167   2.752  1.5645  0.5932  0.5104
 3690TIP3   OH232560   0.658   3.904  11.297  0.4110  0.0953  0.0306
 3690TIP3    H132561   0.613   3.820  11.301 -0.7514  0.5915 -1.7851
 3690TIP3    H232562   0.692   3.917  11.386 -1.5212 -1.1148  1.0053
 3691TIP3   OH232563   2.369   4.975   1.256 -0.3685  0.4909  0.5267
 3691TIP3    H132564   2.461   4.958   1.237 -0.3884  0.3140  0.5820
 3691TIP3    H232565   2.321   4.912   1.202 -0.4239 -0.0040  1.1297
 3692TIP3   OH232566   5.593   1.933  11.713  0.4144 -0.2776  0.0951
 3692TIP3    H132567   5.637   1.850  11.698 -1.1987 -1.3379  1.0222
 3692TIP3    H232568   5.529   1.940  11.643 -0.7898 -0.7944  1.1041
 3693TIP3   OH232569   0.532   3.839  17.074 -0.0711 -0.0918  0.1790
 3693TIP3    H132570   0.575   3.758  17.047 -0.6547 -0.7890  1.2493
 3693TIP3    H232571   0.521   3.830  17.169 -1.7024  0.4639  0.0800
 3694TIP3   OH232572   4.315   3.775  16.720 -0.4056 -0.0750 -0.0381
 3694TIP3    H132573   4.351   3.860  16.694 -1.1531 -0.7139 -3.6576
 3694TIP3    H232574   4.228   3.797  16.755  0.2233  0.7887  1.0355
 3695TIP3   OH232575   4.311   5.594   5.544  0.0855 -0.3561  0.3389
 3695TIP3    H132576   4.233   5.591   5.600  1.1782 -0.4065  1.9063
 3695TIP3    H232577   4.381   5.558   5.598  1.0602 -1.0542 -1.3136
 3696TIP3   OH232578   5.940   3.032  14.015 -0.0697 -0.0225  0.6687
 3696TIP3    H132579   5.984   3.114  14.037  0.3934 -0.2223  0.4823
 3696TIP3    H232580   5.974   2.968  14.076  0.4930 -0.3552  0.0150
 3697TIP3   OH232581   6.803   0.051  16.526 -0.6608  0.0156 -0.1880
 3697TIP3    H132582   6.730   0.014  16.476 -0.6083 -0.2567 -0.0660
 3697TIP3    H232583   6.826   0.131  16.479 -0.6512 -0.2047 -0.5664
 3698TIP3   OH232584   0.469   5.488   3.358  0.4506 -0.2082  0.2142
 3698TIP3    H132585   0.544   5.515   3.411 -0.6027  1.6664  0.8268
 3698TIP3    H232586   0.400   5.470   3.421 -0.1556 -0.1508 -0.4162
 3699TIP3   OH232587   2.870   4.403  14.171  0.0424 -0.3880 -0.3936
 3699TIP3    H132588   2.817   4.433  14.244  2.0350  0.0841  0.9504
 3699TIP3    H232589   2.830   4.444  14.093 -0.2252  1.7976  0.8051
 3700TIP3   OH232590   3.425   1.980  16.849  0.1075  0.1076  0.2108
 3700TIP3    H132591   3.451   2.054  16.903 -1.0715  1.0215 -0.4185
 3700TIP3    H232592   3.442   1.903  16.903  1.7925  0.7813  0.7060
 3701TIP3   OH232593   4.015   6.426  13.220  0.3213  0.1900 -0.3419
 3701TIP3    H132594   3.980   6.440  13.132 -1.1560  0.0792  0.1948
 3701TIP3    H232595   4.103   6.465  13.217  0.1889  0.4486 -1.7693
 3702TIP3   OH232596   0.766   5.229  15.820  0.7249  0.0836  0.4868
 3702TIP3    H132597   0.765   5.243  15.725 -1.7092 -0.5193  0.3546
 3702TIP3    H232598   0.846   5.272  15.850  1.0969  1.0638 -1.7167
 3703TIP3   OH232599   4.325   1.554   0.864  0.6159  0.4175  0.3482
 3703TIP3    H132600   4.303   1.640   0.900  2.2455  0.8680  0.3896
 3703TIP3    H232601   4.350   1.572   0.773  0.1660 -0.1502  0.1057
 3704TIP3   OH232602   1.433   2.581  15.289  0.3308 -0.5013  0.2599
 3704TIP3    H132603   1.455   2.653  15.348 -1.5705  0.9852 -0.7061
 3704TIP3    H232604   1.493   2.590  15.215 -1.2195  1.5034 -0.8540
 3705TIP3   OH232605   0.752   3.992  10.506  0.1498  0.0005  0.0842
 3705TIP3    H132606   0.789   3.906  10.529 -0.5251 -0.2827  0.1319
 3705TIP3    H232607   0.826   4.052  10.513  0.5451 -0.5124  0.4389
 3706TIP3   OH232608   4.941   0.399   2.192  0.1856 -0.0686  0.0020
 3706TIP3    H132609   4.848   0.378   2.203 -1.3235  4.4037 -1.9004
 3706TIP3    H232610   4.962   0.373   2.103 -0.3381  1.8326 -0.7317
 3707TIP3   OH232611   5.645   3.397   0.537 -0.0141  0.0850  0.5534
 3707TIP3    H132612   5.610   3.442   0.460 -1.1303  2.5484  2.3510
 3707TIP3    H232613   5.642   3.304   0.514 -0.4504  0.7075 -2.2736
 3708TIP3   OH232614   5.480   6.346   2.372  0.1469  0.2090  0.0413
 3708TIP3    H132615   5.442   6.362   2.458  0.0472  1.7364 -0.2666
 3708TIP3    H232616   5.406   6.351   2.311  0.2621 -0.5610 -0.1757
 3709TIP3   OH232617   1.592   3.231   6.622 -0.2877  0.2934 -0.1992
 3709TIP3    H132618   1.612   3.322   6.600 -1.5642  0.7180  0.2794
 3709TIP3    H232619   1.656   3.208   6.690  0.9423  0.3550 -1.3086
 3710TIP3   OH232620   4.406   1.888  14.642  0.5386 -0.1746 -0.0727
 3710TIP3    H132621   4.449   1.856  14.721 -0.4498  0.0814  0.5864
 3710TIP3    H232622   4.419   1.983  14.645  0.5470 -0.1705 -0.2468
 3711TIP3   OH232623   2.612   3.722  11.161 -0.2520  0.6640 -0.3575
 3711TIP3    H132624   2.547   3.673  11.212 -0.8413  1.2906 -0.5055
 3711TIP3    H232625   2.627   3.668  11.084  0.4041 -0.1334  0.3036
 3712TIP3   OH232626   5.964   6.374   4.212 -0.2834 -0.4492  0.3592
 3712TIP3    H132627   5.988   6.368   4.120  0.0027 -0.0304  0.4063
 3712TIP3    H232628   5.908   6.451   4.218  1.3086  0.7096  0.8674
 3713TIP3   OH232629   5.155   2.082  17.149 -0.0004 -0.2849 -0.3043
 3713TIP3    H132630   5.222   2.106  17.213 -0.2285  0.0453 -0.1909
 3713TIP3    H232631   5.205   2.052  17.073  0.2703 -0.6654  0.0219
 3714TIP3   OH232632   3.420   6.354  15.155 -0.6192 -0.3579 -0.3304
 3714TIP3    H132633   3.450   6.444  15.147  0.2696 -0.7075 -1.3165
 3714TIP3    H232634   3.349   6.346  15.091  0.3194 -0.7358 -1.3558
 3715TIP3   OH232635   4.512   4.366   1.052  0.1079  0.4743  0.3096
 3715TIP3    H132636   4.551   4.291   1.097  0.6023  0.6561  0.1975
 3715TIP3    H232637   4.586   4.425   1.036 -0.2626  0.9426  0.3132
 3716TIP3   OH232638   6.508   1.257  16.256 -0.0274  0.0328 -0.6820
 3716TIP3    H132639   6.462   1.339  16.270  0.3835 -0.0042  1.0610
 3716TIP3    H232640   6.445   1.189  16.280  0.1377 -0.1063 -0.6386
 3717TIP3   OH232641   1.250   2.394   5.771 -0.2681 -0.2904  0.3417
 3717TIP3    H132642   1.157   2.376   5.776 -0.3781  0.1905  0.0467
 3717TIP3    H232643   1.273   2.431   5.856 -0.4913  0.2537  0.1675
 3718TIP3   OH232644   6.126   4.834   3.510 -0.0385 -0.1233  0.4642
 3718TIP3    H132645   6.206   4.792   3.542  0.1349  0.7280  1.1954
 3718TIP3    H232646   6.063   4.762   3.501  0.2102 -0.5368  1.8140
 3719TIP3   OH232647   6.703   6.657   1.275 -0.0355  0.2353 -0.7321
 3719TIP3    H132648   6.712   6.701   1.360  1.7077 -0.7652 -0.3539
 3719TIP3    H232649   6.757   6.709   1.215 -0.1514  0.1479 -0.9143
 3720TIP3   OH232650   2.346   2.481   3.571  0.3203 -0.1075 -0.0850
 3720TIP3    H132651   2.280   2.412   3.578  0.8074 -0.4668  1.5272
 3720TIP3    H232652   2.297   2.562   3.582 -0.1354 -0.2255 -1.1122
 3721TIP3   OH232653   2.053   4.911  14.965 -0.0599 -0.9179 -0.0058
 3721TIP3    H132654   2.148   4.924  14.976 -0.4761  0.0535  3.9346
 3721TIP3    H232655   2.021   4.995  14.934  0.0109  0.2587  2.7788
 3722TIP3   OH232656   4.655   5.682  13.296  0.0370 -0.1272  0.2347
 3722TIP3    H132657   4.584   5.676  13.232  0.1507 -2.2855  0.2413
 3722TIP3    H232658   4.612   5.666  13.380  0.5477 -2.0996  0.1797
 3723TIP3   OH232659   5.422   1.268  15.552 -0.4808 -0.1429 -0.3868
 3723TIP3    H132660   5.494   1.232  15.604  0.4990 -0.2593 -1.7665
 3723TIP3    H232661   5.368   1.192  15.529  1.2996 -0.7860 -2.8610
 3724TIP3   OH232662   0.603   3.951   3.213 -0.0056 -0.1246  0.1347
 3724TIP3    H132663   0.667   3.881   3.227 -1.1228 -1.0612  0.6581
 3724TIP3    H232664   0.528   3.926   3.266 -0.2832  1.6852  0.6300
 3725TIP3   OH232665   5.368   1.362  11.619  0.0433  0.1213 -1.5291
 3725TIP3    H132666   5.330   1.433  11.567  0.7754  0.9245 -1.0036
 3725TIP3    H232667   5.303   1.292  11.617 -1.2228  1.2682 -1.0439
 3726TIP3   OH232668   6.257   3.433   3.114  0.1931  0.3288 -0.4572
 3726TIP3    H132669   6.335   3.385   3.141  0.0594  0.6867  0.5952
 3726TIP3    H232670   6.187   3.367   3.115  0.2390  0.2834 -0.1759
 3727TIP3   OH232671   5.087   3.279   2.679 -0.1302  0.0543 -0.8820
 3727TIP3    H132672   5.003   3.308   2.715  0.2994  1.2416 -0.7731
 3727TIP3    H232673   5.080   3.184   2.675 -1.0840  0.0580  0.1086
 3728TIP3   OH232674   3.237   5.579   0.324  0.4279  0.0165  0.1950
 3728TIP3    H132675   3.180   5.649   0.293  0.0898 -0.1033  0.5444
 3728TIP3    H232676   3.319   5.623   0.347  0.6238  0.1277 -0.7100
 3729TIP3   OH232677   5.452   2.921  16.728  0.3923  0.2880 -0.3861
 3729TIP3    H132678   5.472   2.840  16.775 -0.1584  0.8465  0.8566
 3729TIP3    H232679   5.515   2.985  16.761 -0.3592  0.8300  0.0591
 3730TIP3   OH232680   1.720   1.843   1.445  0.4140  0.2630 -0.0608
 3730TIP3    H132681   1.689   1.792   1.371 -2.1588 -0.3400  1.2996
 3730TIP3    H232682   1.766   1.780   1.500 -0.2790  0.0223  0.2548
 3731TIP3   OH232683   5.296   0.910  14.174 -0.5787  0.0544 -0.0667
 3731TIP3    H132684   5.279   0.970  14.101 -1.5933  0.0713  0.1604
 3731TIP3    H232685   5.386   0.929  14.200 -0.1472 -0.0401 -1.3885
 3732TIP3   OH232686   3.236   1.266  16.273 -0.3907  0.1998  0.4422
 3732TIP3    H132687   3.156   1.264  16.221  0.1252 -2.1347 -0.3760
 3732TIP3    H232688   3.289   1.335  16.232 -0.9166 -0.0542 -0.6919
 3733TIP3   OH232689   0.032   6.197   3.070 -0.1725  0.6465  0.1812
 3733TIP3    H132690  -0.054   6.200   3.111 -0.3640  1.4779 -0.2497
 3733TIP3    H232691   0.089   6.246   3.130  0.1684 -0.5039  0.8188
 3734TIP3   OH232692   2.172   4.455   3.029 -0.1425  0.6043  0.4574
 3734TIP3    H132693   2.103   4.499   2.980 -0.8975 -1.2860 -0.2543
 3734TIP3    H232694   2.132   4.374   3.061  1.7901 -0.7308 -0.2877
 3735TIP3   OH232695   5.577   0.125  15.127 -0.3686  0.3631  0.1871
 3735TIP3    H132696   5.612   0.071  15.198  0.7426 -0.1679 -0.7258
 3735TIP3    H232697   5.548   0.061  15.061 -2.2600  0.8169  0.5180
 3736TIP3   OH232698   4.979   5.966   0.245  0.3230  0.1295 -0.0655
 3736TIP3    H132699   5.044   6.022   0.203 -1.6928  1.2697 -1.8734
 3736TIP3    H232700   4.912   6.026   0.277 -1.4518 -1.1211 -1.2270
 3737TIP3   OH232701   3.191   1.295  15.804 -0.7774 -0.1384 -0.2202
 3737TIP3    H132702   3.260   1.229  15.813 -0.4175  0.1710 -0.6570
 3737TIP3    H232703   3.239   1.377  15.792 -1.2172 -0.0002 -1.1175
 3738TIP3   OH232704   1.988   1.747  13.586 -0.0632 -0.0827  0.7876
 3738TIP3    H132705   2.055   1.796  13.538 -0.5899  0.7736  0.8990
 3738TIP3    H232706   1.952   1.685  13.522 -0.5526  0.8383  0.1421
 3739TIP3   OH232707   4.991   2.402   4.368 -0.4370  0.6440  0.0212
 3739TIP3    H132708   4.958   2.348   4.297 -0.6951 -0.0572  0.6546
 3739TIP3    H232709   5.081   2.374   4.381 -1.3585 -1.7578  2.2211
 3740TIP3   OH232710   1.722   4.529  11.523  0.1561  0.3656 -0.4715
 3740TIP3    H132711   1.723   4.601  11.460 -1.0835 -0.8490 -1.9696
 3740TIP3    H232712   1.759   4.455  11.475 -0.1805 -0.4262  0.4581
 3741TIP3   OH232713   1.234   1.515  11.866 -0.0157  0.4379 -0.4055
 3741TIP3    H132714   1.139   1.529  11.859  0.1295  1.7759 -0.0622
 3741TIP3    H232715   1.271   1.572  11.799  0.5096 -1.3970 -1.7572
 3742TIP3   OH232716   1.435   4.998  13.827  0.5144  0.0017  0.4326
 3742TIP3    H132717   1.439   4.989  13.732  0.4438 -0.9342  0.4999
 3742TIP3    H232718   1.467   4.913  13.859  2.1699  0.8909  1.2632
 3743TIP3   OH232719   4.629   6.773   1.464 -0.0321  0.1740 -0.1754
 3743TIP3    H132720   4.635   6.751   1.557 -0.3815 -1.0866 -0.4421
 3743TIP3    H232721   4.718   6.760   1.431  0.1235  0.7524 -0.0054
 3744TIP3   OH232722   2.265   5.545  11.809  0.3420 -0.0575  0.0629
 3744TIP3    H132723   2.318   5.466  11.815 -2.0033 -1.7337 -0.0101
 3744TIP3    H232724   2.280   5.578  11.721  1.2537 -0.5000  0.0497
 3745TIP3   OH232725   2.695   3.958   0.868  0.5254 -0.0485  0.0291
 3745TIP3    H132726   2.733   3.885   0.917 -1.7871 -1.1744  0.3077
 3745TIP3    H232727   2.724   4.036   0.915  3.9267 -0.6153 -0.8765
 3746TIP3   OH232728   6.114   0.353   4.559 -0.5236  0.3579  0.1139
 3746TIP3    H132729   6.109   0.446   4.579 -0.2307  0.1929  1.0178
 3746TIP3    H232730   6.024   0.321   4.569 -0.7293  0.6418 -0.7559
 3747TIP3   OH232731   0.180   3.744   0.602  0.1906 -0.1525 -0.0297
 3747TIP3    H132732   0.104   3.728   0.546  0.6405 -0.3134 -0.6088
 3747TIP3    H232733   0.154   3.816   0.658 -0.1207  0.3042 -0.7476
 3748TIP3   OH232734   5.586   0.632   3.871 -0.0903 -0.0154 -0.4103
 3748TIP3    H132735   5.547   0.708   3.828 -0.3178  1.3077  1.9554
 3748TIP3    H232736   5.677   0.659   3.888 -0.3364  0.0072  0.9782
 3749TIP3   OH232737   5.115   5.448  17.146 -0.2465  0.2943 -0.6715
 3749TIP3    H132738   5.171   5.407  17.080 -0.8698 -0.5120 -0.7186
 3749TIP3    H232739   5.133   5.541  17.137  1.0422  0.0662 -0.7143
 3750TIP3   OH232740   5.829   1.312  15.690 -0.6959  0.0639  0.6356
 3750TIP3    H132741   5.837   1.284  15.781 -1.5575  0.4567  0.8397
 3750TIP3    H232742   5.783   1.241  15.646  1.1861 -0.8905  0.1058
 3751TIP3   OH232743   0.577   6.756  11.093 -0.7397 -0.0725  0.1408
 3751TIP3    H132744   0.498   6.749  11.039 -0.0600  0.2402 -0.9145
 3751TIP3    H232745   0.582   6.672  11.139 -1.3629 -0.3193 -0.2257
 3752TIP3   OH232746   5.343   6.153   5.325 -0.1042  0.3659  0.2178
 3752TIP3    H132747   5.394   6.234   5.322  0.9190 -0.2761 -0.8826
 3752TIP3    H232748   5.315   6.139   5.235 -1.2787  0.0901  0.6060
 3753TIP3   OH232749   6.369   4.150   1.028  0.5068  0.3660  0.3915
 3753TIP3    H132750   6.446   4.098   1.006  0.0400  0.3557 -1.3160
 3753TIP3    H232751   6.383   4.234   0.985 -2.0828 -0.8555 -3.3494
 3754TIP3   OH232752   3.520   4.804  16.924 -0.6702 -0.0255  0.2929
 3754TIP3    H132753   3.559   4.729  16.969 -3.3591 -1.3204  0.6551
 3754TIP3    H232754   3.481   4.857  16.995 -0.9209  0.3915 -0.1496
 3755TIP3   OH232755   1.340   6.635  11.883 -0.5032 -0.1210  0.3667
 3755TIP3    H132756   1.297   6.718  11.867  0.8809  0.4353 -0.6831
 3755TIP3    H232757   1.429   6.659  11.912  0.1935 -1.2057 -0.7637
 3756TIP3   OH232758   0.915   0.625   4.665  0.2484  0.1121  0.2696
 3756TIP3    H132759   0.881   0.649   4.751  0.2070 -0.7025  0.4852
 3756TIP3    H232760   0.850   0.659   4.603  0.2213  0.5959  0.5554
 3757TIP3   OH232761   5.626   2.545   4.900  0.1337  0.0300  0.0822
 3757TIP3    H132762   5.709   2.576   4.937 -0.1870  1.8967 -0.6673
 3757TIP3    H232763   5.648   2.511   4.814 -0.0732  2.0930 -0.8269
 3758TIP3   OH232764   3.580   1.890  17.235  0.4030  0.4216  0.2087
 3758TIP3    H132765   3.607   1.903  17.326  3.7403  2.2621 -0.8729
 3758TIP3    H232766   3.611   1.802  17.214  4.8150  1.8671 -0.4908
 3759TIP3   OH232767   0.354   0.107  11.225  0.3730 -0.3240  0.1561
 3759TIP3    H132768   0.353   0.075  11.315  1.1487 -0.3542  0.1576
 3759TIP3    H232769   0.439   0.081  11.190  1.0161  1.6122  0.1288
 3760TIP3   OH232770   0.765   4.633  15.765  0.0414  0.3356  0.2205
 3760TIP3    H132771   0.725   4.585  15.693  0.5460  1.4098 -0.8174
 3760TIP3    H232772   0.698   4.696  15.792  0.0721  0.3389  0.2911
 3761TIP3   OH232773   6.473   4.307  10.793 -0.0852  0.4796  0.0480
 3761TIP3    H132774   6.440   4.232  10.745  2.5396  0.1283 -1.3920
 3761TIP3    H232775   6.558   4.326  10.753 -0.2972  3.7391  0.8713
 3762TIP3   OH232776   2.549   3.173   1.860 -0.2943  0.0355  0.4406
 3762TIP3    H132777   2.466   3.127   1.850  0.1771 -0.7601  0.1255
 3762TIP3    H232778   2.568   3.208   1.773  0.6939 -1.5245 -0.0026
 3763TIP3   OH232779   2.163   5.128   5.298  0.2664 -0.2789 -0.0411
 3763TIP3    H132780   2.177   5.215   5.261  2.3249 -0.0409  1.1382
 3763TIP3    H232781   2.213   5.069   5.242 -0.2795 -0.5587 -0.2367
 3764TIP3   OH232782   1.789   5.208  15.283 -0.3274 -0.0159 -0.1849
 3764TIP3    H132783   1.714   5.155  15.256 -0.5557 -0.0905  0.5511
 3764TIP3    H232784   1.754   5.265  15.352  0.7024 -1.5011  1.6723
 3765TIP3   OH232785   0.056   2.084  12.275 -0.2778 -0.1450 -0.1113
 3765TIP3    H132786  -0.034   2.065  12.304 -0.4140  0.1747 -0.3240
 3765TIP3    H232787   0.110   2.064  12.352 -0.6760  1.0929  0.5105
 3766TIP3   OH232788   4.554   3.414   1.671 -0.3129 -0.2743  0.3254
 3766TIP3    H132789   4.460   3.399   1.671 -0.4244  0.3196 -0.7749
 3766TIP3    H232790   4.569   3.473   1.745 -0.7580 -0.6138  0.6927
 3767TIP3   OH232791   1.855   2.806   5.378  0.0693  0.0127  0.0445
 3767TIP3    H132792   1.829   2.854   5.300  2.2169  2.3343  0.6130
 3767TIP3    H232793   1.776   2.759   5.404 -1.7717  1.9899 -1.5051
 3768TIP3   OH232794   6.715   2.311   0.544 -0.3977  1.1354 -0.2609
 3768TIP3    H132795   6.622   2.313   0.521 -0.1334 -2.3190 -2.4257
 3768TIP3    H232796   6.760   2.340   0.464  0.3778 -2.0284 -1.1105
 3769TIP3   OH232797   6.584   3.938   3.950  0.5710 -0.4202 -0.0963
 3769TIP3    H132798   6.542   4.004   4.005  2.1735  1.4030 -0.9483
 3769TIP3    H232799   6.589   3.860   4.005 -2.5098 -0.2993  0.5353
 3770TIP3   OH232800   2.554   6.086  15.738  0.2562  0.2513  0.3018
 3770TIP3    H132801   2.551   6.029  15.816 -0.5029  0.6383  0.5619
 3770TIP3    H232802   2.573   6.173  15.772 -2.0604  0.8316  0.3259
 3771TIP3   OH232803   3.278   0.571  14.186  0.4649 -0.1932  0.1882
 3771TIP3    H132804   3.202   0.514  14.198  0.6583 -0.1195  2.1726
 3771TIP3    H232805   3.350   0.524  14.228  1.1703  0.4559 -0.2593
 3772TIP3   OH232806   1.397   5.099   3.979  0.1458  0.4292  0.0420
 3772TIP3    H132807   1.490   5.086   3.962 -0.1926 -1.2732 -0.6266
 3772TIP3    H232808   1.387   5.077   4.072 -0.0803 -2.6070 -0.6108
 3773TIP3   OH232809   0.958   6.126   1.310 -0.0367 -0.3048  0.5111
 3773TIP3    H132810   0.907   6.158   1.384 -2.2639 -0.6177 -0.7776
 3773TIP3    H232811   0.976   6.034   1.332 -0.0873 -0.2075  0.9701
 3774TIP3   OH232812   0.695   1.009   5.118  0.4695 -0.1386 -0.0684
 3774TIP3    H132813   0.612   1.024   5.074 -1.1259  2.9548  3.4277
 3774TIP3    H232814   0.673   0.951   5.191  1.1539  1.2204  1.2737
 3775TIP3   OH232815   1.428   3.470  16.494  0.6303  0.5934 -0.0060
 3775TIP3    H132816   1.380   3.400  16.450  1.5371 -0.3362  0.4415
 3775TIP3    H232817   1.380   3.550  16.472 -1.1598 -0.2967  0.5119
 3776TIP3   OH232818   3.935   6.133  15.191 -0.5270  0.6635 -0.0496
 3776TIP3    H132819   3.939   6.039  15.177  2.7698  0.4342  1.4718
 3776TIP3    H232820   3.856   6.161  15.146 -1.0716 -2.6655 -1.4213
 3777TIP3   OH232821   2.428   4.170  15.587  0.4801  0.2464 -0.4497
 3777TIP3    H132822   2.481   4.237  15.630 -0.6057  0.2222  0.9580
 3777TIP3    H232823   2.450   4.089  15.633 -0.5254  0.1833 -0.0522
 3778TIP3   OH232824   4.087   0.973  15.330  0.3928 -0.1565  0.2034
 3778TIP3    H132825   4.113   1.065  15.341 -1.5844  0.5582 -0.7081
 3778TIP3    H232826   4.080   0.961  15.235 -1.6649 -0.5252  0.3644
 3779TIP3   OH232827   3.060   4.689  14.655  0.1999  0.0774  0.1717
 3779TIP3    H132828   3.037   4.599  14.631 -0.5713  0.7254 -1.6047
 3779TIP3    H232829   3.154   4.694  14.641 -0.1077  0.2164 -2.1492
 3780TIP3   OH232830   1.589   6.761  13.786  0.0394 -0.5692 -0.2466
 3780TIP3    H132831   1.611   6.671  13.762  1.8779 -0.9598  2.5048
 3780TIP3    H232832   1.599   6.764  13.881  0.5614  2.6739 -0.3007
 3781TIP3   OH232833   2.201   5.421  13.094  0.5069  0.1607 -0.4576
 3781TIP3    H132834   2.109   5.397  13.086 -0.4601  2.6901  1.7022
 3781TIP3    H232835   2.217   5.481  13.021  1.0234 -1.6064 -1.8686
 3782TIP3   OH232836   2.080   5.980  13.639  0.6827 -0.5181 -0.0773
 3782TIP3    H132837   2.061   6.071  13.664 -0.0680 -0.2463 -1.5129
 3782TIP3    H232838   1.995   5.936  13.645  0.9994 -1.0850  0.3664
 3783TIP3   OH232839   3.622   0.474  14.114  0.3327  0.1832 -0.4500
 3783TIP3    H132840   3.646   0.443  14.027 -0.0116  0.5026 -0.6631
 3783TIP3    H232841   3.593   0.564  14.101  1.4124  0.6325  0.1821
 3784TIP3   OH232842   4.127   5.782  14.560  0.7408  0.0597 -0.0616
 3784TIP3    H132843   4.076   5.714  14.517  1.2086 -0.5557  0.3480
 3784TIP3    H232844   4.190   5.735  14.613  0.8807  0.8170  0.4567
 3785TIP3   OH232845   5.727   1.915  15.605 -0.1065  0.3533 -0.2626
 3785TIP3    H132846   5.806   1.868  15.632  0.7504  1.5207 -0.6631
 3785TIP3    H232847   5.673   1.918  15.683 -1.1247 -3.0197 -0.6887
 3786TIP3   OH232848   0.090   5.580   0.423 -0.0811  0.7240 -0.2115
 3786TIP3    H132849   0.093   5.494   0.383 -2.9666  0.2582  0.3663
 3786TIP3    H232850   0.027   5.629   0.370 -0.5307  1.5655  1.0467
 3787TIP3   OH232851   6.024   2.356   0.441 -0.2721  0.0435 -0.5418
 3787TIP3    H132852   5.944   2.373   0.491  0.2215  0.1351  0.2320
 3787TIP3    H232853   6.054   2.271   0.472  0.6482  0.6019  0.1662
 3788TIP3   OH232854   5.535   6.416   2.930  0.3871 -0.0497 -0.1670
 3788TIP3    H132855   5.579   6.410   3.014  0.8894  2.3131 -0.1869
 3788TIP3    H232856   5.602   6.397   2.865  0.7988  1.0540 -0.0972
 3789TIP3   OH232857   6.780   5.915  13.686  0.1242 -0.0879 -0.2019
 3789TIP3    H132858   6.848   5.943  13.747 -0.9740  1.9125  0.1851
 3789TIP3    H232859   6.706   5.889  13.741 -0.5934  0.9830 -0.6105
 3790TIP3   OH232860   0.889   4.499  11.165 -0.0321  0.1960  0.2617
 3790TIP3    H132861   0.962   4.437  11.161 -0.2679 -0.1135  0.6940
 3790TIP3    H232862   0.847   4.492  11.080 -0.0031 -0.1744  0.2750
 3791TIP3   OH232863   0.867   3.058   0.711  1.1312 -0.4779  0.1416
 3791TIP3    H132864   0.926   3.068   0.636  1.4575  1.4339  0.6141
 3791TIP3    H232865   0.830   2.970   0.700 -0.2484  0.3736 -3.2843
 3792TIP3   OH232866   4.611   6.562  13.406 -0.0540 -0.3619  0.2916
 3792TIP3    H132867   4.569   6.599  13.484  1.2995 -0.5152  1.1323
 3792TIP3    H232868   4.688   6.516  13.440  1.1058  0.3785 -1.2152
 3793TIP3   OH232869   0.827   1.593   1.445 -0.1696  0.2971 -0.0668
 3793TIP3    H132870   0.856   1.650   1.374  2.4265 -0.2470  0.4529
 3793TIP3    H232871   0.838   1.646   1.524  0.7691 -0.3654  0.2649
 3794TIP3   OH232872   1.546   0.866   3.539  0.4810 -0.6103 -0.6375
 3794TIP3    H132873   1.527   0.774   3.558  2.5171 -1.1689 -1.0959
 3794TIP3    H232874   1.626   0.884   3.588  0.1629  0.9078 -0.6346
 3795TIP3   OH232875   6.325   4.708  13.815 -0.5403 -0.5100 -0.1482
 3795TIP3    H132876   6.317   4.721  13.720 -0.5096 -0.8358 -0.1962
 3795TIP3    H232877   6.288   4.788  13.853 -0.0395 -0.1335 -0.4407
 3796TIP3   OH232878   5.584   5.975   4.933  0.0796 -0.3456 -0.1092
 3796TIP3    H132879   5.507   6.032   4.933  0.1504 -0.2314 -1.0684
 3796TIP3    H232880   5.564   5.907   4.997 -1.4914 -1.1790 -1.4018
 3797TIP3   OH232881   4.537   2.060  17.294  0.1926  0.7140 -0.7163
 3797TIP3    H132882   4.457   2.041  17.244 -0.4687 -2.1521  1.1484
 3797TIP3    H232883   4.598   1.992  17.268  1.1659  1.4239 -0.3403
 3798TIP3   OH232884   4.415   1.898   3.437  0.0730  0.6765 -0.6042
 3798TIP3    H132885   4.471   1.972   3.460  1.0870 -0.5622  1.1062
 3798TIP3    H232886   4.331   1.918   3.479  0.3151  0.9077 -0.2275
 3799TIP3   OH232887   3.275   6.359  13.836  0.3359  0.0310  0.2506
 3799TIP3    H132888   3.199   6.363  13.778  0.6028  2.1598 -0.0231
 3799TIP3    H232889   3.285   6.266  13.855 -0.6236 -0.5928 -1.9675
 3800TIP3   OH232890   2.133   3.016  13.164  0.3248 -0.0824  0.0785
 3800TIP3    H132891   2.158   3.082  13.100  0.8494 -0.2692  0.0855
 3800TIP3    H232892   2.215   2.970  13.184 -0.0591 -0.8040 -0.0039
 3801TIP3   OH232893   1.473   2.194  13.367  0.0604 -0.6264 -0.2553
 3801TIP3    H132894   1.564   2.212  13.342  0.2790 -1.1015  0.1730
 3801TIP3    H232895   1.468   2.098  13.371 -0.5470 -0.6101 -0.5900
 3802TIP3   OH232896   1.738   0.604   4.540  0.5000  0.0164  0.3141
 3802TIP3    H132897   1.737   0.634   4.631 -0.0414  0.8185  0.0528
 3802TIP3    H232898   1.647   0.611   4.511  0.4793 -1.1907  0.0049
 3803TIP3   OH232899   1.086   3.899  14.723  0.1983 -0.6418  0.9737
 3803TIP3    H132900   1.149   3.882  14.793  1.6487  1.8553  0.3864
 3803TIP3    H232901   1.109   3.986  14.691 -0.2430 -1.7472 -2.7802
 3804TIP3   OH232902   4.520   0.276  14.057 -0.4244  0.9337  0.0113
 3804TIP3    H132903   4.612   0.252  14.060 -0.9917 -1.4494  0.4669
 3804TIP3    H232904   4.513   0.340  13.986  1.1156 -1.1717 -2.1780
 3805TIP3   OH232905   4.961   2.059  11.515  0.4815 -0.1120  0.2863
 3805TIP3    H132906   4.909   2.062  11.435  0.5091 -1.2510  0.2046
 3805TIP3    H232907   4.907   2.102  11.581 -0.0037 -0.1350 -0.0924
 3806TIP3   OH232908   4.793   5.836   2.944 -0.2560 -0.2614 -0.1090
 3806TIP3    H132909   4.729   5.891   2.899 -1.3068 -0.4545  1.0818
 3806TIP3    H232910   4.797   5.871   3.033  3.0559  1.2018 -0.6801
 3807TIP3   OH232911   5.433   0.958  14.480  0.4793  0.0298 -0.5028
 3807TIP3    H132912   5.487   0.930  14.406 -0.5246 -0.1167 -1.1942
 3807TIP3    H232913   5.373   1.022  14.443 -1.2729 -1.3967 -0.2381
 3808TIP3   OH232914   3.329   4.863   5.201 -0.3916  0.0633  0.7265
 3808TIP3    H132915   3.317   4.944   5.249  0.6571  1.5845 -1.4048
 3808TIP3    H232916   3.241   4.838   5.172 -0.7975  0.0851  1.9159
 3809TIP3   OH232917   1.912   5.599   5.798 -0.3379 -0.0481  0.0268
 3809TIP3    H132918   1.884   5.511   5.822  1.7618 -1.3252 -1.8644
 3809TIP3    H232919   1.926   5.644   5.881  0.8269 -2.2841  1.1081
 3810TIP3   OH232920   5.220   3.812   4.478  0.0549 -0.2836  0.6973
 3810TIP3    H132921   5.163   3.868   4.530  0.0789 -0.2474  0.6847
 3810TIP3    H232922   5.259   3.751   4.541  0.1279 -0.2034  0.7304
 3811TIP3   OH232923   3.313   4.675  14.774  0.1638  0.5936 -0.4815
 3811TIP3    H132924   3.295   4.581  14.771  0.2138  0.5814 -0.4035
 3811TIP3    H232925   3.405   4.682  14.748  1.1320  0.3376  2.4929
 3812TIP3   OH232926   6.417   5.358   3.494  0.5297 -0.1631  0.1963
 3812TIP3    H132927   6.395   5.293   3.427 -1.1719  1.9243 -1.3884
 3812TIP3    H232928   6.496   5.322   3.536  1.1677 -2.0016 -2.3001
 3813TIP3   OH232929   1.709   2.112  17.159  0.0769 -0.2778 -0.0767
 3813TIP3    H132930   1.652   2.176  17.117 -0.7352 -0.6976  0.3675
 3813TIP3    H232931   1.686   2.029  17.118 -0.1007 -0.5508  0.5748
 3814TIP3   OH232932   4.025   6.362  11.791 -0.6271 -0.7384 -0.0019
 3814TIP3    H132933   3.937   6.398  11.802 -0.0113  0.8408  0.0856
 3814TIP3    H232934   4.054   6.341  11.879 -0.9762 -1.4618 -0.0508
 3815TIP3   OH232935   4.404   3.240  14.860  1.0320  0.3560  0.0233
 3815TIP3    H132936   4.449   3.155  14.866  0.7960  0.2117 -0.2287
 3815TIP3    H232937   4.465   3.296  14.812  2.4103  1.1634  2.5128
 3816TIP3   OH232938   1.513   2.689   6.201 -0.0084 -0.0873 -0.4608
 3816TIP3    H132939   1.598   2.688   6.157  0.0249 -0.9828 -0.3950
 3816TIP3    H232940   1.523   2.629   6.275 -0.4218  0.5102  0.0927
 3817TIP3   OH232941   5.603   3.724  15.136  0.0194 -0.7989  0.1626
 3817TIP3    H132942   5.509   3.708  15.128 -0.2435  1.3072 -1.8794
 3817TIP3    H232943   5.614   3.818  15.118  2.6312 -1.1913 -0.7989
 3818TIP3   OH232944   3.285   2.110   0.185  0.0056 -0.4505  0.0254
 3818TIP3    H132945   3.253   2.181   0.240  0.1588  0.3755 -0.9164
 3818TIP3    H232946   3.208   2.077   0.139  0.0176 -0.5363  0.0665
 3819TIP3   OH232947   2.271   1.509  12.481  0.3429 -0.6800 -0.0658
 3819TIP3    H132948   2.315   1.475  12.559  0.6062 -1.7342 -0.6533
 3819TIP3    H232949   2.328   1.579  12.450  0.2910 -0.3204  0.6187
 3820TIP3   OH232950   1.096   2.828  11.714  0.1519  0.0575 -0.5021
 3820TIP3    H132951   1.117   2.801  11.625 -1.2617 -1.1978 -0.4881
 3820TIP3    H232952   1.004   2.854  11.711  0.5372  1.6900  0.2474
 3821TIP3   OH232953   4.965   2.387  12.892 -0.7036 -0.3216  0.9147
 3821TIP3    H132954   4.942   2.469  12.937 -0.7354  0.7363 -0.9597
 3821TIP3    H232955   4.882   2.355  12.858 -0.4889 -0.4229  0.4927
 3822TIP3   OH232956   0.301   4.758  12.238  0.3701  0.0536 -0.1934
 3822TIP3    H132957   0.256   4.673  12.236  0.1049  0.0471  2.5200
 3822TIP3    H232958   0.393   4.736  12.255 -0.0244  0.2798  2.6868
 3823TIP3   OH232959   3.174   2.693  12.206  0.1840  0.8710 -0.3393
 3823TIP3    H132960   3.256   2.711  12.159  1.5321  0.8588  1.8472
 3823TIP3    H232961   3.115   2.658  12.140  1.7376  1.4585 -2.1225
 3824TIP3   OH232962   5.022   5.353   0.074  0.0828 -0.1428  0.0737
 3824TIP3    H132963   5.063   5.377  -0.009 -0.3045 -0.8026 -0.3126
 3824TIP3    H232964   5.026   5.258   0.077  0.7474 -0.1010  1.1569
 3825TIP3   OH232965   2.780   2.476   0.809  0.1192 -0.1232  0.1322
 3825TIP3    H132966   2.798   2.419   0.883 -0.4275 -0.7545 -0.2133
 3825TIP3    H232967   2.835   2.442   0.738  0.6533  0.4883  0.2338
 3826TIP3   OH232968   1.110   2.829  11.368  0.3356  0.2910  0.1498
 3826TIP3    H132969   1.136   2.739  11.387  2.7936  0.7143 -0.8633
 3826TIP3    H232970   1.152   2.849  11.285 -0.2896  2.3309  0.2822
 3827TIP3   OH232971   4.385   0.359  10.559  0.6111  0.2751 -0.2767
 3827TIP3    H132972   4.323   0.326  10.624  1.5879 -0.7464  0.1591
 3827TIP3    H232973   4.343   0.341  10.475  1.4538 -3.0258 -0.1235
 3828TIP3   OH232974   5.254   2.065   2.428  0.8234 -0.5804  0.0722
 3828TIP3    H132975   5.168   2.095   2.400  1.2295  2.0415  1.3407
 3828TIP3    H232976   5.315   2.099   2.362  1.0191 -1.3715 -0.1656
 3829TIP3   OH232977   5.940   1.214  15.948  0.2497 -0.0919 -0.6198
 3829TIP3    H132978   5.993   1.199  16.026  0.4432  1.4607 -0.4044
 3829TIP3    H232979   5.900   1.130  15.929  0.4419 -0.5842  0.9791
 3830TIP3   OH232980   4.804   3.152  14.442 -0.1450  0.0735 -0.2571
 3830TIP3    H132981   4.770   3.224  14.388 -0.5083  0.1907  0.1235
 3830TIP3    H232982   4.727   3.098  14.460 -0.3904  0.9639  1.5956
 3831TIP3   OH232983   0.272   1.992  15.892 -0.0102 -0.2060  0.3288
 3831TIP3    H132984   0.225   1.999  15.809  0.4147  1.0701  0.1661
 3831TIP3    H232985   0.314   1.906  15.889  1.1628  0.3720 -1.4292
 3832TIP3   OH232986   1.033   4.096   3.345 -0.2881 -0.3327 -0.0219
 3832TIP3    H132987   0.992   4.174   3.308 -0.5915 -0.3287  0.3200
 3832TIP3    H232988   1.075   4.053   3.270  0.1479  0.3163 -0.1657
 3833TIP3   OH232989   2.441   1.246  12.768  0.3204 -0.3741 -0.7048
 3833TIP3    H132990   2.410   1.175  12.824 -0.8719  0.3144 -0.4580
 3833TIP3    H232991   2.426   1.214  12.679  0.4443 -0.7020 -0.6103
 3834TIP3   OH232992   5.537   0.143   5.341  0.0812 -0.2123  0.5075
 3834TIP3    H132993   5.604   0.211   5.344 -0.8520  0.7819 -0.2753
 3834TIP3    H232994   5.545   0.098   5.425  1.7128 -0.1290  0.4293
 3835TIP3   OH232995   0.854   6.814   1.399 -0.0936  0.6611  0.2810
 3835TIP3    H132996   0.932   6.758   1.400 -0.4122  0.1947  2.1501
 3835TIP3    H232997   0.882   6.891   1.350  1.0560 -0.1436 -0.4116
 3836TIP3   OH232998   2.296   5.492  14.787 -0.0642  0.1431 -0.2725
 3836TIP3    H132999   2.289   5.564  14.724 -0.5010 -0.5115 -0.9962
 3836TIP3    H233000   2.350   5.427  14.741  2.0474  0.8066  1.1393
 3837TIP3   OH233001   5.731   5.678  11.948  0.0264 -0.3347  0.0854
 3837TIP3    H133002   5.776   5.600  11.982  0.4943 -0.1108 -0.0192
 3837TIP3    H233003   5.758   5.749  12.005  0.5847 -0.0115 -0.5678
 3838TIP3   OH233004   6.264   0.816  13.280 -0.1744  0.0310  0.2983
 3838TIP3    H133005   6.316   0.755  13.331 -0.6306 -1.1086 -0.5714
 3838TIP3    H233006   6.329   0.867  13.230  0.1604 -2.6362 -2.2247
 3839TIP3   OH233007   0.995   4.086   6.072  0.1648 -0.0503  0.1215
 3839TIP3    H133008   1.015   4.025   6.142 -0.0125 -0.0781  0.1497
 3839TIP3    H233009   0.974   4.030   5.997 -1.4090 -0.0690  0.5306
 3840TIP3   OH233010   3.558   0.937   3.875  0.4885  0.1691  0.0709
 3840TIP3    H133011   3.547   0.950   3.781  1.0280 -0.6936 -0.1265
 3840TIP3    H233012   3.486   0.986   3.915 -0.7599 -0.8101 -0.8750
 3841TIP3   OH233013   3.479   0.303  13.029  0.0107 -0.4589  0.0114
 3841TIP3    H133014   3.441   0.341  12.949 -0.1274  0.0859  0.3293
 3841TIP3    H233015   3.419   0.233  13.054  0.3869 -1.0527 -0.7105
 3842TIP3   OH233016   4.137   1.342   0.350 -0.0815 -0.1737 -0.1261
 3842TIP3    H133017   4.086   1.302   0.420  0.4584 -0.1047  0.3176
 3842TIP3    H233018   4.228   1.331   0.378  0.1216  0.2485 -0.6023
 3843TIP3   OH233019   5.931   1.163  13.473 -0.1832  0.0344 -0.2881
 3843TIP3    H133020   5.926   1.115  13.390 -0.6779  0.2619 -0.3919
 3843TIP3    H233021   5.840   1.180  13.497 -0.0161  1.9588 -0.8607
 3844TIP3   OH233022   0.997   2.622  11.882 -0.1312 -1.6433 -0.2204
 3844TIP3    H133023   1.035   2.699  11.837  0.2331 -1.4371  0.4235
 3844TIP3    H233024   1.032   2.547  11.834  3.3157 -1.5934  1.8760
 3845TIP3   OH233025   0.123   1.435  16.396 -0.2533  0.3662  0.9841
 3845TIP3    H133026   0.073   1.364  16.355  2.1592 -0.4668 -0.7643
 3845TIP3    H233027   0.183   1.464  16.327  0.5757  2.3716  2.4758
 3846TIP3   OH233028   4.235   4.866  16.098 -0.3701 -0.3431 -0.1921
 3846TIP3    H133029   4.297   4.834  16.032 -0.8853 -0.6670 -0.5181
 3846TIP3    H233030   4.198   4.946  16.060  2.0976  1.6750  1.2677
 3847TIP3   OH233031   3.474   1.594  14.959 -0.1569 -0.3261 -0.8767
 3847TIP3    H133032   3.459   1.656  14.887  1.3544  1.8499  0.5468
 3847TIP3    H233033   3.535   1.530  14.923 -0.5888 -0.1466 -1.9680
 3848TIP3   OH233034   1.275   5.914   0.773  0.1517  0.3475 -0.2714
 3848TIP3    H133035   1.331   5.951   0.705  0.0261 -0.2645 -0.7183
 3848TIP3    H233036   1.259   5.986   0.834 -0.1545  1.0457 -1.1589
 3849TIP3   OH233037   5.045   6.782   4.939  0.8492  0.0445 -0.2482
 3849TIP3    H133038   4.982   6.762   4.870  0.4051 -1.0588  0.4487
 3849TIP3    H233039   4.997   6.841   4.998 -0.0335 -1.7531  0.9386
 3850TIP3   OH233040   5.351   6.231   6.138  0.2997 -0.2525 -0.4091
 3850TIP3    H133041   5.338   6.174   6.062  0.5027  0.9251 -1.3504
 3850TIP3    H233042   5.264   6.236   6.179 -0.1924  0.3689 -1.4921
 3851TIP3   OH233043   5.958   3.858  11.587  0.0132 -0.0065 -0.0313
 3851TIP3    H133044   6.001   3.916  11.651  0.2523 -0.8974  0.6285
 3851TIP3    H233045   5.949   3.912  11.509 -1.9846  1.7727  1.3021
 3852TIP3   OH233046   5.702   0.238  12.598 -0.2855 -0.0025 -0.0911
 3852TIP3    H133047   5.712   0.333  12.600  0.4036  0.0498 -2.7595
 3852TIP3    H233048   5.784   0.204  12.633 -0.1952  0.3599  0.0537
 3853TIP3   OH233049   2.196   6.468   1.245  0.9857  0.0594 -0.3888
 3853TIP3    H133050   2.255   6.447   1.318 -0.7144  1.2820  1.4257
 3853TIP3    H233051   2.124   6.407   1.255 -0.2578  1.5647  0.2829
 3854TIP3   OH233052   4.656   3.588  11.659  0.4706 -0.1325  0.5747
 3854TIP3    H133053   4.674   3.630  11.743  0.0812  1.7571 -0.2311
 3854TIP3    H233054   4.584   3.527  11.678  1.0590 -0.4817  1.7953
 3855TIP3   OH233055   4.847   6.816  16.260 -0.0379  0.1343 -0.1566
 3855TIP3    H133056   4.800   6.894  16.291 -0.4030 -0.4366  0.7853
 3855TIP3    H233057   4.836   6.818  16.165 -0.9430  0.6692 -0.0551
 3856TIP3   OH233058   6.520   0.471   1.855  0.3357  0.0434 -0.1649
 3856TIP3    H133059   6.587   0.458   1.922  0.4556 -0.2977 -0.3502
 3856TIP3    H233060   6.491   0.383   1.832  1.0106  0.0866 -1.2783
 3857TIP3   OH233061   6.455   2.610   4.232  0.4570  0.0239 -0.2692
 3857TIP3    H133062   6.363   2.630   4.218  0.0437 -2.3482 -1.4758
 3857TIP3    H233063   6.494   2.693   4.258 -1.9968  1.0958  0.2435
 3858TIP3   OH233064   3.681   0.036   0.983 -0.1406  0.1568 -0.1493
 3858TIP3    H133065   3.680   0.112   1.041 -0.2075  0.7046 -0.8561
 3858TIP3    H233066   3.626  -0.029   1.027 -1.4760  1.1243 -0.3234
 3859TIP3   OH233067   0.108   1.406   3.967  0.2971  0.0234 -0.1812
 3859TIP3    H133068   0.129   1.316   3.943 -2.5298 -0.1298 -2.6918
 3859TIP3    H233069   0.046   1.398   4.039 -0.9540 -0.1701 -1.2447
 3860TIP3   OH233070   6.789   4.190   1.760  0.2763 -0.2574  0.7572
 3860TIP3    H133071   6.771   4.102   1.726 -1.4286  1.1592 -2.5744
 3860TIP3    H233072   6.705   4.220   1.794  0.0395  1.0155 -0.8102
 3861TIP3   OH233073   2.621   1.861   0.080 -0.1986 -0.7687  0.2728
 3861TIP3    H133074   2.534   1.900   0.086  0.4733  0.7847  0.4188
 3861TIP3    H233075   2.605   1.767   0.074 -1.8365 -0.6168  1.5978
 3862TIP3   OH233076   0.501   2.735   5.202 -0.4769  0.7422 -0.2685
 3862TIP3    H133077   0.464   2.647   5.210  0.1624  0.5157  0.3298
 3862TIP3    H233078   0.596   2.721   5.195 -0.2568  1.4145  0.9554
 3863TIP3   OH233079   1.959   2.741   2.367  0.6624 -0.1898 -0.4113
 3863TIP3    H133080   1.970   2.647   2.352 -0.7724 -0.3173 -0.8437
 3863TIP3    H233081   1.977   2.781   2.281 -1.8395 -0.3987 -1.1202
 3864TIP3   OH233082   3.959   1.165   1.959 -0.5613 -0.5876 -0.0725
 3864TIP3    H133083   4.053   1.151   1.954 -0.6286 -0.7338 -1.4290
 3864TIP3    H233084   3.922   1.077   1.968 -0.6421 -0.7336 -1.5564
 3865TIP3   OH233085   6.041   4.301  13.447  0.3691  0.5964  0.3858
 3865TIP3    H133086   6.067   4.374  13.503 -0.4309  1.0829  0.1425
 3865TIP3    H233087   5.950   4.319  13.425 -0.0244 -0.7857  0.8034
 3866TIP3   OH233088   0.843   5.151   5.631  0.7377 -0.1597 -0.5693
 3866TIP3    H133089   0.878   5.156   5.720 -0.1228  0.2065 -0.2373
 3866TIP3    H233090   0.920   5.152   5.574  1.2581  1.0416  0.1274
 3867TIP3   OH233091   6.818   1.306   4.556 -0.0148 -0.0764  0.2716
 3867TIP3    H133092   6.883   1.374   4.536  0.5123 -0.2178  1.4442
 3867TIP3    H233093   6.860   1.225   4.527 -0.2136 -0.0239 -0.1693
 3868TIP3   OH233094   4.099   1.976   1.882  0.4881 -0.3057 -0.1686
 3868TIP3    H133095   4.010   1.965   1.847  0.5114  0.2706 -0.4264
 3868TIP3    H233096   4.136   2.047   1.830  1.1963 -0.7223 -0.2430
 3869TIP3   OH233097   1.608   0.880   0.335  0.3973  0.5620  0.1473
 3869TIP3    H133098   1.668   0.925   0.275  1.3583 -0.2683  0.4445
 3869TIP3    H233099   1.534   0.854   0.281  1.4527 -0.5755 -0.8174
 3870TIP3   OH233100   5.037   3.458  13.382 -0.2689 -0.4487 -0.2966
 3870TIP3    H133101   5.124   3.464  13.420 -0.2806 -0.7655 -0.2156
 3870TIP3    H233102   4.994   3.388  13.431 -0.3391 -0.7513 -0.7810
 3871TIP3   OH233103   0.433   0.200   3.586  0.1543 -0.3845 -0.4757
 3871TIP3    H133104   0.368   0.157   3.641  0.9056 -0.8116  0.0998
 3871TIP3    H233105   0.387   0.276   3.549  0.0360  0.8877  2.0330
 3872TIP3   OH233106   3.656   0.232   3.686  0.4436  0.0750 -0.4610
 3872TIP3    H133107   3.679   0.308   3.632  0.3885  1.5650  1.5184
 3872TIP3    H233108   3.740   0.194   3.710  0.4988 -0.0091 -0.7788
 3873TIP3   OH233109   0.993   1.334   5.546  0.1034 -0.6794  0.7302
 3873TIP3    H133110   1.055   1.405   5.531  0.0393 -0.5010  1.2937
 3873TIP3    H233111   1.037   1.256   5.512 -0.6851 -0.0673 -1.8800
 3874TIP3   OH233112   4.385   4.605   5.935 -0.7209  0.0830 -0.0579
 3874TIP3    H133113   4.387   4.700   5.922  1.3506 -0.1817 -2.2737
 3874TIP3    H233114   4.337   4.571   5.859 -0.3297 -0.7077  0.0330
 3875TIP3   OH233115   1.436   5.294   5.859 -0.1280  0.4237  0.2476
 3875TIP3    H133116   1.482   5.252   5.786  0.3435  1.2242  0.0758
 3875TIP3    H233117   1.355   5.244   5.868 -0.5479  0.7733 -1.2972
 3876TIP3   OH233118   0.919   6.601  15.134  0.1969  0.1680  0.3221
 3876TIP3    H133119   0.891   6.521  15.089  1.9132 -0.4110  0.2157
 3876TIP3    H233120   0.959   6.570  15.215  2.6922  0.7130 -0.6167
 3877TIP3   OH233121   0.980   5.196   3.650  0.1015  0.4070  0.0751
 3877TIP3    H133122   0.903   5.156   3.689 -0.1675  0.1321 -0.7175
 3877TIP3    H233123   1.045   5.197   3.721 -0.7456  1.0046  0.8534
 3878TIP3   OH233124   2.890   1.387   0.103 -0.3657  0.5769  0.0186
 3878TIP3    H133125   2.808   1.394   0.153 -0.5328 -0.8105 -0.0449
 3878TIP3    H233126   2.865   1.411   0.014 -0.5492  0.8190  0.1326
 3879TIP3   OH233127   4.633   5.826   0.057 -0.1478 -0.0906 -0.5020
 3879TIP3    H133128   4.582   5.813   0.137 -1.0136  0.8125 -0.8909
 3879TIP3    H233129   4.568   5.844  -0.011  0.5729 -0.7602 -1.4116
 3880TIP3   OH233130   1.666   0.252   1.705  0.0850  0.1555 -0.2106
 3880TIP3    H133131   1.683   0.320   1.769  1.8648  0.3347 -0.8079
 3880TIP3    H233132   1.643   0.299   1.625  0.4432  0.0461 -0.3842
 3881TIP3   OH233133   0.363   1.510  14.843  0.7016  0.2759  0.0362
 3881TIP3    H133134   0.458   1.501  14.839  0.6651 -1.1328  1.3609
 3881TIP3    H233135   0.332   1.427  14.880 -1.2668 -0.2435 -2.4971
 3882TIP3   OH233136   3.102   0.449   2.641  0.4981  0.1950 -0.2015
 3882TIP3    H133137   3.095   0.359   2.609 -0.6801  0.8760 -1.9957
 3882TIP3    H233138   3.036   0.455   2.711  0.6348 -0.3403 -0.0220
 3883TIP3   OH233139   2.731   0.650   4.965 -0.2062  0.2727  0.4829
 3883TIP3    H133140   2.818   0.672   4.998  0.2563 -0.5784 -0.1305
 3883TIP3    H233141   2.732   0.675   4.873  0.2882 -2.0153 -0.2020
 3884TIP3   OH233142   1.461   2.663  12.922 -0.2138  0.0208 -0.2620
 3884TIP3    H133143   1.497   2.744  12.886  1.8033 -1.0011 -0.6580
 3884TIP3    H233144   1.532   2.624  12.972 -0.9065 -1.8285 -0.6182
 3885TIP3   OH233145   4.643   4.419  12.176  0.6370 -0.8717 -0.1128
 3885TIP3    H133146   4.634   4.494  12.118  1.2447 -0.9229 -0.2792
 3885TIP3    H233147   4.591   4.350  12.136 -0.3770 -0.3784  0.3303
 3886TIP3   OH233148   0.214   5.316   4.373 -0.0119  0.2473 -0.3567
 3886TIP3    H133149   0.303   5.307   4.408  0.6522 -1.5022 -2.2703
 3886TIP3    H233150   0.173   5.232   4.389 -0.7444  0.4726 -0.9631
 3887TIP3   OH233151   1.264   5.230   4.709  0.3917  0.0066  0.4113
 3887TIP3    H133152   1.199   5.217   4.777  0.6115  1.4239  0.9419
 3887TIP3    H233153   1.347   5.203   4.748  0.3505 -0.2558  0.3140
 3888TIP3   OH233154   0.999   0.448  13.124  0.5052 -0.0676  0.5273
 3888TIP3    H133155   1.040   0.375  13.171  1.6928  1.9564  2.8560
 3888TIP3    H233156   0.905   0.432  13.133  0.6212 -2.8106 -1.6568
 3889TIP3   OH233157   1.264   5.420  11.945  0.2809 -0.1785  0.2075
 3889TIP3    H133158   1.310   5.478  11.885 -0.7755 -0.6968 -1.1682
 3889TIP3    H233159   1.333   5.379  11.997  1.1201  1.4379  0.4464
 3890TIP3   OH233160   2.465   1.540   2.125  0.4079 -0.1505 -0.2984
 3890TIP3    H133161   2.510   1.580   2.050  3.6756 -0.3447  1.3543
 3890TIP3    H233162   2.448   1.450   2.097 -0.4442  0.3674 -1.5367
 3891TIP3   OH233163   4.390   4.850  13.875  0.0455  0.4643  0.0898
 3891TIP3    H133164   4.396   4.763  13.836 -0.3227  0.6785 -0.4520
 3891TIP3    H233165   4.309   4.849  13.926 -0.2906  0.6888 -0.4307
 3892TIP3   OH233166   3.628   3.086   1.089  0.0184 -0.5212 -0.3679
 3892TIP3    H133167   3.705   3.031   1.075 -0.8166 -2.1643  1.0054
 3892TIP3    H233168   3.558   3.023   1.107 -1.1247  1.0096  0.7539
 3893TIP3   OH233169   6.386   4.266   5.481 -0.0822  0.2160  0.0075
 3893TIP3    H133170   6.439   4.345   5.468 -0.4364  0.4003 -0.3133
 3893TIP3    H233171   6.337   4.282   5.562 -0.8266  0.7013 -0.5311
 3894TIP3   OH233172   3.162   0.856  12.382 -0.0219  0.4075  0.6064
 3894TIP3    H133173   3.127   0.938  12.418  1.8448  0.7328  1.8669
 3894TIP3    H233174   3.256   0.860  12.402  0.6741 -0.6413 -2.0846
 3895TIP3   OH233175   0.310   6.171  12.834  0.3624  0.2634 -0.2916
 3895TIP3    H133176   0.334   6.108  12.766 -0.1545  0.4183 -0.6274
 3895TIP3    H233177   0.216   6.159  12.846 -0.1141  2.1293 -1.6148
 3896TIP3   OH233178   0.465   3.779  16.729 -0.8557 -0.4057 -0.1639
 3896TIP3    H133179   0.497   3.759  16.817  0.3783  0.5823 -0.3573
 3896TIP3    H233180   0.541   3.763  16.672  0.9167  5.7704 -0.2434
 3897TIP3   OH233181   2.012   6.216   2.991  0.1556  0.1901  0.2733
 3897TIP3    H133182   1.957   6.156   3.041 -0.7702  1.9022  1.3815
 3897TIP3    H233183   2.045   6.279   3.055 -0.8679  2.3134 -1.1653
 3898TIP3   OH233184   6.086   1.072  15.630 -0.1209 -0.3156  0.7948
 3898TIP3    H133185   6.006   1.048  15.678 -0.0130 -0.8343  0.7200
 3898TIP3    H233186   6.092   1.007  15.560 -0.8859  1.0747 -0.6388
 3899TIP3   OH233187   2.580   6.170   1.074  0.2106  0.0143 -0.2056
 3899TIP3    H133188   2.632   6.239   1.033  0.7516 -0.6160 -0.5968
 3899TIP3    H233189   2.541   6.122   1.001  1.0100 -0.9847 -0.0006
 3900TIP3   OH233190   0.276   5.726   3.423  0.6465 -0.3910  0.6189
 3900TIP3    H133191   0.331   5.739   3.500  1.0641  1.1617  0.0931
 3900TIP3    H233192   0.333   5.750   3.349  0.5020 -2.5451 -0.2657
 3901TIP3   OH233193   4.712   2.445   2.107  0.2949  0.3198  0.2000
 3901TIP3    H133194   4.668   2.430   2.024 -0.2219  0.2247  0.4834
 3901TIP3    H233195   4.658   2.398   2.171  0.5871  0.5399  0.6121
 3902TIP3   OH233196   6.366   4.359  13.223 -0.0092  0.7742  0.0791
 3902TIP3    H133197   6.400   4.433  13.171 -1.8042  0.6691 -1.3597
 3902TIP3    H233198   6.334   4.399  13.303  1.8976  1.0854  0.7377
 3903TIP3   OH233199   4.706   6.218  14.728  0.4020 -0.2992 -0.6577
 3903TIP3    H133200   4.678   6.304  14.697  0.4257 -0.0140  0.0910
 3903TIP3    H233201   4.640   6.158  14.694 -2.1895  0.5464  2.3848
 3904TIP3   OH233202   1.311   5.768   1.440  0.3204  0.4752 -0.1714
 3904TIP3    H133203   1.359   5.724   1.369  1.1915  1.6548 -0.3428
 3904TIP3    H233204   1.378   5.786   1.505  0.1283  2.1586 -0.4140
 3905TIP3   OH233205   0.180   2.188  11.528 -0.8191 -0.1461  0.2515
 3905TIP3    H133206   0.140   2.189  11.615  0.8079  0.4673  1.0443
 3905TIP3    H233207   0.166   2.099  11.496 -2.3030 -0.0923  0.7100
 3906TIP3   OH233208   2.044   0.724  12.291  0.4829  0.4184 -0.3614
 3906TIP3    H133209   1.967   0.707  12.236  0.5846 -0.4853 -0.2248
 3906TIP3    H233210   2.064   0.640  12.331  2.4229  0.2963 -1.4958
 3907TIP3   OH233211   5.571   1.158  12.383  0.1082 -0.0955 -0.0417
 3907TIP3    H133212   5.633   1.116  12.324 -0.6238 -0.4383 -0.5908
 3907TIP3    H233213   5.578   1.109  12.465  0.9133  0.1882  0.0619
 3908TIP3   OH233214   0.102   1.199   4.853  0.4779  0.8824 -0.0564
 3908TIP3    H133215   0.121   1.252   4.775 -0.6689  0.0662 -0.9117
 3908TIP3    H233216   0.158   1.122   4.844 -1.6855 -0.6076 -1.6064
 3909TIP3   OH233217   2.555   1.681  11.758  0.4086 -0.2239  0.4790
 3909TIP3    H133218   2.588   1.674  11.848 -1.1662  2.1328  1.3339
 3909TIP3    H233219   2.490   1.611  11.751  1.7778 -1.5461  0.5327
 3910TIP3   OH233220   3.230   2.347  16.923  0.6853 -0.2489 -0.3460
 3910TIP3    H133221   3.260   2.301  17.002  2.2563 -0.4731 -1.0193
 3910TIP3    H233222   3.246   2.439  16.941 -2.1247  0.1079  0.8587
 3911TIP3   OH233223   1.213   0.192  11.954 -0.0021 -0.3865 -0.1058
 3911TIP3    H133224   1.187   0.210  11.863  2.3413  1.5364 -0.4862
 3911TIP3    H233225   1.306   0.170  11.949 -0.0675 -1.2731  1.7600
 3912TIP3   OH233226   0.754   2.970  17.216 -0.0953 -0.6586  0.0307
 3912TIP3    H133227   0.690   2.900  17.234  0.4954 -1.2350 -0.0747
 3912TIP3    H233228   0.728   3.041  17.274 -1.2099 -0.6471 -0.4518
 3913TIP3   OH233229   4.143   4.321  11.778  0.3274  0.2795  0.3811
 3913TIP3    H133230   4.122   4.293  11.689  0.8544  0.7489  0.1005
 3913TIP3    H233231   4.152   4.416  11.772  1.3129  0.2189  0.7295
 3914TIP3   OH233232   0.484   2.143  16.995  0.1993  0.0186 -0.2377
 3914TIP3    H133233   0.529   2.227  17.006 -0.6104  0.2558  1.7530
 3914TIP3    H233234   0.392   2.163  17.013 -0.1563 -1.1153 -0.7303
 3915TIP3   OH233235   3.386   6.686  16.197 -0.1430  0.0367  0.1575
 3915TIP3    H133236   3.415   6.777  16.207  2.0408 -0.4044 -1.4137
 3915TIP3    H233237   3.384   6.673  16.102 -1.7301 -1.2021  0.3229
 3916TIP3   OH233238   4.168   0.077   1.619 -0.4819  0.4063  0.0001
 3916TIP3    H133239   4.179   0.131   1.541  0.4019  2.1418  1.2357
 3916TIP3    H233240   4.192  -0.011   1.592  0.6483  1.1265 -1.4641
 3917TIP3   OH233241   0.635   2.309  15.984 -0.4533  0.0506 -0.3676
 3917TIP3    H133242   0.652   2.388  15.933  0.8007 -0.3646 -0.6116
 3917TIP3    H233243   0.661   2.332  16.073 -0.0373 -0.1004 -0.4491
 3918TIP3   OH233244   6.664   4.022  14.375  0.3917  0.4645 -0.3506
 3918TIP3    H133245   6.612   3.996  14.451 -0.9882  0.8519 -1.1257
 3918TIP3    H233246   6.744   3.971  14.382 -1.3358 -2.5196 -0.7098
 3919TIP3   OH233247   0.686   1.999   3.592  0.3947  0.9174 -0.0304
 3919TIP3    H133248   0.665   2.011   3.684 -2.1916 -2.0594 -0.0493
 3919TIP3    H233249   0.626   2.058   3.545 -3.0638 -2.1102  0.1732
 3920TIP3   OH233250   5.902   3.349   0.958  0.0214 -0.0989  0.6680
 3920TIP3    H133251   5.905   3.417   1.025 -2.4107  0.5096  0.2664
 3920TIP3    H233252   5.985   3.302   0.967  1.5459  2.5614  1.2873
 3921TIP3   OH233253   3.238   4.743   5.484  0.4962  0.6754 -0.1999
 3921TIP3    H133254   3.187   4.818   5.514  0.5992  0.6993 -0.0861
 3921TIP3    H233255   3.238   4.683   5.558 -3.3396 -1.4391 -1.6492
 3922TIP3   OH233256   6.730   4.578  16.225  0.5097  0.0107  0.7332
 3922TIP3    H133257   6.700   4.493  16.255 -0.4145  0.3916  0.9178
 3922TIP3    H233258   6.709   4.638  16.296  1.6910  0.3127  0.8547
 3923TIP3   OH233259   1.632   4.423   5.865 -0.4212 -0.2511 -0.1515
 3923TIP3    H133260   1.611   4.491   5.801  0.2682  0.3008  0.2038
 3923TIP3    H233261   1.726   4.429   5.877 -0.1854 -1.9393 -0.8610
 3924TIP3   OH233262   4.407   3.293  17.089  0.3211  0.0345  0.1414
 3924TIP3    H133263   4.327   3.317  17.043  1.1822  1.7632 -0.5339
 3924TIP3    H233264   4.381   3.220  17.146 -1.4100 -0.2868 -0.9957
 3925TIP3   OH233265   3.555   1.512   1.081  0.1395 -0.3302 -0.0326
 3925TIP3    H133266   3.491   1.465   1.027 -0.5608  0.8274 -0.2541
 3925TIP3    H233267   3.578   1.589   1.029 -0.1526  0.5400  1.0868
 3926TIP3   OH233268   0.031   6.445   5.406 -0.0508  0.1316 -0.1846
 3926TIP3    H133269   0.047   6.397   5.325 -1.0665 -0.0492 -0.2923
 3926TIP3    H233270   0.020   6.377   5.472  0.1332  0.2658 -0.0130
 3927TIP3   OH233271   2.684   6.676   1.748 -0.0557 -0.6898  0.2913
 3927TIP3    H133272   2.611   6.645   1.694  0.2609  1.0395 -1.2306
 3927TIP3    H233273   2.702   6.764   1.715  3.4617 -1.4595 -0.1507
 3928TIP3   OH233274   4.906   4.906   6.684  0.2001  0.0852  0.3658
 3928TIP3    H133275   5.001   4.904   6.676  0.0723 -0.3975 -1.3379
 3928TIP3    H233276   4.881   4.993   6.652  0.1035  0.5390  1.6094
 3929TIP3   OH233277   0.491   5.073  12.325  0.1360 -0.7593 -0.2343
 3929TIP3    H133278   0.558   5.141  12.336  0.6289 -0.8397 -2.3598
 3929TIP3    H233279   0.408   5.117  12.344  0.4713  0.4059 -1.3617
 3930TIP3   OH233280   1.698   0.267  15.977  0.0050  0.0185 -0.6386
 3930TIP3    H133281   1.755   0.300  16.047  1.1605 -2.8378 -0.0983
 3930TIP3    H233282   1.621   0.234  16.023 -0.4067  0.4682 -0.9990
 3931TIP3   OH233283   3.378   1.109   3.972 -0.1364 -0.2870  0.1095
 3931TIP3    H133284   3.290   1.142   3.957  0.2011  0.3733 -0.4853
 3931TIP3    H233285   3.412   1.162   4.044  0.3113  0.5120 -0.6719
 3932TIP3   OH233286   0.153   5.432   2.246  0.3879  0.6320 -1.0853
 3932TIP3    H133287   0.092   5.470   2.183 -1.0766  0.7447  0.3324
 3932TIP3    H233288   0.103   5.428   2.328  2.3968  1.0097  0.2157
 3933TIP3   OH233289   0.893   6.540  12.127 -0.0783 -0.2950 -0.0875
 3933TIP3    H133290   0.968   6.480  12.131 -1.0686 -1.5309  0.5540
 3933TIP3    H233291   0.866   6.540  12.036 -1.6127 -2.8662  0.2665
 3934TIP3   OH233292   4.139   2.079   5.811  0.2497  0.4754  0.1810
 3934TIP3    H133293   4.062   2.123   5.848  1.4209  0.9540  2.2458
 3934TIP3    H233294   4.163   2.131   5.734 -0.9573  0.8443  0.0446
 3935TIP3   OH233295   5.111   1.611  14.681 -0.4753  0.0549 -0.2767
 3935TIP3    H133296   5.108   1.664  14.602  0.5400  0.2404 -0.2015
 3935TIP3    H233297   5.127   1.673  14.751  0.3122 -0.2915 -0.1403
 3936TIP3   OH233298   2.029   2.009  12.025  0.4319  0.7255 -0.5411
 3936TIP3    H133299   1.964   1.986  11.959  0.1994  0.3660 -0.1835
 3936TIP3    H233300   1.987   1.990  12.109  2.0451 -2.4584 -0.3090
 3937TIP3   OH233301   6.786   6.318   3.802 -1.5307 -0.5987 -0.1373
 3937TIP3    H133302   6.796   6.262   3.725 -0.9322 -0.8198  0.0867
 3937TIP3    H233303   6.723   6.271   3.857 -0.8347 -1.2135  0.1681
 3938TIP3   OH233304   6.687   2.209   5.459  0.0912 -0.3148 -0.4983
 3938TIP3    H133305   6.742   2.271   5.413  0.4901 -0.1944  0.1277
 3938TIP3    H233306   6.733   2.192   5.541 -0.3908 -0.8493 -0.3308
 3939TIP3   OH233307   0.306   6.138  11.527  0.1174  0.3094 -0.2183
 3939TIP3    H133308   0.355   6.134  11.609  0.2541 -0.7688 -0.3409
 3939TIP3    H233309   0.374   6.144  11.459 -0.0036  1.6771 -0.2484
 3940TIP3   OH233310   5.206   4.400  16.725 -0.1721 -0.2032  0.2733
 3940TIP3    H133311   5.216   4.404  16.820 -1.3540  0.3683  0.3951
 3940TIP3    H233312   5.154   4.321  16.709  1.4528 -1.2399 -0.0541
 3941TIP3   OH233313   2.524   0.803  12.382 -0.3679 -0.2905  0.0311
 3941TIP3    H133314   2.528   0.707  12.388 -2.2268 -0.3784  0.5899
 3941TIP3    H233315   2.474   0.819  12.302 -1.0067  0.1824  0.5236
 3942TIP3   OH233316   3.782   4.008  15.510  0.0736 -0.2748  0.6105
 3942TIP3    H133317   3.869   4.047  15.519  1.1333 -2.7319  1.8150
 3942TIP3    H233318   3.726   4.062  15.566  0.9281  0.9647  0.3112
 3943TIP3   OH233319   6.794   0.578   2.475 -0.3745  0.2612 -0.0042
 3943TIP3    H133320   6.808   0.560   2.568 -1.3254  0.1084  0.1145
 3943TIP3    H233321   6.779   0.492   2.436  2.4879 -0.0076 -0.7829
 3944TIP3   OH233322   4.050   5.872  16.145 -0.5587  0.7008  1.0749
 3944TIP3    H133323   4.002   5.929  16.085 -0.6775  0.3735  0.8602
 3944TIP3    H233324   4.110   5.823  16.088 -1.0609 -0.0123  1.1562
 3945TIP3   OH233325   4.641   6.310   1.997  0.4397  0.8438 -0.1131
 3945TIP3    H133326   4.552   6.337   1.971 -0.0992  1.1464  1.8450
 3945TIP3    H233327   4.658   6.231   1.946 -1.9129 -0.5425  1.0648
 3946TIP3   OH233328   0.844   0.111  11.177 -0.1978 -0.1954 -0.0536
 3946TIP3    H133329   0.919   0.054  11.194  0.3762  0.1996 -1.2073
 3946TIP3    H233330   0.770   0.066  11.220  0.7611 -0.3226  1.5377
 3947TIP3   OH233331   5.941   4.479   4.621  0.1836 -0.4867  0.1407
 3947TIP3    H133332   5.863   4.435   4.588 -0.0372 -1.9378  2.3342
 3947TIP3    H233333   6.002   4.480   4.547 -1.2597 -0.9657 -1.0906
 3948TIP3   OH233334   1.066   4.183   3.037  0.4938 -1.1227 -0.3307
 3948TIP3    H133335   1.068   4.092   3.064  2.2924 -1.1107 -0.3340
 3948TIP3    H233336   1.047   4.232   3.117  3.1773 -1.2796  0.4990
 3949TIP3   OH233337   5.092   5.533  12.045 -0.2381  0.7981 -0.3827
 3949TIP3    H133338   5.176   5.494  12.022 -1.2091 -0.4321 -2.0646
 3949TIP3    H233339   5.094   5.620  12.003 -0.4114  0.1412 -1.8061
 3950TIP3   OH233340   2.049   5.237  15.909  0.0809  0.1397 -0.6422
 3950TIP3    H133341   1.995   5.246  15.830  0.2717  0.0788 -0.7814
 3950TIP3    H233342   2.076   5.327  15.929 -0.2594  0.1954 -0.4406
 3951TIP3   OH233343   3.342   2.940  15.083 -0.0404  0.3456  0.0070
 3951TIP3    H133344   3.397   3.018  15.080  0.2532  0.1239 -1.1003
 3951TIP3    H233345   3.256   2.972  15.113 -0.2545  1.3229 -1.5218
 3952TIP3   OH233346   1.467   2.275   3.392  0.1435  0.3744 -0.3495
 3952TIP3    H133347   1.454   2.184   3.364 -0.7545 -0.3969  2.3164
 3952TIP3    H233348   1.387   2.320   3.366  0.0534  0.1120 -0.5338
 3953TIP3   OH233349   3.093   2.942  12.111 -0.2585  0.6155 -0.0917
 3953TIP3    H133350   3.002   2.917  12.101  0.1017 -0.9195  0.1256
 3953TIP3    H233351   3.136   2.864  12.146  1.1461  1.2784 -0.2291
 3954TIP3   OH233352   0.492   1.395   4.077  0.1893 -0.2367  0.2623
 3954TIP3    H133353   0.406   1.402   4.119  0.4145  0.3954  0.6200
 3954TIP3    H233354   0.551   1.370   4.147  0.0956 -1.9463 -0.2270
 3955TIP3   OH233355   2.879   4.936   3.824  0.6175  0.1246 -0.3909
 3955TIP3    H133356   2.958   4.981   3.794 -0.2521  1.3957 -0.8474
 3955TIP3    H233357   2.843   4.994   3.892 -0.0216 -0.3555 -0.3100
 3956TIP3   OH233358   4.991   0.117   2.145 -0.0926  0.8419 -0.0475
 3956TIP3    H133359   4.952   0.092   2.061  1.7755 -0.4456 -0.5868
 3956TIP3    H233360   5.085   0.123   2.127  0.3263  0.6811  1.9146
 3957TIP3   OH233361   1.588   4.755   3.500  0.9164 -0.2296  0.0359
 3957TIP3    H133362   1.679   4.727   3.508  1.3384  0.8262 -0.7709
 3957TIP3    H233363   1.560   4.773   3.589  1.4982 -0.5796  0.2892
 3958TIP3   OH233364   5.791   0.162  13.617 -0.3047 -0.1608 -0.8489
 3958TIP3    H133365   5.779   0.084  13.671 -0.4151 -0.3655 -1.1733
 3958TIP3    H233366   5.793   0.234  13.680 -0.4913 -0.3944 -0.5741
 3959TIP3   OH233367   0.902   0.161  16.645  0.6887 -0.5771 -0.0146
 3959TIP3    H133368   0.809   0.137  16.634  0.3399  0.3593  0.7829
 3959TIP3    H233369   0.902   0.224  16.716  1.8421  0.1275 -0.6193
 3960TIP3   OH233370   1.691   4.950   2.581  0.1840  0.6702  0.2538
 3960TIP3    H133371   1.705   5.044   2.567 -1.1817  0.7713 -0.7308
 3960TIP3    H233372   1.611   4.945   2.633  0.4244  0.0602  0.5730
 3961TIP3   OH233373   1.049   0.864  17.003 -0.0939 -0.5106 -0.3708
 3961TIP3    H133374   1.065   0.883  16.911  2.2786 -2.2597 -0.4169
 3961TIP3    H233375   1.119   0.802  17.027 -1.3143 -0.9846  2.2970
 3962TIP3   OH233376   0.905   6.094  10.435 -0.2311  0.0913 -0.0182
 3962TIP3    H133377   0.982   6.043  10.412  0.0244  0.9231 -1.0704
 3962TIP3    H233378   0.933   6.185  10.429 -1.3041  0.4115 -0.5210
 3963TIP3   OH233379   5.041   5.601   4.539  0.2853 -0.3036 -0.0586
 3963TIP3    H133380   4.966   5.578   4.594 -0.4038  2.0121  0.0831
 3963TIP3    H233381   5.010   5.585   4.449  0.5863 -1.8494  0.0900
 3964TIP3   OH233382   5.507   5.649  15.309  0.4057 -0.6690 -0.4246
 3964TIP3    H133383   5.499   5.649  15.405  0.5524 -0.1784 -0.4094
 3964TIP3    H233384   5.460   5.569  15.282 -0.6237 -0.2282 -0.0226
 3965TIP3   OH233385   3.422   2.592  13.287 -0.1382 -0.1263 -0.1664
 3965TIP3    H133386   3.366   2.517  13.310  0.5815 -0.9141 -0.9019
 3965TIP3    H233387   3.507   2.570  13.325 -0.2094  0.8795  0.6048
 3966TIP3   OH233388   4.996   0.604  12.993 -0.0923  0.2759  0.1260
 3966TIP3    H133389   4.933   0.606  13.065 -1.0223 -0.1245 -0.6698
 3966TIP3    H233390   4.985   0.689  12.950 -1.2942 -0.4489 -1.0279
 3967TIP3   OH233391   5.355   0.267   4.894  0.0942 -0.3126  0.3474
 3967TIP3    H133392   5.267   0.303   4.909 -0.0558  0.0642 -1.2789
 3967TIP3    H233393   5.412   0.344   4.889  0.2135 -0.4438 -0.4192
 3968TIP3   OH233394   1.137   4.122   2.272  0.1455 -0.2869  0.5289
 3968TIP3    H133395   1.126   4.104   2.178  2.1678  1.5957 -0.1199
 3968TIP3    H233396   1.113   4.214   2.282 -0.5420 -0.5973  1.9869
 3969TIP3   OH233397   4.586   4.804  16.555 -0.2963 -0.3538  0.2717
 3969TIP3    H133398   4.649   4.804  16.483  2.0456  1.4783  2.1334
 3969TIP3    H233399   4.623   4.744  16.620 -0.7700  0.2756  1.1473
 3970TIP3   OH233400   0.451   1.153   5.023  0.1794  0.0153  0.5608
 3970TIP3    H133401   0.511   1.219   4.988  0.4406  0.4409  1.7414
 3970TIP3    H233402   0.465   1.157   5.118 -1.5588 -0.0418  0.8462
 3971TIP3   OH233403   1.040   0.200  13.666  0.2293  0.4450  0.0768
 3971TIP3    H133404   1.073   0.214  13.577 -0.5687 -0.2802 -0.3434
 3971TIP3    H233405   0.947   0.223  13.662  0.3781  1.2741  0.9547
 3972TIP3   OH233406   0.824   0.428   4.157  0.2500  0.4030  0.1301
 3972TIP3    H133407   0.900   0.460   4.109 -0.0428 -0.0867 -0.6855
 3972TIP3    H233408   0.839   0.455   4.248  2.1506 -1.0281  0.2928
 3973TIP3   OH233409   0.428   5.433   1.894 -0.0318  0.6616  0.1158
 3973TIP3    H133410   0.462   5.387   1.971 -0.6095  1.2099  0.7087
 3973TIP3    H233411   0.401   5.518   1.928 -1.7537  0.3402 -0.3830
 3974TIP3   OH233412   2.693   5.284  14.531 -0.1530 -0.3917  0.2818
 3974TIP3    H133413   2.771   5.228  14.529  0.1518 -0.0456  1.4833
 3974TIP3    H233414   2.657   5.278  14.443  2.4620  1.1562 -1.0369
 3975TIP3   OH233415   1.279   4.364   5.051 -1.0164 -0.2895 -0.1651
 3975TIP3    H133416   1.312   4.426   4.987 -0.6940 -1.4783 -1.1852
 3975TIP3    H233417   1.350   4.354   5.115 -0.9478  0.1306 -0.1769
 3976TIP3   OH233418   0.947   4.019  17.242  0.6918  0.1989 -0.0050
 3976TIP3    H133419   1.013   4.008  17.310  1.0322 -0.1246 -0.3854
 3976TIP3    H233420   0.890   3.942  17.251 -0.4071  1.0954  1.1466
 3977TIP3   OH233421   4.340   4.462  15.741 -0.3981 -0.2267  0.0497
 3977TIP3    H133422   4.318   4.555  15.740  1.9623  0.3949 -0.4570
 3977TIP3    H233423   4.342   4.437  15.649 -0.1008 -0.5299  0.1356
 3978TIP3   OH233424   6.274   6.185  14.968  0.3212  1.0052  0.0336
 3978TIP3    H133425   6.233   6.153  14.887 -1.5588  1.5042  0.7304
 3978TIP3    H233426   6.366   6.159  14.960  0.1913  1.0016 -2.2311
 3979TIP3   OH233427   2.966   1.253  14.996  0.2278  0.3272 -0.3061
 3979TIP3    H133428   2.972   1.303  14.915  0.6186  1.2133  0.2536
 3979TIP3    H233429   3.056   1.250  15.029 -0.0921  0.9090  0.6391
 3980TIP3   OH233430   6.794   6.123   3.616 -0.7991  0.4736 -0.8972
 3980TIP3    H133431   6.833   6.037   3.601 -0.8341  0.5647 -1.5340
 3980TIP3    H233432   6.700   6.107   3.613 -0.8066  0.5699 -1.2624
 3981TIP3   OH233433   6.604   5.561   4.277  0.1337 -0.1104  0.6170
 3981TIP3    H133434   6.589   5.532   4.367 -1.4679 -0.3408  0.3068
 3981TIP3    H233435   6.545   5.635   4.266  0.7628  0.3034 -0.0732
 3982TIP3   OH233436   2.325   3.539  15.223 -0.3998  0.2249 -0.0497
 3982TIP3    H133437   2.357   3.628  15.213 -0.0246  0.0435 -0.5427
 3982TIP3    H233438   2.383   3.500  15.288 -0.5050  0.3144  0.0969
 3983TIP3   OH233439   3.977   3.797  12.735  0.2365  0.2667 -0.3416
 3983TIP3    H133440   3.978   3.709  12.697 -0.0304  0.1109  0.0092
 3983TIP3    H233441   4.066   3.810  12.768 -0.0219 -0.3210  0.6172
 3984TIP3   OH233442   3.571   2.744   0.286  0.0922  0.5476 -0.1093
 3984TIP3    H133443   3.632   2.671   0.270 -0.0838  0.7230 -1.8577
 3984TIP3    H233444   3.610   2.793   0.358  0.2762 -1.1909  1.0373
 3985TIP3   OH233445   0.075   2.412   1.292  0.2055  0.3390  0.2460
 3985TIP3    H133446   0.081   2.449   1.380  1.1717 -1.8686  1.1846
 3985TIP3    H233447   0.037   2.325   1.305  1.3324 -0.4499 -1.3750
 3986TIP3   OH233448   3.445   4.897  14.598  0.2249 -0.0171  0.0876
 3986TIP3    H133449   3.513   4.927  14.538  2.0895 -1.5574  1.3033
 3986TIP3    H233450   3.404   4.823  14.554  0.6775 -0.3023  0.1415
 3987TIP3   OH233451   3.676   6.548   5.453  0.1727  1.0213 -0.6015
 3987TIP3    H133452   3.585   6.554   5.425 -0.1310 -0.1148  0.1093
 3987TIP3    H233453   3.704   6.460   5.429  0.4927  0.6909  0.8707
 3988TIP3   OH233454   6.085   3.201  11.400 -0.3180 -0.2597  0.2214
 3988TIP3    H133455   5.995   3.193  11.370 -0.5207  0.8369  0.4761
 3988TIP3    H233456   6.133   3.134  11.352 -1.2645 -0.8461  0.0761
 3989TIP3   OH233457   5.314   1.479  14.045  0.3258 -0.4498  0.7922
 3989TIP3    H133458   5.378   1.433  13.991 -1.0169 -2.6469  0.9819
 3989TIP3    H233459   5.298   1.422  14.120 -1.1669  0.4561  1.2253
 3990TIP3   OH233460   6.171   3.493  11.325 -0.7889  0.7296  0.3988
 3990TIP3    H133461   6.238   3.428  11.307 -1.3882  0.3872 -0.6780
 3990TIP3    H233462   6.096   3.443  11.357 -0.8624  1.0190  0.6913
 3991TIP3   OH233463   6.120   2.928   0.487  0.0014  0.3387  0.2875
 3991TIP3    H133464   6.097   2.841   0.520 -0.4645  0.5955  0.6406
 3991TIP3    H233465   6.215   2.924   0.476  0.1642  0.2000  1.5393
 3992TIP3   OH233466   1.477   3.552  15.510 -0.1993  0.6463 -0.3165
 3992TIP3    H133467   1.454   3.645  15.519 -2.2308  0.1336  0.2400
 3992TIP3    H233468   1.399   3.512  15.472  0.6062 -0.8769 -0.4290
 3993TIP3   OH233469   3.283   4.412  14.678  0.1912  0.5052  0.5027
 3993TIP3    H133470   3.326   4.424  14.594  0.4812 -2.7421  0.0681
 3993TIP3    H233471   3.199   4.371  14.656  0.0148  0.1626  1.7451
 3994TIP3   OH233472   2.953   2.275   4.130  0.1355 -0.0669 -0.4243
 3994TIP3    H133473   2.865   2.263   4.093 -0.2360 -0.2391  0.4855
 3994TIP3    H233474   2.968   2.369   4.125  0.0395 -0.0715 -0.8850
 3995TIP3   OH233475   2.639   2.151   6.167  0.3594 -0.5539  0.6860
 3995TIP3    H133476   2.581   2.223   6.193 -0.3511 -1.1007  0.6630
 3995TIP3    H233477   2.599   2.073   6.207 -0.3507 -1.3202 -1.3720
 3996TIP3   OH233478   3.845   0.081  15.640  0.1028 -0.7520 -0.0939
 3996TIP3    H133479   3.792   0.149  15.683  0.8265  0.4569 -1.0313
 3996TIP3    H233480   3.919   0.068  15.699 -0.1745 -0.9355  0.2188
 3997TIP3   OH233481   6.350   2.700   3.418 -0.2827  0.2843 -0.4637
 3997TIP3    H133482   6.431   2.710   3.368  0.0638  1.1570  0.2491
 3997TIP3    H233483   6.282   2.692   3.352  0.3552 -0.2318 -1.0703
 3998TIP3   OH233484   6.475   2.078   2.310 -0.1083 -0.4120  0.0993
 3998TIP3    H133485   6.433   1.993   2.320  1.9663 -1.3809  1.3407
 3998TIP3    H233486   6.415   2.129   2.256 -1.6856 -2.4558 -0.1830
 3999TIP3   OH233487   6.750   0.765   5.217  0.6334  0.7184 -0.3741
 3999TIP3    H133488   6.820   0.713   5.179 -0.5187 -2.6851  1.6576
 3999TIP3    H233489   6.789   0.805   5.295  0.2809 -1.8946  1.2618
 4000TIP3   OH233490   6.743   6.254  16.314  0.7885 -0.1092 -0.1878
 4000TIP3    H133491   6.796   6.175  16.326  1.2803  0.2903  0.3307
 4000TIP3    H233492   6.807   6.325  16.308  0.2973  0.4542  1.0022
 4001TIP3   OH233493   2.715   5.736  15.028  0.2748 -0.2415 -0.2459
 4001TIP3    H133494   2.806   5.762  15.017  0.5980 -0.9895  0.5642
 4001TIP3    H233495   2.719   5.647  15.061 -0.7321 -0.0585  0.4298
 4002TIP3   OH233496   1.219   0.489  13.613 -0.0759  0.1641  0.0762
 4002TIP3    H133497   1.222   0.407  13.563  2.1694 -0.1248  0.5686
 4002TIP3    H233498   1.280   0.547  13.567  0.4053  0.6206  1.2647
 4003TIP3   OH233499   3.762   5.022  13.832  0.1272 -0.3520  0.3253
 4003TIP3    H133500   3.716   5.035  13.749 -0.9389  0.5800  1.0305
 4003TIP3    H233501   3.821   5.097  13.838  0.0227 -0.2833  0.5130
 4004TIP3   OH233502   4.408   4.614  17.011  0.0553  0.0365  0.1355
 4004TIP3    H133503   4.462   4.690  16.992 -1.8983  1.1860 -1.1918
 4004TIP3    H233504   4.468   4.540  17.010  1.7039  1.3366 -0.4621
 4005TIP3   OH233505   5.018   6.663  17.221 -0.7610  0.2887 -0.1245
 4005TIP3    H133506   5.033   6.667  17.126  2.2656  0.2347  0.2530
 4005TIP3    H233507   4.963   6.739  17.240  1.0301  2.0706 -1.5845
 4006TIP3   OH233508   2.374   6.455   4.629 -0.5291  0.6673  0.4295
 4006TIP3    H133509   2.279   6.458   4.616 -0.6925 -0.1766  1.3204
 4006TIP3    H233510   2.410   6.457   4.540 -1.3336  1.8530  0.1062
 4007TIP3   OH233511   5.287   2.990  14.824  0.1744  0.3526  0.3721
 4007TIP3    H133512   5.238   3.060  14.866  1.0265  0.5715  1.0167
 4007TIP3    H233513   5.237   2.911  14.844  0.1194  0.5601  1.0752
 4008TIP3   OH233514   6.153   6.616  14.610  0.5223  0.1813  0.6751
 4008TIP3    H133515   6.143   6.699  14.656 -1.8974  0.0328  0.5305
 4008TIP3    H233516   6.182   6.555  14.678  1.5677  0.9540  0.9481
 4009TIP3   OH233517   1.305   0.218   2.707 -0.5384 -0.2485 -0.3173
 4009TIP3    H133518   1.343   0.250   2.789  0.4178  0.1805 -0.9104
 4009TIP3    H233519   1.225   0.172   2.734 -0.4451  0.2162  0.8113
 4010TIP3   OH233520   6.201   6.616   2.802 -0.3384 -0.3384 -0.1810
 4010TIP3    H133521   6.144   6.637   2.876  1.2344 -0.3230  1.0780
 4010TIP3    H233522   6.290   6.626   2.837  0.4697 -2.4893 -1.4405
 4011TIP3   OH233523   1.014   3.902   3.127  0.3990  0.3844  0.4473
 4011TIP3    H133524   0.985   3.858   3.206  1.6791 -0.9366  0.2153
 4011TIP3    H233525   0.956   3.869   3.058  0.6126 -0.0527  0.4775
 4012TIP3   OH233526   1.357   0.372   1.555 -0.2032 -0.2309  0.5568
 4012TIP3    H133527   1.361   0.435   1.483  1.0884  0.4446  1.1823
 4012TIP3    H233528   1.392   0.419   1.630  1.0887 -1.7775  0.9792
 4013TIP3   OH233529   2.375   2.306   4.258 -0.5042  0.1279 -0.3172
 4013TIP3    H133530   2.280   2.305   4.270 -0.4387 -0.0274  0.2142
 4013TIP3    H233531   2.407   2.367   4.324 -0.2627  0.4640 -0.7409
 4014TIP3   OH233532   0.253   1.536  13.054  0.8339  0.9471 -1.1709
 4014TIP3    H133533   0.304   1.578  13.123 -0.7437  1.5082 -0.2984
 4014TIP3    H233534   0.317   1.515  12.986  2.5484 -0.1049  0.6577
 4015TIP3   OH233535   5.686   6.434   4.581 -0.1150 -0.5037 -0.2657
 4015TIP3    H133536   5.770   6.460   4.543  0.1778  0.8817  1.2029
 4015TIP3    H233537   5.681   6.483   4.663 -2.4697 -0.3707 -0.4263
 4016TIP3   OH233538   1.931   1.511  11.034  0.2988 -0.6595 -0.1242
 4016TIP3    H133539   1.938   1.487  11.126 -3.6693 -0.7262  0.3239
 4016TIP3    H233540   1.854   1.464  11.002  1.3946 -0.4723 -3.4863
 4017TIP3   OH233541   3.757   1.151   3.436  0.6660 -0.4152 -1.0287
 4017TIP3    H133542   3.738   1.106   3.353 -0.4580 -2.1182  0.0891
 4017TIP3    H233543   3.851   1.138   3.448  0.7939 -0.3675 -1.9239
 4018TIP3   OH233544   1.958   4.109   2.986  0.5971 -0.1203  0.2315
 4018TIP3    H133545   1.949   4.183   2.925  1.0578  0.1593  0.4961
 4018TIP3    H233546   1.893   4.045   2.956  0.2496  0.3588 -0.0518
 4019TIP3   OH233547   1.770   1.475  16.678  0.4549 -0.2544  0.4734
 4019TIP3    H133548   1.761   1.453  16.585 -0.7822 -1.0999  0.7754
 4019TIP3    H233549   1.734   1.564  16.684 -1.5461 -0.9963  0.4649
 4020TIP3   OH233550   4.800   4.421  16.277 -0.7633 -0.5117  0.1653
 4020TIP3    H133551   4.799   4.354  16.209 -2.0935  1.1980 -1.6512
 4020TIP3    H233552   4.886   4.462  16.268 -0.2407 -1.4665  0.7617
 4021TIP3   OH233553   2.417   1.786   1.034 -0.2907  0.3050  0.0332
 4021TIP3    H133554   2.501   1.754   1.066 -0.8211  0.0082  1.1762
 4021TIP3    H233555   2.401   1.866   1.084 -0.6177  0.4493 -0.2953
 4022TIP3   OH233556   0.425   6.806   1.875  0.3792 -0.3885 -0.4997
 4022TIP3    H133557   0.347   6.859   1.859 -0.3981 -1.5199 -0.6204
 4022TIP3    H233558   0.428   6.795   1.970  0.9194  0.3995 -0.4163
 4023TIP3   OH233559   6.130   0.804   2.961  0.2548  0.0547  0.0200
 4023TIP3    H133560   6.176   0.723   2.985 -0.6670 -0.3180  0.5521
 4023TIP3    H233561   6.045   0.797   3.004 -0.2140  0.8533 -0.7663
 4024TIP3   OH233562   1.532   4.055   0.705 -0.2654  0.0832 -0.0087
 4024TIP3    H133563   1.556   4.090   0.791  3.1235 -0.7576 -0.4612
 4024TIP3    H233564   1.512   3.963   0.722  0.7429 -0.1698 -0.1097
 4025TIP3   OH233565   0.895   1.429  16.616  0.1748 -0.0752 -0.2551
 4025TIP3    H133566   0.852   1.514  16.605 -0.4348 -0.2409  0.8021
 4025TIP3    H233567   0.955   1.423  16.541  0.7653  1.6058  0.0458
 4026TIP3   OH233568   2.633   5.734  11.494 -0.7282  0.6301 -0.0341
 4026TIP3    H133569   2.683   5.704  11.418 -1.7555 -0.1747 -0.4185
 4026TIP3    H233570   2.638   5.830  11.490  0.6660  0.5672 -0.1240
 4027TIP3   OH233571   0.558   3.391  16.051 -0.7115 -0.1968 -0.0321
 4027TIP3    H133572   0.618   3.441  15.995  0.2431 -0.7169  0.4924
 4027TIP3    H233573   0.523   3.454  16.113  0.7967 -0.2236  0.8886
 4028TIP3   OH233574   6.812   6.050   2.840  0.4207 -0.0097  0.3087
 4028TIP3    H133575   6.837   5.965   2.874 -0.9974 -0.0191  1.4260
 4028TIP3    H233576   6.814   6.108   2.916  0.8433  0.8407 -0.3320
 4029TIP3   OH233577   0.834   2.389  11.211  0.2226  0.6517 -0.4399
 4029TIP3    H133578   0.804   2.303  11.181 -1.4859  0.5188  1.4430
 4029TIP3    H233579   0.812   2.448  11.139  2.0862 -0.5193 -2.0771
 4030TIP3   OH233580   4.932   3.162   4.844 -0.2333  0.0307 -0.0459
 4030TIP3    H133581   4.907   3.170   4.936 -2.2699 -1.1525 -0.4386
 4030TIP3    H233582   5.018   3.120   4.847 -0.0084  0.5134  1.3040
 4031TIP3   OH233583   5.958   2.347  11.413  0.5064 -0.4043  0.7078
 4031TIP3    H133584   5.896   2.352  11.340  1.0580 -1.5184  0.1376
 4031TIP3    H233585   6.001   2.433  11.413  0.7075 -0.4889 -0.4712
 4032TIP3   OH233586   5.722   5.220   0.426 -0.1195  0.0678  0.0883
 4032TIP3    H133587   5.664   5.201   0.499  1.1721 -0.3909  1.0288
 4032TIP3    H233588   5.808   5.234   0.466  0.4282  0.7717 -1.2526
 4033TIP3   OH233589   2.251   3.125   1.440  0.2454 -0.5566  0.1686
 4033TIP3    H133590   2.156   3.121   1.451  0.3687 -2.1505  1.0585
 4033TIP3    H233591   2.266   3.197   1.379 -1.4834  0.1113  0.4844
 4034TIP3   OH233592   2.116   0.193  16.122 -0.0432 -0.0481 -0.1859
 4034TIP3    H133593   2.184   0.256  16.094 -0.2076  0.3539  0.2965
 4034TIP3    H233594   2.151   0.156  16.203  0.3683 -1.1031 -0.8283
 4035TIP3   OH233595   1.734   0.012   2.116 -0.1493 -0.3124  0.7379
 4035TIP3    H133596   1.727   0.102   2.149 -1.5163 -0.8044  1.9273
 4035TIP3    H233597   1.647  -0.007   2.082 -0.3415 -1.6913  1.9228
 4036TIP3   OH233598   4.247   4.649  15.313 -0.4347 -0.1482  0.2089
 4036TIP3    H133599   4.241   4.711  15.240 -0.3819 -0.9924 -0.5313
 4036TIP3    H233600   4.340   4.635  15.326 -0.4610 -0.4942  0.0135
 4037TIP3   OH233601   4.809   6.612   4.790 -0.5070  0.2954  0.0953
 4037TIP3    H133602   4.807   6.554   4.866 -0.8569  1.5192  1.0604
 4037TIP3    H233603   4.888   6.587   4.743  0.1275 -0.0031  1.2798
 4038TIP3   OH233604   5.494   2.970   5.976  0.1551 -0.0152 -0.2769
 4038TIP3    H133605   5.559   2.922   5.924  0.0876 -0.3141 -0.0872
 4038TIP3    H233606   5.497   3.059   5.941  0.2683 -0.1591 -0.6444
 4039TIP3   OH233607   6.235   4.521  13.957  0.3529 -0.1085 -0.9481
 4039TIP3    H133608   6.249   4.553  14.046  0.5454 -0.9049 -0.6803
 4039TIP3    H233609   6.262   4.593  13.900  0.6655  0.2344 -0.3658
 4040TIP3   OH233610   4.278   2.545  15.149  0.5196  0.0550  0.1425
 4040TIP3    H133611   4.187   2.517  15.140  1.0847 -1.4346 -1.4241
 4040TIP3    H233612   4.302   2.576  15.062  1.6644 -0.0099  0.4176
 4041TIP3   OH233613   4.822   2.148   2.036  0.1922  0.3973 -0.6784
 4041TIP3    H133614   4.845   2.219   1.976  1.2823 -0.2735 -1.0820
 4041TIP3    H233615   4.881   2.160   2.110 -0.1241  0.3357 -0.4174
 4042TIP3   OH233616   3.844   2.597  13.011  0.2805  0.9251 -0.0111
 4042TIP3    H133617   3.809   2.515  13.044 -0.2861  1.3122  0.3521
 4042TIP3    H233618   3.939   2.590  13.025  0.3575 -0.0864 -0.9256
 4043TIP3   OH233619   4.862   5.758  16.613 -0.0268  0.5096  0.3756
 4043TIP3    H133620   4.813   5.782  16.534  2.0870  3.6981 -0.1351
 4043TIP3    H233621   4.816   5.803  16.684  0.6343  1.3932  0.2605
 4044TIP3   OH233622   0.981   6.572   2.760 -0.2243  0.0111 -0.4374
 4044TIP3    H133623   0.927   6.609   2.690 -1.3201  1.5962  1.1677
 4044TIP3    H233624   0.918   6.550   2.829  0.8123 -1.6215  0.0496
 4045TIP3   OH233625   0.423   1.831   4.955  0.0721 -0.3650  0.6106
 4045TIP3    H133626   0.471   1.889   5.014 -0.2273  2.4059 -1.6689
 4045TIP3    H233627   0.491   1.783   4.907  0.3968 -0.2185  0.9200
 4046TIP3   OH233628   4.015   5.535   3.087 -0.2330 -0.4648  0.0992
 4046TIP3    H133629   3.926   5.499   3.093 -0.4897  0.2801  0.9840
 4046TIP3    H233630   4.050   5.527   3.175  0.8102 -1.2956 -0.3795
 4047TIP3   OH233631   6.396   3.883  12.560 -0.1536  0.1739 -0.6591
 4047TIP3    H133632   6.438   3.954  12.513  0.2737 -0.6892 -1.6105
 4047TIP3    H233633   6.333   3.847  12.498  2.0571 -2.5016 -1.5024
 4048TIP3   OH233634   3.151   4.867  11.919 -0.4027  0.2000 -0.0918
 4048TIP3    H133635   3.060   4.850  11.940 -0.6880  0.9037 -0.6807
 4048TIP3    H233636   3.157   4.963  11.915 -0.0925  0.1429 -1.8748
 4049TIP3   OH233637   4.675   1.097   5.711 -0.4537 -0.4016  0.3629
 4049TIP3    H133638   4.750   1.102   5.651 -0.7467 -1.2762 -0.0974
 4049TIP3    H233639   4.715   1.099   5.798 -0.0191  0.8157  0.1580
 4050TIP3   OH233640   4.449   2.518  16.985  0.0390 -0.4127 -0.1665
 4050TIP3    H133641   4.434   2.436  17.033  0.9253  0.5731  1.9077
 4050TIP3    H233642   4.393   2.582  17.029  0.7115  0.4820 -0.5809
 4051TIP3   OH233643   4.682   4.628  17.247  0.2301  0.1659  0.4311
 4051TIP3    H133644   4.617   4.630  17.177 -1.9679 -0.5758  2.3061
 4051TIP3    H233645   4.704   4.536  17.258  1.6113  0.4035 -0.1356
 4052TIP3   OH233646   0.144   4.359   3.899  0.1387 -0.2044  0.4679
 4052TIP3    H133647   0.238   4.374   3.885  0.4042 -0.6820  1.6269
 4052TIP3    H233648   0.140   4.281   3.955 -0.8503  0.9401  2.0997
 4053TIP3   OH233649   0.503   2.181   2.952 -0.0028 -0.1583  0.0042
 4053TIP3    H133650   0.541   2.169   2.864 -1.3658 -1.2091 -0.4879
 4053TIP3    H233651   0.429   2.239   2.938  0.4222  0.5647  0.6753
 4054TIP3   OH233652   4.439   4.498   1.688 -0.2381  0.6984  0.3425
 4054TIP3    H133653   4.528   4.527   1.709 -0.2736 -0.1414  1.8097
 4054TIP3    H233654   4.390   4.578   1.674  0.4846  1.2138  0.7010
 4055TIP3   OH233655   2.892   5.042   2.144  0.1178 -0.0950 -0.2205
 4055TIP3    H133656   2.950   5.118   2.137 -0.3064  0.5670  2.3709
 4055TIP3    H233657   2.915   5.003   2.228 -1.1124 -1.6315 -0.5569
 4056TIP3   OH233658   3.705   6.316   0.793  0.5604 -0.5455  0.7414
 4056TIP3    H133659   3.712   6.309   0.698  3.4604  2.4567  0.5624
 4056TIP3    H233660   3.779   6.267   0.827  0.2740 -0.5410  1.3866
 4057TIP3   OH233661   0.078   3.132   3.687 -0.0443  0.1950  0.0011
 4057TIP3    H133662   0.098   3.063   3.623 -2.5580 -1.2425  0.6018
 4057TIP3    H233663  -0.018   3.133   3.691 -0.2326  4.7928 -1.0255
 4058TIP3   OH233664   0.013   6.316  17.234 -0.0977 -0.1212  0.2090
 4058TIP3    H133665  -0.026   6.356  17.156  0.6835 -1.0218 -0.6890
 4058TIP3    H233666   0.052   6.389  17.282  0.9431  0.2819 -1.1743
 4059TIP3   OH233667   0.184   2.806   1.257 -0.0538  0.4101 -0.0519
 4059TIP3    H133668   0.108   2.838   1.208 -0.3880 -1.7280 -1.0674
 4059TIP3    H233669   0.235   2.757   1.192  2.1395  1.6469  0.6561
 4060TIP3   OH233670   4.113   5.898   1.942 -0.2915 -0.7138  0.7272
 4060TIP3    H133671   4.138   5.910   1.850 -1.8775 -3.6510 -0.2198
 4060TIP3    H233672   4.022   5.926   1.946 -0.2510 -0.6592  1.4084
 4061TIP3   OH233673   5.364   6.140  14.809 -0.3117  0.3930  0.0493
 4061TIP3    H133674   5.400   6.068  14.757  1.1711  0.4719  0.9276
 4061TIP3    H233675   5.347   6.101  14.895  0.9996  1.1744  0.7011
 4062TIP3   OH233676   3.010   6.540  14.461 -0.0811 -0.2920  0.3270
 4062TIP3    H133677   3.012   6.530  14.556 -0.1160 -0.2803  0.3287
 4062TIP3    H233678   2.921   6.515  14.436 -0.0639 -0.3221  0.2943
 4063TIP3   OH233679   1.688   5.119  16.792  0.0098 -1.0274  0.1838
 4063TIP3    H133680   1.650   5.128  16.880 -1.0771 -0.1847 -0.3409
 4063TIP3    H233681   1.779   5.095  16.808  0.1828  0.3763  1.5897
 4064TIP3   OH233682   6.119   0.419  16.098  0.7761  0.3915  0.3367
 4064TIP3    H133683   6.139   0.469  16.177  0.7814  2.3968 -0.8749
 4064TIP3    H233684   6.185   0.349  16.097  1.5453  1.0680  1.4673
 4065TIP3   OH233685   3.125   3.184  16.078  0.1875 -0.3610 -0.0205
 4065TIP3    H133686   3.187   3.114  16.102  0.0051 -0.1412  1.1852
 4065TIP3    H233687   3.171   3.265  16.101  1.3093  0.1270 -3.4746
 4066TIP3   OH233688   1.178   6.501  16.684 -0.1708 -0.2011  0.4507
 4066TIP3    H133689   1.149   6.551  16.608 -1.5511 -0.2804  0.8998
 4066TIP3    H233690   1.129   6.539  16.757  0.7758 -0.4458  1.2280
 4067TIP3   OH233691   2.699   1.429  13.731  0.0841 -0.1219  0.3003
 4067TIP3    H133692   2.790   1.401  13.737  0.4592  1.2363  1.2313
 4067TIP3    H233693   2.678   1.464  13.817 -0.9674  0.6289 -0.2406
 4068TIP3   OH233694   5.772   2.328  15.334 -0.4289 -0.4578  0.0500
 4068TIP3    H133695   5.751   2.243  15.373 -1.1929  0.1197  0.9634
 4068TIP3    H233696   5.780   2.311  15.241 -1.6794 -1.3382  0.0785
 4069TIP3   OH233697   0.816   4.951   1.052 -0.0193  0.2527  0.0091
 4069TIP3    H133698   0.723   4.952   1.030 -0.4806 -0.7075  1.7141
 4069TIP3    H233699   0.861   4.962   0.968 -1.6447 -0.4150 -0.9970
 4070TIP3   OH233700   2.969   6.251  13.120  0.4731  0.4540  0.1094
 4070TIP3    H133701   2.907   6.241  13.048 -0.7344 -0.5929  1.2476
 4070TIP3    H233702   2.988   6.345  13.123 -0.4632  0.6840 -0.7415
 4071TIP3   OH233703   2.928   1.678  12.781  0.2212 -0.4591  0.3845
 4071TIP3    H133704   2.894   1.707  12.866 -1.8533 -0.5881 -0.3390
 4071TIP3    H233705   2.893   1.741  12.718 -1.1373 -2.2558 -0.7577
 4072TIP3   OH233706   6.182   1.044   1.967  0.0341 -0.2653  0.0920
 4072TIP3    H133707   6.238   0.982   2.013  0.8613 -0.7961 -1.5567
 4072TIP3    H233708   6.106   0.992   1.941  0.1259 -0.2714 -0.1676
 4073TIP3   OH233709   4.160   1.851  16.042  1.0436 -0.3599 -0.5536
 4073TIP3    H133710   4.214   1.887  15.972  2.6375 -1.9112 -0.1735
 4073TIP3    H233711   4.222   1.822  16.109 -0.3681 -0.3078  0.8333
 4074TIP3   OH233712   1.335   4.231   3.164  0.3146  0.1109  0.4127
 4074TIP3    H133713   1.411   4.236   3.106  1.6400 -3.7000  1.5323
 4074TIP3    H233714   1.370   4.248   3.251 -0.5577  0.3949  0.7201
 4075TIP3   OH233715   1.946   6.071   0.178  0.2150  0.8577  0.0071
 4075TIP3    H133716   1.974   6.142   0.120 -1.6568  0.0134 -2.1053
 4075TIP3    H233717   1.851   6.085   0.188  0.4177  0.7776  2.6871
 4076TIP3   OH233718   1.782   5.694  14.213 -0.2314  0.6442  0.2839
 4076TIP3    H133719   1.856   5.634  14.204 -0.9922 -0.3493  0.4860
 4076TIP3    H233720   1.821   5.775  14.246  1.1431  1.0248 -2.0115
 4077TIP3   OH233721   3.874   3.702   0.940  0.5864  0.2927  0.2170
 4077TIP3    H133722   3.959   3.658   0.941  0.3461 -0.2535 -1.3715
 4077TIP3    H233723   3.895   3.795   0.944  1.2983  0.1840 -0.6807
 4078TIP3   OH233724   5.004   0.804   2.710 -0.4747 -0.2653 -0.2399
 4078TIP3    H133725   4.990   0.757   2.793 -1.2603  0.6806  0.1809
 4078TIP3    H233726   4.990   0.896   2.732  1.4139  0.2399 -0.9607
 4079TIP3   OH233727   1.773   6.701   2.416  0.3766  0.2124  0.1720
 4079TIP3    H133728   1.760   6.652   2.335 -2.7833 -0.4602  0.9288
 4079TIP3    H233729   1.838   6.767   2.395 -0.7450  0.4320 -3.1167
 4080TIP3   OH233730   3.860   6.798  15.371 -0.0891  0.5643  0.1341
 4080TIP3    H133731   3.865   6.811  15.466 -1.8550  0.8256  0.2181
 4080TIP3    H233732   3.868   6.886  15.334  2.9213  0.2764 -0.1475
 4081TIP3   OH233733   1.772   4.963   4.575 -0.0242 -0.2972  0.4170
 4081TIP3    H133734   1.775   5.055   4.601 -1.3103  0.1457 -0.9013
 4081TIP3    H233735   1.860   4.945   4.541  0.1790  0.4966  0.4983
 4082TIP3   OH233736   5.533   5.805   3.484  0.0499  0.1663 -0.8148
 4082TIP3    H133737   5.462   5.835   3.540  0.1302  1.2172 -1.2583
 4082TIP3    H233738   5.583   5.884   3.464  2.1973 -0.7405  0.6260
 4083TIP3   OH233739   1.474   0.219  14.209  0.3133  0.0737 -0.0076
 4083TIP3    H133740   1.541   0.286  14.224 -0.9056  1.9195 -2.2118
 4083TIP3    H233741   1.519   0.151  14.159  0.9413  0.4453  0.0392
 4084TIP3   OH233742   1.406   0.696  14.965  0.1818 -0.2772 -0.0593
 4084TIP3    H133743   1.468   0.638  15.010 -0.9479 -0.7061  0.9720
 4084TIP3    H233744   1.447   0.783  14.971  2.1319 -0.9791 -2.0619
 4085TIP3   OH233745   6.512   2.869   2.597  0.3260 -0.1048  0.3056
 4085TIP3    H133746   6.546   2.937   2.655 -0.0270 -1.7843  2.6167
 4085TIP3    H233747   6.589   2.825   2.563  0.6297  2.1370 -2.2993
 4086TIP3   OH233748   4.985   0.610  14.083 -0.3025  0.0570  0.3636
 4086TIP3    H133749   5.059   0.663  14.054 -0.9920  0.9156  0.1551
 4086TIP3    H233750   5.025   0.543  14.140  0.3343  2.2731  2.7051
 4087TIP3   OH233751   0.547   1.168  12.456  0.9192 -0.1460 -0.0692
 4087TIP3    H133752   0.476   1.112  12.424  0.0965 -0.1639  1.6807
 4087TIP3    H233753   0.579   1.213  12.378 -0.4584 -0.7749 -1.0344
 4088TIP3   OH233754   3.015   0.258  12.303 -0.3567 -0.4603 -0.2932
 4088TIP3    H133755   2.932   0.302  12.285 -0.9773 -1.0346  1.0207
 4088TIP3    H233756   3.080   0.328  12.306 -0.6372 -0.0742 -2.0759
 4089TIP3   OH233757   2.867   0.720  11.020  0.1528  0.1653  0.2424
 4089TIP3    H133758   2.839   0.647  11.075 -0.6803  1.6222  1.8873
 4089TIP3    H233759   2.920   0.681  10.951 -1.1454 -2.0850  0.4311
 4090TIP3   OH233760   2.801   5.591   0.688 -0.2907 -0.0909 -0.3725
 4090TIP3    H133761   2.825   5.625   0.602 -2.6962 -0.1066 -1.1243
 4090TIP3    H233762   2.821   5.497   0.683  0.4173  0.0724 -0.5960
 4091TIP3   OH233763   4.759   5.594  15.516  0.0606 -0.0915 -0.6299
 4091TIP3    H133764   4.691   5.603  15.582  1.4731 -1.5547  1.1358
 4091TIP3    H233765   4.723   5.533  15.452 -0.7631  0.1469 -0.3978
 4092TIP3   OH233766   2.095   0.368   0.336  0.2698 -0.5246 -0.0245
 4092TIP3    H133767   2.003   0.369   0.310  0.2561 -0.1559  0.0281
 4092TIP3    H233768   2.140   0.416   0.267  0.3644 -0.3566  0.1532
 4093TIP3   OH233769   2.070   2.855   4.525 -0.7191 -0.3569  0.7850
 4093TIP3    H133770   2.097   2.797   4.596  0.9195  1.3254  1.6163
 4093TIP3    H233771   1.990   2.897   4.556  0.0888  0.5074  1.7598
 4094TIP3   OH233772   1.881   6.492   4.962  0.2767 -0.1904  0.0379
 4094TIP3    H133773   1.922   6.515   5.045  1.3682  1.3707 -0.8842
 4094TIP3    H233774   1.925   6.412   4.935  0.4676 -0.2774  0.5918
 4095TIP3   OH233775   1.217   0.307  16.637 -0.3145 -0.7468  0.8732
 4095TIP3    H133776   1.139   0.361  16.625 -0.6393 -1.5543 -0.9751
 4095TIP3    H233777   1.289   0.362  16.606 -0.3909 -0.6595  0.8499
 4096TIP3   OH233778   3.461   3.633   2.277 -0.2440  0.5706 -0.7098
 4096TIP3    H133779   3.418   3.694   2.218 -0.5204  0.2668 -0.8294
 4096TIP3    H233780   3.408   3.553   2.272  1.7184 -0.7326 -2.8543
 4097TIP3   OH233781   2.135   6.190  10.684  0.0020 -0.4944 -0.4869
 4097TIP3    H133782   2.060   6.131  10.690  1.7759 -2.7743  0.6362
 4097TIP3    H233783   2.206   6.143  10.727  2.2860  1.2803 -2.1108
 4098TIP3   OH233784   6.047   2.639  15.072 -0.1526  0.0084  0.4820
 4098TIP3    H133785   6.069   2.591  14.992  0.8751  0.9575  0.1778
 4098TIP3    H233786   6.131   2.661  15.111 -0.6378 -0.3639  1.8111
 4099TIP3   OH233787   2.691   5.544  16.157 -0.1766  0.0824 -0.1936
 4099TIP3    H133788   2.629   5.610  16.187 -0.5900 -0.0729 -0.6914
 4099TIP3    H233789   2.658   5.462  16.195  0.5596  0.2014  0.7533
 4100TIP3   OH233790   0.371   5.578   4.435  0.6056  0.8019 -0.2350
 4100TIP3    H133791   0.377   5.516   4.507  3.1998 -0.0458 -1.0481
 4100TIP3    H233792   0.328   5.529   4.365 -0.4801  1.1081  0.1962
 4101TIP3   OH233793   3.345   6.106  12.881  0.1928  0.0534  0.0047
 4101TIP3    H133794   3.271   6.166  12.894 -0.1867 -0.5599  0.7770
 4101TIP3    H233795   3.329   6.065  12.796 -1.1198 -1.0990  0.7630
 4102TIP3   OH233796   0.952   0.134  11.450 -0.3423  0.5091 -0.0624
 4102TIP3    H133797   0.872   0.107  11.406 -1.0501  0.5987  1.1239
 4102TIP3    H233798   0.931   0.129  11.543  1.5511 -1.1127  0.3602
 4103TIP3   OH233799   4.276   5.294   0.803  0.0532  0.1989 -0.2427
 4103TIP3    H133800   4.195   5.335   0.773 -0.3026 -0.9542 -0.9438
 4103TIP3    H233801   4.337   5.366   0.815 -0.3251  0.8977 -2.1068
 4104TIP3   OH233802   6.549   0.876   1.504 -0.2179  0.0784  0.2346
 4104TIP3    H133803   6.619   0.814   1.525 -0.3590 -0.1712 -0.0199
 4104TIP3    H233804   6.594   0.957   1.481 -0.0619  0.4445  1.7284
 4105TIP3   OH233805   3.217   0.744   5.410  0.6173  0.2515  0.1557
 4105TIP3    H133806   3.141   0.691   5.386 -0.4278  1.7032  0.1243
 4105TIP3    H233807   3.193   0.784   5.494  1.3031  0.8043  0.0998
 4106TIP3   OH233808   3.350   2.207   2.758  0.4377 -0.7650 -0.2261
 4106TIP3    H133809   3.268   2.214   2.807  0.9350  0.8695  0.4205
 4106TIP3    H233810   3.350   2.282   2.698  1.5753 -0.5785 -0.0215
 4107TIP3   OH233811   5.454   3.192   4.641  0.4539  0.0763 -0.2408
 4107TIP3    H133812   5.514   3.156   4.576  0.1472  2.0330 -1.7096
 4107TIP3    H233813   5.373   3.141   4.629  0.6593 -0.1185 -0.8440
 4108TIP3   OH233814   1.332   4.768  11.533  0.3468 -0.3880 -0.5230
 4108TIP3    H133815   1.238   4.757  11.548  0.3174 -1.2109 -1.2413
 4108TIP3    H233816   1.348   4.729  11.447  1.1156  0.9978 -1.0311
 4109TIP3   OH233817   3.886   1.411  17.183 -0.7814 -0.3321 -0.0985
 4109TIP3    H133818   3.959   1.473  17.187 -0.3756 -0.7466 -0.8821
 4109TIP3    H233819   3.903   1.359  17.104  0.3245 -3.1767  1.8444
 4110TIP3   OH233820   1.533   6.304   0.427 -0.1668 -0.4011  0.2145
 4110TIP3    H133821   1.536   6.388   0.381  0.0782 -1.4502 -1.7530
 4110TIP3    H233822   1.441   6.277   0.421 -0.0963 -0.6337  0.1838
 4111TIP3   OH233823   4.212   2.920  15.302 -0.1470 -0.2781  0.2800
 4111TIP3    H133824   4.194   2.848  15.363  1.9987 -1.3699 -0.2597
 4111TIP3    H233825   4.240   2.992  15.358 -0.9271 -0.3217  0.7393
 4112TIP3   OH233826   4.043   2.101  14.792  0.2655  0.2214 -0.3602
 4112TIP3    H133827   3.977   2.056  14.844  0.3287  1.1997  0.5858
 4112TIP3    H233828   4.050   2.048  14.712 -0.8017 -0.5447  0.0292
 4113TIP3   OH233829   5.668   5.875   2.893 -0.6064 -0.0520  0.3567
 4113TIP3    H133830   5.731   5.948   2.893 -0.8081  0.1600  2.0651
 4113TIP3    H233831   5.675   5.838   2.981 -2.6876 -0.1763  0.5105
 4114TIP3   OH233832   0.884   6.235   5.781  0.1172 -0.1298  0.1073
 4114TIP3    H133833   0.862   6.275   5.697  0.2557 -2.2661 -0.9896
 4114TIP3    H233834   0.816   6.266   5.841 -0.5269  0.6515 -1.0026
 4115TIP3   OH233835   4.226   1.277  11.215 -0.0315 -0.2780  0.0441
 4115TIP3    H133836   4.149   1.225  11.238  0.0911  0.1943  1.6510
 4115TIP3    H233837   4.207   1.311  11.127 -1.7111 -0.0849  0.4522
 4116TIP3   OH233838   5.745   6.611  14.041 -0.1415 -0.3291  0.0987
 4116TIP3    H133839   5.656   6.611  14.008 -0.2865  0.3521  0.4823
 4116TIP3    H233840   5.737   6.580  14.132 -0.5162  3.3341  1.4592
 4117TIP3   OH233841   0.630   6.215   4.818  0.5417 -0.0639  0.5947
 4117TIP3    H133842   0.589   6.242   4.736  1.4880 -0.2660  0.0456
 4117TIP3    H233843   0.686   6.289   4.842  1.5285 -0.6712  0.1899
 4118TIP3   OH233844   6.248   3.986  10.871 -0.2002  0.1836 -0.0503
 4118TIP3    H133845   6.293   3.914  10.826 -1.3879 -0.2637 -0.5853
 4118TIP3    H233846   6.253   4.059  10.810  0.8632  0.5251  0.4232
 4119TIP3   OH233847   0.231   4.351   5.876  0.1388 -0.5070 -0.1407
 4119TIP3    H133848   0.137   4.351   5.855 -0.5176  3.1866  1.9896
 4119TIP3    H233849   0.234   4.340   5.971  1.7380  0.9471  0.0146
 4120TIP3   OH233850   5.757   6.778   0.957  0.3109 -0.0571 -0.0130
 4120TIP3    H133851   5.726   6.787   1.047 -0.6378  1.3643 -0.4385
 4120TIP3    H233852   5.723   6.693   0.929 -1.0234  0.3209  0.3808
 4121TIP3   OH233853   5.600   1.856  16.150 -0.0043 -0.2670  0.0957
 4121TIP3    H133854   5.686   1.835  16.113 -0.0752 -1.5060  0.5702
 4121TIP3    H233855   5.612   1.844  16.245 -0.4279  0.5942  0.2691
 4122TIP3   OH233856   2.763   6.652  14.703  0.3658 -0.5413  0.6858
 4122TIP3    H133857   2.784   6.643  14.611  1.0879 -0.6380  0.8563
 4122TIP3    H233858   2.684   6.706  14.705  0.4804 -0.3533  0.0303
 4123TIP3   OH233859   2.002   1.597  17.289 -0.5749  0.3324  0.9700
 4123TIP3    H133860   2.063   1.524  17.297  0.4067  0.9422 -0.4300
 4123TIP3    H233861   2.050   1.672  17.324 -0.1397  0.9888 -0.9354
 4124TIP3   OH233862   0.726   3.047  13.165  0.7686 -0.1742  0.3218
 4124TIP3    H133863   0.637   3.083  13.163  0.5802 -0.5679  1.0343
 4124TIP3    H233864   0.734   3.012  13.254  1.4204 -0.6905  0.0602
 4125TIP3   OH233865   6.800   3.996  15.220  0.6669  0.1210 -0.0523
 4125TIP3    H133866   6.816   3.971  15.310  1.1666  1.2900  0.2111
 4125TIP3    H233867   6.861   4.068  15.204 -0.0267  0.5190 -1.0434
 4126TIP3   OH233868   6.034   4.706  16.224 -0.1555  0.5583 -0.3609
 4126TIP3    H133869   6.096   4.779  16.232 -0.3730  0.7762 -0.6504
 4126TIP3    H233870   6.031   4.687  16.131  0.5960 -0.4414 -0.1973
 4127TIP3   OH233871   4.325   2.678  14.920  0.4285 -0.3375 -0.4047
 4127TIP3    H133872   4.314   2.772  14.910  0.6014 -0.2289  0.3411
 4127TIP3    H233873   4.417   2.667  14.942 -0.3887 -0.2285  3.8771
 4128TIP3   OH233874   2.015   6.208  14.665 -0.0756 -0.3286 -0.3150
 4128TIP3    H133875   2.096   6.242  14.704 -0.6700 -0.2386  0.8724
 4128TIP3    H233876   1.946   6.236  14.725 -1.1142  0.3819 -1.7744
 4129TIP3   OH233877   3.983   4.473   6.630 -0.2106  0.1284  0.3071
 4129TIP3    H133878   3.970   4.556   6.676  1.5447  0.2461  0.6402
 4129TIP3    H233879   4.047   4.426   6.683  0.2986 -0.6113 -0.9326
 4130TIP3   OH233880   4.858   3.787  15.971 -0.0488 -0.2903 -0.5939
 4130TIP3    H133881   4.775   3.807  16.013  1.0921  0.4588  1.4347
 4130TIP3    H233882   4.834   3.745  15.889 -2.4224 -1.8897  0.8077
 4131TIP3   OH233883   1.611   6.055   4.509  0.5685 -0.1454 -0.2896
 4131TIP3    H133884   1.704   6.078   4.507  1.2795 -2.7621 -2.1330
 4131TIP3    H233885   1.603   5.994   4.581 -0.5173  2.5130  2.0311
 4132TIP3   OH233886   6.760   2.984   4.455 -0.1326 -0.2862  0.0815
 4132TIP3    H133887   6.820   2.982   4.529  0.6827  0.3088 -0.5556
 4132TIP3    H233888   6.717   3.070   4.460 -0.3790 -0.4076  0.0939
 4133TIP3   OH233889   4.692   5.874  15.178  0.1963  0.2312  0.1206
 4133TIP3    H133890   4.650   5.937  15.236 -3.1428 -0.4568 -1.3601
 4133TIP3    H233891   4.704   5.921  15.095 -0.3472 -0.4300 -0.3439
 4134TIP3   OH233892   1.402   2.102   4.763 -0.1752  0.3001  0.2538
 4134TIP3    H133893   1.463   2.170   4.787 -0.4214  0.4620  0.4206
 4134TIP3    H233894   1.430   2.025   4.812  1.2485 -0.2606 -1.3349
 4135TIP3   OH233895   6.642   6.231   4.335  0.1244 -0.1808  0.6941
 4135TIP3    H133896   6.680   6.303   4.385  0.1288 -1.6803  2.9707
 4135TIP3    H233897   6.715   6.172   4.318 -0.0169 -0.0368 -0.5125
 4136TIP3   OH233898   4.462   3.091   5.042  0.0242  0.2467 -0.2174
 4136TIP3    H133899   4.370   3.105   5.062 -0.4408 -0.7395 -1.6006
 4136TIP3    H233900   4.493   3.176   5.011 -0.8291  0.2100 -1.2203
 4137TIP3   OH233901   0.537   2.502   1.530 -0.0234  0.0324 -0.2519
 4137TIP3    H133902   0.566   2.590   1.554 -1.7993  0.8630 -0.9952
 4137TIP3    H233903   0.469   2.481   1.594  1.1626 -1.3280  0.6415
 4138TIP3   OH233904   2.891   5.060   3.185  0.2004 -0.3270  0.4832
 4138TIP3    H133905   2.808   5.070   3.140  0.1195 -0.8245  0.5124
 4138TIP3    H233906   2.872   5.082   3.276  0.1614 -0.1734  0.4371
 4139TIP3   OH233907   6.287   1.117  16.365 -0.7465  0.1150  0.1252
 4139TIP3    H133908   6.224   1.137  16.434 -0.3954 -0.6954  0.6934
 4139TIP3    H233909   6.354   1.064  16.408  0.3477  0.9889 -0.4476
 4140TIP3   OH233910   0.464   1.859   1.319 -0.1800 -0.8225 -0.4608
 4140TIP3    H133911   0.382   1.898   1.286 -0.8310 -2.4845 -0.9356
 4140TIP3    H233912   0.451   1.854   1.414 -0.8580 -1.5166 -0.5763
 4141TIP3   OH233913   6.250   2.731  16.607 -0.3629  0.1318  0.0982
 4141TIP3    H133914   6.326   2.684  16.642 -0.5658 -0.0291  0.3225
 4141TIP3    H233915   6.192   2.743  16.683 -0.9994 -0.5809 -0.2664
 4142TIP3   OH233916   2.837   3.484  12.895  0.3672  0.2670  0.1881
 4142TIP3    H133917   2.847   3.401  12.941 -0.6816  1.4505  2.7373
 4142TIP3    H233918   2.744   3.489  12.873  0.6177  0.3183 -0.9611
 4143TIP3   OH233919   3.369   1.885   0.351 -0.0722 -0.0501  0.2095
 4143TIP3    H133920   3.298   1.835   0.310 -0.7921 -0.7252  2.1624
 4143TIP3    H233921   3.393   1.951   0.285 -0.3351 -1.7858 -1.7196
 4144TIP3   OH233922   2.273   4.157  12.281 -0.4854 -0.0266  0.2693
 4144TIP3    H133923   2.286   4.240  12.327  1.3219 -1.4280  2.5415
 4144TIP3    H233924   2.299   4.090  12.345  0.8205 -2.2218 -2.3509
 4145TIP3   OH233925   6.260   4.573  14.242 -0.1401 -0.5700 -0.4213
 4145TIP3    H133926   6.175   4.582  14.284  0.4624 -2.4371  1.3958
 4145TIP3    H233927   6.303   4.657  14.257 -0.5085 -0.6684  1.5314
 4146TIP3   OH233928   4.864   0.053  16.894  0.1406  0.0616 -0.7345
 4146TIP3    H133929   4.782   0.006  16.909  0.0785  0.4129  0.0768
 4146TIP3    H233930   4.841   0.122  16.833 -0.3200  0.5426 -0.0380
 4147TIP3   OH233931   3.523   4.727   3.987 -0.5378  0.1249  0.3900
 4147TIP3    H133932   3.613   4.712   4.017 -0.3778  0.4477  0.0757
 4147TIP3    H233933   3.498   4.646   3.944 -0.8711 -0.4624  1.6216
 4148TIP3   OH233934   0.804   3.585  16.263 -0.4393  0.4084 -0.2268
 4148TIP3    H133935   0.841   3.497  16.260  0.7521  0.8494  0.5776
 4148TIP3    H233936   0.712   3.572  16.283 -0.5051 -0.6920 -1.1413
 4149TIP3   OH233937   3.794   4.770  13.115  0.0634  0.0580 -0.0119
 4149TIP3    H133938   3.838   4.839  13.065 -1.8323  1.1784 -0.2709
 4149TIP3    H233939   3.781   4.699  13.052  0.0602  0.3829 -0.3796
 4150TIP3   OH233940   3.051   1.365   5.960  0.0529 -0.0215 -0.1699
 4150TIP3    H133941   2.985   1.356   6.028  1.3424  0.2389  1.1658
 4150TIP3    H233942   3.079   1.275   5.941  0.0710 -0.0572  0.0302
 4151TIP3   OH233943   2.032   5.218   3.335  0.4494 -0.1816  0.1846
 4151TIP3    H133944   2.039   5.303   3.379  1.2595  0.3988 -1.0023
 4151TIP3    H233945   1.997   5.159   3.401  1.1320  0.7739  1.4297
 4152TIP3   OH233946   2.240   1.987   5.805 -0.5466 -0.1276  0.1210
 4152TIP3    H133947   2.319   1.973   5.856 -0.5837 -1.0040 -0.0586
 4152TIP3    H233948   2.169   1.979   5.869 -0.4785  1.6503  0.4894
 4153TIP3   OH233949   3.339   6.538  17.264  0.5379  0.5184  0.3534
 4153TIP3    H133950   3.381   6.453  17.278 -0.2743  0.2221  1.0760
 4153TIP3    H233951   3.342   6.580  17.349 -0.7899  0.4055  0.4743
 4154TIP3   OH233952   0.955   6.782   0.220 -0.0716 -0.6229  0.2302
 4154TIP3    H133953   0.969   6.852   0.284 -1.5045  0.1027 -0.2153
 4154TIP3    H233954   0.899   6.821   0.153  0.1976 -1.8044 -0.7315
 4155TIP3   OH233955   5.202   3.529  13.632 -0.4106  0.1936  0.0239
 4155TIP3    H133956   5.168   3.615  13.606 -0.6391  0.3938  0.9374
 4155TIP3    H233957   5.295   3.543  13.645 -0.6180  0.5637  1.1785
 4156TIP3   OH233958   2.660   3.819   0.216 -0.0282  0.5742  0.5945
 4156TIP3    H133959   2.575   3.781   0.240 -0.5169  1.4197  0.2419
 4156TIP3    H233960   2.724   3.755   0.246 -0.7823  0.0164  1.0514
 4157TIP3   OH233961   6.442   5.548  13.929 -0.4259 -0.1888  0.0324
 4157TIP3    H133962   6.511   5.604  13.963 -1.4082  0.8720  0.3599
 4157TIP3    H233963   6.471   5.459  13.948 -0.3097  0.2991  2.4475
 4158TIP3   OH233964   3.930   3.896   3.754 -0.2493  0.6864 -0.2863
 4158TIP3    H133965   3.964   3.806   3.760  0.0301  0.5765 -2.5065
 4158TIP3    H233966   3.859   3.899   3.819 -2.0401 -2.0191 -1.8917
 4159TIP3   OH233967   0.137   5.254  16.441  0.5666  0.4450  0.5905
 4159TIP3    H133968   0.097   5.308  16.372  1.4999  1.5940  0.9117
 4159TIP3    H233969   0.111   5.298  16.523  1.1021  0.2479  0.8687
 4160TIP3   OH233970   1.475   5.762  17.292  0.0984 -0.0270  0.3458
 4160TIP3    H133971   1.434   5.677  17.276 -0.9541  0.4399  0.4567
 4160TIP3    H233972   1.476   5.770  17.387  0.9692 -0.2616  0.3674
 4161TIP3   OH233973   0.510   0.823   0.559  0.5955 -0.1495  0.0915
 4161TIP3    H133974   0.456   0.894   0.594 -0.6719 -0.9987 -0.0848
 4161TIP3    H233975   0.575   0.868   0.504 -0.9290  0.8184 -0.9977
 4162TIP3   OH233976   3.124   3.459  14.078 -0.9611  0.0152 -0.0002
 4162TIP3    H133977   3.105   3.463  13.984 -1.4402  0.5151  0.1103
 4162TIP3    H233978   3.039   3.475  14.120 -0.5819  0.7344  0.5141
 4163TIP3   OH233979   6.640   5.898   3.181  0.9081  0.7618  0.1680
 4163TIP3    H133980   6.619   5.990   3.198  0.6038  0.5717  0.8846
 4163TIP3    H233981   6.734   5.898   3.162  1.2109  1.0535  1.5703
 4164TIP3   OH233982   3.991   5.060  16.373 -0.1906 -0.0321  0.1740
 4164TIP3    H133983   3.909   5.089  16.414 -1.6200 -0.2339 -2.2879
 4164TIP3    H233984   3.998   4.967  16.397 -1.5064 -0.3980 -0.6915
 4165TIP3   OH233985   6.386   5.851  15.682  0.1096 -0.5441  0.2992
 4165TIP3    H133986   6.472   5.837  15.644 -0.1338  2.2800 -1.6275
 4165TIP3    H233987   6.325   5.826  15.613 -0.4144  2.0144 -0.2745
 4166TIP3   OH233988   0.623   5.192  13.429 -0.0241 -0.1139  0.1124
 4166TIP3    H133989   0.692   5.128  13.412 -0.2068 -0.3141  0.1065
 4166TIP3    H233990   0.592   5.217  13.341  2.0239  2.2114 -0.0339
 4167TIP3   OH233991   2.892   6.619  13.468  0.0772 -0.3487 -0.4631
 4167TIP3    H133992   2.803   6.621  13.434  0.5087  2.3049 -1.6648
 4167TIP3    H233993   2.883   6.645  13.560 -0.2933  1.8183 -1.0523
 4168TIP3   OH233994   2.788   1.781   6.186  0.1247 -0.1050 -0.5313
 4168TIP3    H133995   2.836   1.812   6.264  0.6616  0.1013 -0.9394
 4168TIP3    H233996   2.702   1.822   6.194 -1.5900 -3.6238  2.3880
 4169TIP3   OH233997   6.606   5.978   5.587  0.7746 -0.2354  0.2211
 4169TIP3    H133998   6.578   5.951   5.675  0.7858  0.4389  0.4360
 4169TIP3    H233999   6.645   5.899   5.550  1.3205 -0.3755  1.0544
 4170TIP3   OH234000   3.350   4.098  16.907 -0.6086 -0.4057 -0.0653
 4170TIP3    H134001   3.368   4.056  16.823 -1.0862  1.1521 -0.9705
 4170TIP3    H234002   3.398   4.044  16.970  0.4944 -1.0925 -1.4253
 4171TIP3   OH234003   5.396   0.328  10.380  0.4423  0.0139 -0.5698
 4171TIP3    H134004   5.345   0.389  10.433 -0.2537  0.9905 -2.2854
 4171TIP3    H234005   5.342   0.313  10.302  0.7059 -2.6088 -0.3448
 4172TIP3   OH234006   1.286   3.952  15.759 -0.2497  0.1239  0.1779
 4172TIP3    H134007   1.211   3.910  15.717 -0.8051  0.2650  1.0202
 4172TIP3    H234008   1.346   3.971  15.687 -0.7373 -0.5723 -0.4224
 4173TIP3   OH234009   5.460   4.778   3.038 -0.2482  0.2886  0.1602
 4173TIP3    H134010   5.544   4.733   3.040  0.0629  0.8559  0.2595
 4173TIP3    H234011   5.400   4.720   3.084  0.7570  1.1948  2.7702
 4174TIP3   OH234012   6.386   5.596  16.675  0.7365  0.0964 -0.7769
 4174TIP3    H134013   6.480   5.592  16.694  1.4407  1.6766 -3.3991
 4174TIP3    H234014   6.369   5.688  16.655 -1.7908  0.1626  1.1815
 4175TIP3   OH234015   3.131   5.986  14.691 -0.1082 -0.0443 -0.1231
 4175TIP3    H134016   3.128   6.080  14.678 -1.1157  0.0292  0.4667
 4175TIP3    H234017   3.223   5.963  14.683  0.2639  1.1194  0.5771
 4176TIP3   OH234018   5.541   4.362   4.943 -0.4743 -0.2898 -0.0785
 4176TIP3    H134019   5.575   4.437   4.895  1.2059  0.1455  1.6331
 4176TIP3    H234020   5.606   4.293   4.928  0.2015 -0.0778  1.6252
 4177TIP3   OH234021   4.717   2.315  12.726  0.3317  0.0841 -0.3230
 4177TIP3    H134022   4.770   2.337  12.650  1.7095  0.5712  0.7326
 4177TIP3    H234023   4.643   2.376  12.723  1.0610  0.9708 -0.5731
 4178TIP3   OH234024   4.857   1.473   2.636 -0.3039  0.4329  0.5743
 4178TIP3    H134025   4.772   1.445   2.602 -0.2542 -0.1630  0.9275
 4178TIP3    H234026   4.918   1.457   2.564 -0.4491  0.6432  0.4023
 4179TIP3   OH234027   0.774   3.879   1.563 -0.4639  0.0086 -0.5272
 4179TIP3    H134028   0.861   3.840   1.558 -0.5479 -0.3533  0.5613
 4179TIP3    H234029   0.720   3.824   1.506 -0.3000 -0.7068 -0.0076
 4180TIP3   OH234030   0.502   0.929   4.640  0.0962  0.4953  0.5657
 4180TIP3    H134031   0.512   0.847   4.591 -0.7421  1.3059 -1.0706
 4180TIP3    H234032   0.578   0.933   4.697  1.1072 -0.5673 -0.6409
 4181TIP3   OH234033   0.766   0.303   1.855  0.0622 -0.4548 -0.0967
 4181TIP3    H134034   0.763   0.355   1.774  0.9674  0.4266  0.4149
 4181TIP3    H234035   0.794   0.216   1.826 -1.7014 -0.7739 -1.0013
 4182TIP3   OH234036   0.103   6.465  14.067 -0.0652  0.2856  0.3401
 4182TIP3    H134037   0.018   6.491  14.031 -0.3302 -0.9451  0.0317
 4182TIP3    H234038   0.164   6.473  13.994 -0.2690 -0.5297  0.0680
 4183TIP3   OH234039   6.563   1.271   2.582  0.0735 -0.5217 -0.2334
 4183TIP3    H134040   6.566   1.187   2.627  0.6070 -0.9202 -0.9930
 4183TIP3    H234041   6.623   1.327   2.631 -1.2208 -0.1836  1.0232
 4184TIP3   OH234042   6.693   3.278  15.246  0.0040 -0.5559  0.4057
 4184TIP3    H134043   6.708   3.336  15.321 -0.0480 -0.8523  0.6475
 4184TIP3    H234044   6.742   3.198  15.268 -1.4996 -1.3554  0.9798
 4185TIP3   OH234045   1.465   6.619  12.744 -0.1583  0.1928 -0.1101
 4185TIP3    H134046   1.513   6.549  12.701  0.9245  0.0633  1.2284
 4185TIP3    H234047   1.383   6.626  12.695  0.1031 -1.3775 -0.8336
 4186TIP3   OH234048   5.111   2.343  17.224  0.3241  0.2633  0.2781
 4186TIP3    H134049   5.036   2.342  17.283  0.0473  0.0656 -0.0734
 4186TIP3    H234050   5.107   2.259  17.179  1.5234 -0.3347  1.2049
 4187TIP3   OH234051   2.803   1.678   5.772  0.5327  0.1558  0.0495
 4187TIP3    H134052   2.751   1.645   5.845 -1.0071  0.3016 -0.9598
 4187TIP3    H234053   2.828   1.600   5.723 -1.4937  0.2856 -1.2643
 4188TIP3   OH234054   1.415   1.962  11.800  0.2903  0.0615 -0.3407
 4188TIP3    H134055   1.364   1.907  11.741  0.5816 -1.2661  0.6200
 4188TIP3    H234056   1.412   1.917  11.884  0.7490  1.3893  0.4234
 4189TIP3   OH234057   2.812   2.203   5.956 -0.0983  0.2861 -0.1298
 4189TIP3    H134058   2.872   2.129   5.961  1.3826  1.5029  0.7713
 4189TIP3    H234059   2.736   2.175   6.006  0.6430 -0.4394  0.6149
 4190TIP3   OH234060   0.261   3.348   0.111  0.2783  0.0817 -0.5008
 4190TIP3    H134061   0.332   3.388   0.160 -0.0732  0.3130 -0.1672
 4190TIP3    H234062   0.210   3.422   0.077 -1.6243  0.0226  1.9316
 4191TIP3   OH234063   2.203   3.919   3.921 -0.3703 -0.2924  0.6259
 4191TIP3    H134064   2.132   3.880   3.870 -0.3897 -0.9107  1.1110
 4191TIP3    H234065   2.222   4.002   3.877 -0.9485 -0.4284  0.1105
 4192TIP3   OH234066   2.793   3.593  15.838 -0.1189  0.0780 -0.3520
 4192TIP3    H134067   2.812   3.634  15.753  0.0254  2.9233  0.9453
 4192TIP3    H234068   2.848   3.640  15.901 -0.4965 -1.7009  1.4084
 4193TIP3   OH234069   2.674   1.350   1.241 -0.3579  0.3423 -0.4489
 4193TIP3    H134070   2.608   1.345   1.172 -0.2646  0.6424 -0.5605
 4193TIP3    H234071   2.628   1.387   1.316 -0.1685  1.1565 -0.7195
 4194TIP3   OH234072   0.040   1.041   1.170 -0.2089  0.2594 -0.2576
 4194TIP3    H134073   0.091   1.119   1.150  0.2962 -0.2789 -1.1402
 4194TIP3    H234074  -0.051   1.066   1.155 -0.0353  0.6231 -0.7225
 4195TIP3   OH234075   1.075   4.436  11.416  0.2267 -0.0456 -0.6299
 4195TIP3    H134076   1.038   4.495  11.481  1.6029 -0.8298  0.9371
 4195TIP3    H234077   1.120   4.493  11.355  1.3226  0.5915  0.7235
 4196TIP3   OH234078   5.699   1.452   0.065 -0.3713 -0.5930 -0.1488
 4196TIP3    H134079   5.760   1.395   0.110 -1.3999 -0.9363  0.8611
 4196TIP3    H234080   5.717   1.439  -0.028  1.7777  0.1088  0.1196
 4197TIP3   OH234081   4.938   2.356  13.924  0.7930  0.1387 -0.0003
 4197TIP3    H134082   4.896   2.335  14.007  1.4818 -0.1834  0.2752
 4197TIP3    H234083   5.005   2.289  13.914 -0.3282 -0.8204 -1.6147
 4198TIP3   OH234084   5.915   0.274   2.471  0.3989 -0.4190 -0.1802
 4198TIP3    H134085   5.916   0.330   2.394 -0.8040 -0.5492 -0.3173
 4198TIP3    H234086   5.902   0.335   2.544  2.6038 -0.1785  0.0754
 4199TIP3   OH234087   6.735   3.621   0.834 -0.8476  0.1419 -0.5047
 4199TIP3    H134088   6.725   3.562   0.760 -1.5266 -3.1241  1.9379
 4199TIP3    H234089   6.648   3.624   0.874 -0.4186  1.4916  0.4085
 4200TIP3   OH234090   6.596   0.719   1.748  0.6198  0.0016 -0.3113
 4200TIP3    H134091   6.583   0.635   1.791  1.0989 -0.1703 -0.4921
 4200TIP3    H234092   6.681   0.711   1.706  0.2401  0.2266 -1.1468
 4201TIP3   OH234093   6.719   1.718  14.890  0.8181  0.4454  0.2787
 4201TIP3    H134094   6.704   1.798  14.940 -0.3612 -0.3273  1.2155
 4201TIP3    H234095   6.743   1.749  14.803 -1.0522  1.8526  0.1902
 4202TIP3   OH234096   2.725   2.432   3.167  0.0283 -0.4921  0.7513
 4202TIP3    H134097   2.688   2.351   3.200 -0.2129  0.0160  1.7920
 4202TIP3    H234098   2.777   2.466   3.240  0.1914  0.2469  0.3094
 4203TIP3   OH234099   0.921   6.711  17.105  0.4605 -0.2222  0.1521
 4203TIP3    H134100   0.897   6.799  17.132  1.2011  0.5025 -1.4256
 4203TIP3    H234101   1.017   6.713  17.101  0.4388 -0.7400 -1.0014
 4204TIP3   OH234102   6.313   6.194  12.295  0.0773  0.0331 -0.0895
 4204TIP3    H134103   6.240   6.238  12.340  0.1849  0.0883  0.0311
 4204TIP3    H234104   6.391   6.226  12.339  0.0675 -2.1111  1.6241
 4205TIP3   OH234105   1.405   4.859  14.205  0.0374 -0.2051  0.2327
 4205TIP3    H134106   1.400   4.777  14.255 -0.1128 -0.7526 -0.6420
 4205TIP3    H234107   1.498   4.875  14.194  0.2948  2.1947  4.2105
 4206TIP3   OH234108   4.399   6.452  10.972  0.1681  0.0874 -0.3751
 4206TIP3    H134109   4.443   6.526  11.012 -0.6406  0.7846 -0.7538
 4206TIP3    H234110   4.382   6.480  10.882 -4.2502  1.3392  0.6363
 4207TIP3   OH234111   2.968   3.688   1.579 -0.0662 -0.1467  0.5901
 4207TIP3    H134112   2.988   3.772   1.538  1.5636 -0.0621  1.4437
 4207TIP3    H234113   2.969   3.625   1.508 -2.6701  0.6706 -0.2963
 4208TIP3   OH234114   1.281   0.957  13.013 -0.1401 -0.4457  0.1104
 4208TIP3    H134115   1.365   0.933  13.052  1.8247  1.6344 -2.4084
 4208TIP3    H234116   1.246   1.026  13.070 -0.2052 -1.3642  1.2105
 4209TIP3   OH234117   3.802   6.467   4.802  0.1883  0.6182 -0.4802
 4209TIP3    H134118   3.838   6.501   4.884  2.0045 -0.7279 -0.6428
 4209TIP3    H234119   3.867   6.492   4.735  0.3979 -1.0442 -0.9540
 4210TIP3   OH234120   3.811   2.466   1.894  0.3523  0.2720  0.0176
 4210TIP3    H134121   3.776   2.377   1.887  1.8549 -0.3020 -0.7156
 4210TIP3    H234122   3.805   2.501   1.805 -1.0601  1.2769  0.4664
 4211TIP3   OH234123   2.983   1.060  13.226 -0.0806  0.3841 -0.0896
 4211TIP3    H134124   2.982   1.116  13.149  1.4213  2.3367  1.2466
 4211TIP3    H234125   3.075   1.051  13.250 -0.3597 -1.7254  0.4408
 4212TIP3   OH234126   0.064   4.550   0.263 -0.0596  0.1924  0.1339
 4212TIP3    H134127  -0.011   4.566   0.206  0.2383 -0.1728 -0.3796
 4212TIP3    H234128   0.126   4.619   0.240  1.1527 -1.4719 -1.9530
 4213TIP3   OH234129   2.402   6.221   5.148 -0.0636  0.7509  0.3273
 4213TIP3    H134130   2.405   6.248   5.057  2.9772  1.4189  0.5293
 4213TIP3    H234131   2.455   6.286   5.194 -1.3693  0.3389  2.5663
 4214TIP3   OH234132   2.243   0.277   0.539 -0.1150  0.2699 -0.0176
 4214TIP3    H134133   2.296   0.199   0.522  0.2107  0.6111 -0.6137
 4214TIP3    H234134   2.198   0.294   0.456 -1.8322 -0.5073  0.7194
 4215TIP3   OH234135   0.450   5.025  12.852 -0.1396  0.0868  0.1918
 4215TIP3    H134136   0.390   5.097  12.871  0.3328  0.1473  1.5423
 4215TIP3    H234137   0.537   5.061  12.868  0.1841 -0.4135 -0.3943
 4216TIP3   OH234138   3.582   5.361   4.883 -0.3516  0.0924 -0.1050
 4216TIP3    H134139   3.542   5.431   4.933 -0.2103  0.3709 -0.3784
 4216TIP3    H234140   3.627   5.307   4.948 -0.0172  0.5484  0.0490
 4217TIP3   OH234141   0.595   3.161   4.271 -0.0138  0.4049 -0.5934
 4217TIP3    H134142   0.675   3.213   4.263 -0.3858  0.7756 -2.4665
 4217TIP3    H234143   0.525   3.222   4.248 -0.6857 -0.3240 -0.5074
 4218TIP3   OH234144   6.728   5.638   3.269  0.2876  0.0964 -0.3596
 4218TIP3    H134145   6.681   5.721   3.262  0.7431  0.4897  0.9548
 4218TIP3    H234146   6.809   5.653   3.221 -0.4296 -0.2433 -1.7458
 4219TIP3   OH234147   4.274   2.174  15.257  0.0165  0.5107 -0.5703
 4219TIP3    H134148   4.199   2.124  15.226  1.3229 -1.5257 -0.6249
 4219TIP3    H234149   4.306   2.221  15.180  0.2026 -0.5178 -1.1351
 4220TIP3   OH234150   4.863   4.992  12.142 -0.3853  0.0785 -0.7843
 4220TIP3    H134151   4.908   4.995  12.227 -0.2082  0.0084 -0.8746
 4220TIP3    H234152   4.833   5.082  12.129 -0.8649 -0.0264 -0.4113
 4221TIP3   OH234153   2.516   3.578   1.737  0.6831 -0.1921 -0.4782
 4221TIP3    H134154   2.425   3.558   1.759  0.6315 -0.9136 -1.2917
 4221TIP3    H234155   2.510   3.641   1.665  0.8323  0.0326 -0.2944
 4222TIP3   OH234156   3.888   4.128   6.718 -0.3562  0.0531 -0.0061
 4222TIP3    H134157   3.872   4.162   6.630 -1.1963  1.8848  0.7887
 4222TIP3    H234158   3.883   4.033   6.709 -0.1531  0.1861 -1.9660
 4223TIP3   OH234159   1.425   4.498   0.057  0.2430 -0.1009  0.2351
 4223TIP3    H134160   1.486   4.462   0.121  1.0900  0.4284 -0.2585
 4223TIP3    H234161   1.402   4.584   0.093  0.0891 -0.1371  0.2245
 4224TIP3   OH234162   4.483   6.117  16.741 -0.4622  0.1654 -0.1546
 4224TIP3    H134163   4.513   6.206  16.756 -1.2856  0.6488 -1.2211
 4224TIP3    H234164   4.428   6.096  16.816 -0.0328  0.4425  0.2389
 4225TIP3   OH234165   5.210   4.001   2.181 -0.1366  0.3609  0.0224
 4225TIP3    H134166   5.232   4.032   2.093 -1.6363  2.3875  0.2797
 4225TIP3    H234167   5.122   4.036   2.197 -1.2433 -2.6532  1.1158
 4226TIP3   OH234168   4.052   6.540   0.847  0.0645  0.3480  0.1943
 4226TIP3    H134169   4.100   6.623   0.846  0.1573  0.3057  0.9816
 4226TIP3    H234170   4.050   6.514   0.939  0.6804 -0.9062 -0.1320
 4227TIP3   OH234171   2.801   0.973   2.039  0.0085  0.0148  0.1283
 4227TIP3    H134172   2.773   1.040   1.976 -0.2070 -1.0673 -0.9560
 4227TIP3    H234173   2.882   1.008   2.076  0.8384  0.1318 -1.6880
 4228TIP3   OH234174   6.712   1.858   3.970  0.4342  0.5168 -0.0764
 4228TIP3    H134175   6.777   1.814   4.025  2.3967  2.4412 -0.6853
 4228TIP3    H234176   6.684   1.934   4.021  0.0337  0.6770 -0.5273
 4229TIP3   OH234177   3.608   1.849  15.043 -0.0030 -0.2235 -0.3081
 4229TIP3    H134178   3.667   1.782  15.009 -2.6947 -1.9706 -1.8616
 4229TIP3    H234179   3.530   1.801  15.069 -0.5767  1.9136  2.3031
 4230TIP3   OH234180   5.480   1.398   2.401  0.2105  0.3587  0.2491
 4230TIP3    H134181   5.482   1.329   2.335 -0.7241 -0.2899  0.8686
 4230TIP3    H234182   5.392   1.392   2.439  0.6818  0.7892  1.4592
 4231TIP3   OH234183   6.168   0.648   4.530  0.0660 -0.5000 -0.2833
 4231TIP3    H134184   6.241   0.591   4.508  1.8968  1.9409 -0.9866
 4231TIP3    H234185   6.191   0.684   4.615 -0.8364 -0.4781 -0.0430
 4232TIP3   OH234186   0.583   6.405  15.768 -0.2596 -0.1324  0.1080
 4232TIP3    H134187   0.567   6.408  15.862  2.2540 -1.8004  0.7059
 4232TIP3    H234188   0.552   6.318  15.741 -0.8493  0.2883 -0.5797
 4233TIP3   OH234189   0.509   6.002   2.718  0.1451 -0.1191 -0.5400
 4233TIP3    H134190   0.592   5.959   2.699  0.0437 -0.8787  0.6272
 4233TIP3    H234191   0.533   6.091   2.743  0.4263  0.2945 -2.1641
 4234TIP3   OH234192   4.791   1.589   4.733  0.0451 -0.0594 -0.8265
 4234TIP3    H134193   4.864   1.546   4.689  0.5416  1.0174 -1.0999
 4234TIP3    H234194   4.808   1.683   4.721 -0.4202  0.2419  0.6692
 4235TIP3   OH234195   5.533   5.713  13.423  0.1346  0.4897  0.2793
 4235TIP3    H134196   5.561   5.805  13.423 -1.0664  0.9039 -1.1964
 4235TIP3    H234197   5.439   5.717  13.407 -0.4084 -0.9321  2.6732
 4236TIP3   OH234198   6.305   0.848  16.092 -0.1578  0.2661 -0.1132
 4236TIP3    H134199   6.312   0.933  16.048  1.3343 -0.9250 -2.3971
 4236TIP3    H234200   6.394   0.831  16.124 -0.5779 -0.1701  0.8463
 4237TIP3   OH234201   4.393   5.538  13.209 -0.3372  0.1683  0.0938
 4237TIP3    H134202   4.391   5.442  13.214 -1.2631  0.0351 -1.8947
 4237TIP3    H234203   4.366   5.567  13.296 -2.1368 -1.4152  0.1394
 4238TIP3   OH234204   5.187   3.776   0.283 -0.0243 -0.3048 -0.2031
 4238TIP3    H134205   5.220   3.725   0.357  1.4994  1.0618  0.1025
 4238TIP3    H234206   5.135   3.845   0.324  0.0270 -0.1132 -0.4616
 4239TIP3   OH234207   3.319   1.032   2.544  0.0391  0.4370  0.0592
 4239TIP3    H134208   3.240   1.068   2.504 -1.4535 -0.9893  1.5850
 4239TIP3    H234209   3.372   1.003   2.469 -1.1517  0.8471 -0.9819
 4240TIP3   OH234210   1.443   2.362  13.134 -0.4556  0.3692 -0.4806
 4240TIP3    H134211   1.410   2.293  13.192  2.5491  1.2302  2.5788
 4240TIP3    H234212   1.440   2.323  13.046 -1.5802 -2.5463  0.7282
 4241TIP3   OH234213   6.177   1.738  12.438  0.8314  0.2591  0.2477
 4241TIP3    H134214   6.113   1.676  12.402  1.8800 -0.0605 -1.1362
 4241TIP3    H234215   6.124   1.813  12.466 -0.5168 -1.3324  2.3250
 4242TIP3   OH234216   2.428   3.409  17.253  0.2410 -0.5225  0.2622
 4242TIP3    H134217   2.486   3.402  17.329  1.8426 -0.8242 -0.9250
 4242TIP3    H234218   2.406   3.319  17.231  1.3264 -0.5849 -0.7092
 4243TIP3   OH234219   1.206   3.587  13.071 -0.2050 -0.1013  0.2902
 4243TIP3    H134220   1.122   3.543  13.062  0.3935 -1.0093 -1.1446
 4243TIP3    H234221   1.269   3.531  13.025  1.2046  0.5344  1.3440
 4244TIP3   OH234222   2.817   4.728  11.816 -0.5009  0.3473 -0.0631
 4244TIP3    H134223   2.831   4.803  11.873 -1.9434  1.9801 -1.7540
 4244TIP3    H234224   2.727   4.736  11.786 -0.3033 -1.3843 -1.2881
 4245TIP3   OH234225   4.971   4.854  14.163  0.2875  0.3138 -0.3860
 4245TIP3    H134226   4.905   4.843  14.230 -0.0086  1.0129 -0.5465
 4245TIP3    H234227   4.955   4.942  14.128  0.4729 -0.0124 -1.3216
 4246TIP3   OH234228   5.897   6.043  13.331 -0.4359  0.3087  0.3623
 4246TIP3    H134229   5.988   6.023  13.354 -0.1853  0.1268 -0.7367
 4246TIP3    H234230   5.881   6.130  13.369  0.5309  0.7811 -0.2733
 4247TIP3   OH234231   5.447   4.865   0.706 -0.3365  0.4434 -0.2429
 4247TIP3    H134232   5.509   4.818   0.763 -1.2705 -0.0769  0.3684
 4247TIP3    H234233   5.363   4.858   0.751 -1.4472 -1.3720 -2.4087
 4248TIP3   OH234234   5.619   4.576  11.331  0.0868 -0.2901  0.2327
 4248TIP3    H134235   5.534   4.573  11.286  0.4430 -0.8384 -0.4268
 4248TIP3    H234236   5.680   4.605  11.263  0.4310  0.1021  0.7036
 4249TIP3   OH234237   1.511   5.480  15.240 -0.0151  0.5046 -0.0873
 4249TIP3    H134238   1.491   5.388  15.219  0.3980  0.2766  0.5180
 4249TIP3    H234239   1.425   5.522  15.243 -0.4551 -0.4050  2.1686
 4250TIP3   OH234240   0.762   1.621  11.741 -0.0878 -0.2015  0.2483
 4250TIP3    H134241   0.773   1.688  11.673 -0.1528 -2.3457 -2.0257
 4250TIP3    H234242   0.671   1.630  11.769 -0.2324  0.3614 -0.3652
 4251TIP3   OH234243   4.002   0.233  13.951 -0.2068 -0.4318  0.3661
 4251TIP3    H134244   3.942   0.207  14.021 -0.4454 -1.3691 -0.1715
 4251TIP3    H234245   4.087   0.198  13.978 -0.1992 -0.3771  0.4137
 4252TIP3   OH234246   2.945   3.185   1.869  0.1714 -0.3329  0.5352
 4252TIP3    H134247   2.885   3.113   1.852 -1.1823  1.0725 -1.0911
 4252TIP3    H234248   2.926   3.212   1.959 -0.5249 -0.9057  0.5638
 4253TIP3   OH234249   6.109   3.608  12.645  0.7095  0.2611  0.0119
 4253TIP3    H134250   6.118   3.599  12.740  0.1940 -2.4547 -0.1234
 4253TIP3    H234251   6.188   3.568  12.609  0.3955  0.2640 -0.7067
 4254TIP3   OH234252   6.599   5.876   0.915  0.0443 -0.1675  0.1910
 4254TIP3    H134253   6.673   5.838   0.963  0.1856 -0.8399 -0.5376
 4254TIP3    H234254   6.539   5.802   0.902 -1.0764  0.5026  1.3306
 4255TIP3   OH234255   3.721   1.038  10.675  0.2178 -0.7367 -0.1786
 4255TIP3    H134256   3.713   1.008  10.584  1.9085 -3.5067  0.4840
 4255TIP3    H234257   3.788   1.106  10.672  0.7354 -1.2665 -0.9161
 4256TIP3   OH234258   0.133   0.544  16.249 -0.1777  0.5476 -0.5671
 4256TIP3    H134259   0.211   0.517  16.200  0.7509  0.0757  1.0896
 4256TIP3    H234260   0.164   0.558  16.338 -1.6344  2.2713 -0.2686
 4257TIP3   OH234261   4.987   0.128   2.411  0.8560  0.1302 -0.3579
 4257TIP3    H134262   4.975   0.127   2.316  1.6546  0.8767 -0.4771
 4257TIP3    H234263   5.063   0.071   2.426 -0.6305 -1.8552  0.0765
 4258TIP3   OH234264   2.535   0.049  12.502  0.0091  0.2995  0.1114
 4258TIP3    H134265   2.514  -0.038  12.536  1.4444 -0.0320  0.2271
 4258TIP3    H234266   2.614   0.075  12.549  1.4242  0.3146 -2.0885
 4259TIP3   OH234267   3.612   4.510   2.084  0.6797 -0.1287  0.3199
 4259TIP3    H134268   3.544   4.466   2.032  0.4525  0.5710  0.0146
 4259TIP3    H234269   3.643   4.581   2.027  0.5179  0.5685  1.0932
 4260TIP3   OH234270   6.115   3.712  10.609 -0.9636 -0.5315 -0.4590
 4260TIP3    H134271   6.198   3.725  10.654 -2.3201 -0.9587  2.3903
 4260TIP3    H234272   6.096   3.796  10.569 -0.3281  0.3585  1.0277
 4261TIP3   OH234273   3.601   2.155   1.244  0.1006  0.4252 -0.2855
 4261TIP3    H134274   3.656   2.128   1.318  0.5779  0.1747 -0.7202
 4261TIP3    H234275   3.660   2.153   1.169 -0.5553 -0.0173 -0.7968
 4262TIP3   OH234276   5.211   2.034   1.604  0.0557 -0.2014 -0.2474
 4262TIP3    H134277   5.123   1.999   1.619 -1.1822  2.4287 -0.7649
 4262TIP3    H234278   5.262   2.005   1.680 -1.9227  0.1764  1.3183
 4263TIP3   OH234279   3.683   4.692   0.424  0.2332  0.0207 -0.3538
 4263TIP3    H134280   3.600   4.669   0.382  0.2373  0.6153 -0.6965
 4263TIP3    H234281   3.662   4.696   0.517  0.0988 -0.7689 -0.3409
 4264TIP3   OH234282   1.191   6.719  16.989 -0.3587 -0.2125  0.3399
 4264TIP3    H134283   1.256   6.651  16.972 -1.0229 -0.9707  0.7788
 4264TIP3    H234284   1.185   6.767  16.906 -0.0928 -0.8684 -0.0665
 4265TIP3   OH234285   2.505   0.608  12.819 -0.2178 -0.2645 -0.7328
 4265TIP3    H134286   2.429   0.665  12.830  0.9782  0.9266  3.2366
 4265TIP3    H234287   2.579   0.667  12.809  0.6871 -1.1540  0.2975
 4266TIP3   OH234288   5.570   1.437  11.465  0.6233  0.3524  0.0465
 4266TIP3    H134289   5.516   1.410  11.540 -1.3788  0.7689 -1.1657
 4266TIP3    H234290   5.648   1.382  11.471  0.3817  0.1577  2.2428
 4267TIP3   OH234291   1.671   2.530  13.084 -0.4066  0.0439 -0.1353
 4267TIP3    H134292   1.592   2.477  13.094 -0.8816  0.7043 -0.3578
 4267TIP3    H234293   1.678   2.579  13.165 -2.0103  2.3594 -1.3065
 4268TIP3   OH234294   1.684   0.167  11.080 -1.1296  0.4808 -0.0290
 4268TIP3    H134295   1.667   0.256  11.112 -2.5513  0.1714  0.1481
 4268TIP3    H234296   1.602   0.120  11.096 -0.4543 -0.8249 -0.2721
 4269TIP3   OH234297   6.362   0.781  15.588  0.6835 -0.1483  0.0872
 4269TIP3    H134298   6.365   0.875  15.572 -0.2945 -0.3189 -1.2997
 4269TIP3    H234299   6.284   0.751  15.541  0.4692 -1.5242  1.2396
 4270TIP3   OH234300   4.103   6.784  16.969 -0.3761 -0.2474  0.1760
 4270TIP3    H134301   4.090   6.842  17.044  0.4465 -0.7076  0.6881
 4270TIP3    H234302   4.161   6.833  16.911 -0.0568 -0.3616  0.3950
 4271TIP3   OH234303   6.431   2.547   1.947 -0.0944  0.3263  0.0374
 4271TIP3    H134304   6.341   2.554   1.979 -0.3353 -1.7908 -0.0184
 4271TIP3    H234305   6.476   2.622   1.985 -1.9961  1.7579 -0.3937
 4272TIP3   OH234306   3.888   0.733  12.793  0.0660 -0.1931 -0.0165
 4272TIP3    H134307   3.801   0.704  12.820  0.3124  0.6459  1.8499
 4272TIP3    H234308   3.949   0.683  12.847  0.6829  0.2912 -0.2420
 4273TIP3   OH234309   0.191   4.332  16.142 -0.1998 -0.2647  0.1061
 4273TIP3    H134310   0.172   4.278  16.065  1.0991 -1.1345  0.3658
 4273TIP3    H234311   0.127   4.305  16.207 -0.0626 -0.9342 -0.0329
 4274TIP3   OH234312   2.849   2.722  12.961  0.2367  0.5883 -0.0711
 4274TIP3    H134313   2.850   2.738  13.055 -0.5265 -2.6074  0.6230
 4274TIP3    H234314   2.941   2.705  12.940  0.3576  0.9133  0.1780
 4275TIP3   OH234315   2.727   3.498   3.678  0.3900  0.2617 -0.5613
 4275TIP3    H134316   2.667   3.568   3.702 -0.9946 -1.1501  0.2716
 4275TIP3    H234317   2.704   3.475   3.588  1.8617  1.8202 -1.4003
 4276TIP3   OH234318   4.363   5.249  13.195 -0.2976  0.6513 -0.5507
 4276TIP3    H134319   4.318   5.188  13.253  3.0681 -1.4733  0.0598
 4276TIP3    H234320   4.326   5.232  13.109 -2.5679  1.0578  0.2613
 4277TIP3   OH234321   3.243   6.697  15.515  0.1188 -0.2860  0.2046
 4277TIP3    H134322   3.223   6.726  15.604 -2.1394  0.5154 -0.4961
 4277TIP3    H234323   3.188   6.619  15.502  0.6076 -0.5356 -0.4222
 4278TIP3   OH234324   4.354   3.239   1.155 -0.3721 -0.3792  0.5732
 4278TIP3    H134325   4.447   3.216   1.161 -0.0013  1.0831  0.8013
 4278TIP3    H234326   4.309   3.171   1.204  0.6572 -0.6622  1.1479
 4279TIP3   OH234327   2.153   4.738  15.270  0.0911  0.0907 -0.4550
 4279TIP3    H134328   2.097   4.803  15.312 -0.8312 -0.2149 -1.1757
 4279TIP3    H234329   2.242   4.766  15.290 -0.2957 -0.3531  2.1422
 4280TIP3   OH234330   1.558   1.194   3.723  0.0611  0.0218  0.0114
 4280TIP3    H134331   1.476   1.159   3.690  0.6238 -3.1228  1.5951
 4280TIP3    H234332   1.621   1.183   3.652  0.5451 -3.8117  0.8393
 4281TIP3   OH234333   5.179   3.913   2.915  0.2872 -0.6057 -0.0980
 4281TIP3    H134334   5.221   3.870   2.841  1.8499  0.8330 -0.1077
 4281TIP3    H234335   5.086   3.897   2.902  0.7186 -3.0077 -0.6641
 4282TIP3   OH234336   6.502   0.259  11.793 -0.6478 -0.5764 -0.0568
 4282TIP3    H134337   6.432   0.193  11.787 -1.9438  0.5507  1.4789
 4282TIP3    H234338   6.455   0.343  11.796  0.8346  0.2775  0.0345
 4283TIP3   OH234339   1.598   0.067   5.561 -0.0225 -0.2437  0.1686
 4283TIP3    H134340   1.639   0.143   5.601 -0.1993 -0.5116  0.8811
 4283TIP3    H234341   1.601   0.084   5.467 -1.5600  1.4272  0.3766
 4284TIP3   OH234342   0.771   6.403   6.391 -0.4426  0.1396 -0.2678
 4284TIP3    H134343   0.866   6.405   6.397 -0.1701 -1.0482 -2.8447
 4284TIP3    H234344   0.751   6.462   6.318 -1.7552  0.7558  0.5560
 4285TIP3   OH234345   6.619   1.359   2.013 -0.0072  0.1796  0.4853
 4285TIP3    H134346   6.609   1.269   2.042 -1.3490 -0.1441 -0.8772
 4285TIP3    H234347   6.601   1.357   1.919  0.0300  1.8508  0.3990
 4286TIP3   OH234348   5.809   3.916   4.868 -0.0579 -0.4503 -0.5214
 4286TIP3    H134349   5.777   3.971   4.940  2.1316  2.0426 -1.3144
 4286TIP3    H234350   5.751   3.937   4.794 -0.2880 -0.5485 -0.3711
 4287TIP3   OH234351   6.405   4.872   1.946 -1.0096 -0.3014  1.1180
 4287TIP3    H134352   6.477   4.811   1.959  1.0990  1.5707 -0.8604
 4287TIP3    H234353   6.403   4.925   2.026  1.7279  1.3773  0.1973
 4288TIP3   OH234354   2.373   3.024   4.962 -0.4768  0.6393  0.4560
 4288TIP3    H134355   2.404   3.114   4.950 -1.9054  1.1482  0.3241
 4288TIP3    H234356   2.379   2.985   4.875 -0.0082  0.6603  0.4788
 4289TIP3   OH234357   2.648   2.236   3.333  0.1210  0.4275 -0.2233
 4289TIP3    H134358   2.649   2.178   3.409  0.5178  0.3188 -0.3080
 4289TIP3    H234359   2.630   2.323   3.369 -1.2628  0.1471 -0.1803
 4290TIP3   OH234360   4.926   5.636  14.356 -0.1638 -0.1854 -0.0961
 4290TIP3    H134361   4.928   5.557  14.410 -1.3004 -2.1496 -2.7135
 4290TIP3    H234362   4.854   5.687  14.392  0.1065 -0.6400  1.1776
 4291TIP3   OH234363   2.640   2.244   4.233 -0.4182 -0.0840  0.8263
 4291TIP3    H134364   2.545   2.251   4.239 -0.5559 -1.4696  0.4212
 4291TIP3    H234365   2.660   2.155   4.262  0.4217 -1.0160 -2.3069
 4292TIP3   OH234366   0.581   0.647  13.788  0.0024  0.2950 -0.2808
 4292TIP3    H134367   0.567   0.645  13.693 -0.2902  3.3483 -0.3853
 4292TIP3    H234368   0.598   0.739  13.808  0.1639 -0.2825  2.6371
 4293TIP3   OH234369   3.472   6.729   3.963  0.9670 -0.3966 -0.4019
 4293TIP3    H134370   3.490   6.669   3.891  1.0400  0.8378 -1.4519
 4293TIP3    H234371   3.437   6.808   3.920  0.2997  0.0851  0.9761
 4294TIP3   OH234372   3.244   6.725   3.498 -0.3256  0.4172  0.1025
 4294TIP3    H134373   3.333   6.760   3.508  0.0846 -1.0738  2.6835
 4294TIP3    H234374   3.254   6.653   3.435 -0.4520  2.2604 -2.1978
 4295TIP3   OH234375   5.239   5.157  16.790 -0.4589 -0.0005  0.4408
 4295TIP3    H134376   5.220   5.165  16.696  0.4384 -1.7902  0.0629
 4295TIP3    H234377   5.276   5.069  16.800 -1.2390 -0.1524  2.6063
 4296TIP3   OH234378   4.982   6.546   1.851  0.3442  0.0411 -0.0532
 4296TIP3    H134379   4.974   6.543   1.756 -1.0584  0.4209  0.0194
 4296TIP3    H234380   5.060   6.495   1.871  2.0506  1.8680 -1.5504
 4297TIP3   OH234381   2.136   3.093  11.250 -0.3451 -0.5926 -0.5652
 4297TIP3    H134382   2.213   3.039  11.266 -1.0540 -1.4158  0.1750
 4297TIP3    H234383   2.100   3.058  11.168  1.3183  1.3110 -2.1990
 4298TIP3   OH234384   6.012   1.531  11.631  0.0617  0.0823  0.5479
 4298TIP3    H134385   6.054   1.587  11.697  2.3945 -0.9051  0.0223
 4298TIP3    H234386   5.973   1.460  11.682  1.9923 -0.7666  0.9361
 4299TIP3   OH234387   4.638   4.327  15.888 -0.5390  0.0792  0.4561
 4299TIP3    H134388   4.659   4.239  15.920 -2.1071 -0.6442 -0.3848
 4299TIP3    H234389   4.711   4.350  15.831 -1.1287 -1.6912 -1.1492
 4300TIP3   OH234390   0.399   4.961  15.487 -0.0820 -0.1517  0.1363
 4300TIP3    H134391   0.467   4.896  15.501  1.7604  1.6233 -0.1980
 4300TIP3    H234392   0.415   4.994  15.399 -2.0079 -0.3522 -0.3435
 4301TIP3   OH234393   1.014   6.572  14.164  0.4608  0.0497 -0.0080
 4301TIP3    H134394   1.008   6.667  14.175  2.6626  0.1320  0.9193
 4301TIP3    H234395   1.046   6.560  14.075 -0.4838  0.1139 -0.3718
 4302TIP3   OH234396   5.496   3.277   3.618  0.4868  0.1188 -0.5083
 4302TIP3    H134397   5.579   3.242   3.651  0.4156  1.2503  0.9660
 4302TIP3    H234398   5.437   3.202   3.616  1.4002 -0.6042 -1.1081
 4303TIP3   OH234399   3.786   0.111   4.155 -0.1743  0.0091 -0.2589
 4303TIP3    H134400   3.768   0.185   4.098  2.0676 -0.3526 -1.5314
 4303TIP3    H234401   3.769   0.034   4.101 -0.8884 -0.3972  0.5245
 4304TIP3   OH234402   2.822   5.444   5.073  0.2899 -0.1544  0.1938
 4304TIP3    H134403   2.856   5.480   4.991  0.2457 -1.1818 -0.2908
 4304TIP3    H234404   2.792   5.356   5.050 -2.1503  0.4813  0.7394
 4305TIP3   OH234405   2.957   5.675   2.848 -0.2000  0.1168 -0.1289
 4305TIP3    H134406   3.042   5.693   2.809  0.6604 -0.4858  1.3939
 4305TIP3    H234407   2.899   5.741   2.810  1.7365  2.9617  1.5137
 4306TIP3   OH234408   2.047   4.056   3.644 -0.4646 -0.5111 -0.5850
 4306TIP3    H134409   2.123   4.108   3.669 -1.5772  0.3795  1.1233
 4306TIP3    H234410   2.080   3.997   3.576  2.1323 -1.2046  1.1138
 4307TIP3   OH234411   1.959   0.297  15.151  0.0219 -0.9619  0.5664
 4307TIP3    H134412   1.978   0.254  15.234 -0.3323 -1.3967  0.4286
 4307TIP3    H234413   1.997   0.239  15.084  1.7671  0.1978  0.4794
 4308TIP3   OH234414   1.186   2.470  15.162  0.2194  0.0182 -0.5572
 4308TIP3    H134415   1.264   2.506  15.205 -0.6998  0.6184  0.6599
 4308TIP3    H234416   1.150   2.542  15.112  2.0873 -1.0335 -3.7024
 4309TIP3   OH234417   0.867   1.381   4.102  0.1998 -0.6832  0.1144
 4309TIP3    H134418   0.786   1.395   4.052 -0.5721 -1.2907  1.1586
 4309TIP3    H234419   0.918   1.461   4.088 -2.6763  2.0284  3.3712
 4310TIP3   OH234420   5.101   5.316   4.402  1.0261 -0.4513  0.0844
 4310TIP3    H134421   5.114   5.225   4.376 -2.3626 -1.3202  0.8954
 4310TIP3    H234422   5.049   5.311   4.482 -1.1068  2.1271 -0.9569
 4311TIP3   OH234423   2.526   1.610   0.362 -0.0817 -0.2024 -0.2275
 4311TIP3    H134424   2.489   1.587   0.447 -0.0475  2.0124  0.4454
 4311TIP3    H234425   2.527   1.706   0.361  1.1633 -0.1769 -2.1888
 4312TIP3   OH234426   6.821   0.065   1.129  0.5435  0.0604 -0.0794
 4312TIP3    H134427   6.904   0.085   1.087 -0.0042  1.1183 -0.7140
 4312TIP3    H234428   6.802   0.141   1.183  0.0758 -0.2563  0.2114
 4313TIP3   OH234429   2.183   6.060  15.682 -0.3323  0.4299 -0.0859
 4313TIP3    H134430   2.206   5.970  15.659 -2.4687 -0.0677 -0.5091
 4313TIP3    H234431   2.114   6.050  15.748  0.8390  1.8009  1.4275
 4314TIP3   OH234432   2.004   6.725  10.349 -0.2356 -0.3106 -0.0913
 4314TIP3    H134433   2.094   6.701  10.331  0.7452  1.7983  1.5923
 4314TIP3    H234434   1.952   6.654  10.311  2.1538 -2.2722  0.1025
 4315TIP3   OH234435   0.391   2.017   0.869 -0.0556  0.0373  0.1086
 4315TIP3    H134436   0.326   1.947   0.862  0.4396 -0.3339 -0.8864
 4315TIP3    H234437   0.432   2.002   0.954 -0.2907 -0.5821  0.1179
 4316TIP3   OH234438   0.324   5.251   6.139  0.6314  0.0571 -0.7400
 4316TIP3    H134439   0.335   5.222   6.230  2.4393 -0.9225 -1.2220
 4316TIP3    H234440   0.324   5.347   6.145 -1.1800  0.0265  0.4508
 4317TIP3   OH234441   1.696   4.465   0.947  0.3855 -0.1082  0.0702
 4317TIP3    H134442   1.784   4.435   0.922 -0.4525 -3.2121  0.4877
 4317TIP3    H234443   1.703   4.483   1.041  0.5931 -0.2509  0.0824
 4318TIP3   OH234444   1.860   0.296  17.270 -0.3026 -0.3739  0.3826
 4318TIP3    H134445   1.795   0.285  17.339 -0.1008  0.3129  0.6938
 4318TIP3    H234446   1.923   0.225  17.284 -0.4204 -0.4109  0.7260
 4319TIP3   OH234447   4.512   2.503  12.669 -0.1838 -0.2088 -0.7222
 4319TIP3    H134448   4.472   2.581  12.710  0.4109 -0.7143  0.8912
 4319TIP3    H234449   4.501   2.518  12.575 -2.1306  0.7468 -0.4091
 4320TIP3   OH234450   5.347   2.338  15.957  0.0238  0.4199  0.2628
 4320TIP3    H134451   5.361   2.430  15.980 -0.4019  0.6784 -0.4913
 4320TIP3    H234452   5.254   2.323  15.972  0.0207  0.2171  0.0482
 4321TIP3   OH234453   6.113   2.983  13.078  0.5198 -0.2198 -0.0163
 4321TIP3    H134454   6.097   3.063  13.027  0.6026 -0.9339 -1.2110
 4321TIP3    H234455   6.208   2.982  13.089  0.3555  1.0258  2.0512
 4322TIP3   OH234456   6.256   0.364   4.340 -0.1107  0.2910 -0.1597
 4322TIP3    H134457   6.206   0.331   4.414 -0.4036 -3.0905 -1.6680
 4322TIP3    H234458   6.345   0.373   4.374 -0.4273 -0.1885  0.8339
 4323TIP3   OH234459   5.054   3.918  15.587  0.5371 -0.0277  0.1956
 4323TIP3    H134460   5.092   3.830  15.585  0.5704 -0.0155 -1.4510
 4323TIP3    H234461   5.060   3.945  15.678  0.8283 -1.6031  0.6743
 4324TIP3   OH234462   3.629   5.460  11.381  0.0631 -0.2151  0.0830
 4324TIP3    H134463   3.650   5.369  11.401 -0.0810 -0.1263  0.6445
 4324TIP3    H234464   3.656   5.471  11.290  0.3385 -0.7414  0.0969
 4325TIP3   OH234465   3.679   2.518   0.421 -0.3064  0.4877 -0.2275
 4325TIP3    H134466   3.773   2.504   0.417 -0.5656 -1.2609 -1.6928
 4325TIP3    H234467   3.662   2.544   0.512  1.7704  2.8882 -0.4356
 4326TIP3   OH234468   4.979   5.386  16.727  0.1580  0.4698  0.7156
 4326TIP3    H134469   4.965   5.291  16.733  1.5597  0.1861 -0.2170
 4326TIP3    H234470   4.893   5.421  16.703 -0.1726 -0.6525  0.1912
 4327TIP3   OH234471   4.519   6.377   5.080  0.2081  0.3487  0.1970
 4327TIP3    H134472   4.578   6.303   5.069  0.7644  0.6917  0.7839
 4327TIP3    H234473   4.469   6.381   4.999  1.9856  0.9379 -0.9070
 4328TIP3   OH234474   0.533   5.373  10.477 -0.6001  0.2576 -0.3219
 4328TIP3    H134475   0.443   5.341  10.472 -0.1562 -0.7936 -2.1756
 4328TIP3    H234476   0.548   5.416  10.393  0.2726  1.4600  0.4213
 4329TIP3   OH234477   1.542   4.460  13.949  0.2366 -0.0770 -0.4973
 4329TIP3    H134478   1.616   4.471  13.888  2.1232 -1.1086  1.4787
 4329TIP3    H234479   1.481   4.403  13.902  0.5246  0.9819 -2.2702
 4330TIP3   OH234480   5.923   3.478   4.831 -0.4436 -0.8036  0.3404
 4330TIP3    H134481   5.924   3.508   4.740 -0.6847  1.6058  1.0595
 4330TIP3    H234482   5.832   3.486   4.858 -0.2244 -0.6818  1.0540
 4331TIP3   OH234483   3.808   4.686   6.434 -0.1050  0.6257 -0.6648
 4331TIP3    H134484   3.863   4.757   6.400  0.4049  0.3365 -0.4571
 4331TIP3    H234485   3.848   4.663   6.518  0.3096 -0.5362 -1.1539
 4332TIP3   OH234486   5.438   3.076   2.050  0.3395 -0.0043 -0.1328
 4332TIP3    H134487   5.507   3.093   2.114  1.8135 -2.6156 -0.8741
 4332TIP3    H234488   5.398   3.162   2.035  3.6555  1.7556  0.0697
 4333TIP3   OH234489   1.974   4.541   3.423 -0.4205 -0.0236  0.4460
 4333TIP3    H134490   2.024   4.607   3.375 -1.2446  0.9301  0.8624
 4333TIP3    H234491   2.004   4.548   3.513  0.8613 -1.5613  0.1778
 4334TIP3   OH234492   1.188   0.617  14.138  0.4024  0.5320 -0.3743
 4334TIP3    H134493   1.252   0.681  14.170 -0.1277  0.2914  1.2792
 4334TIP3    H234494   1.209   0.607  14.045  1.4728  1.9496 -0.3311
 4335TIP3   OH234495   1.219   6.232   1.304  0.0310 -0.4276  0.1710
 4335TIP3    H134496   1.133   6.192   1.292  0.1642 -1.0320  1.1582
 4335TIP3    H234497   1.279   6.176   1.254 -0.2517  0.5653 -1.3738
 4336TIP3   OH234498   1.722   4.449   4.969  0.4225  0.1974 -1.0847
 4336TIP3    H134499   1.719   4.527   4.914 -1.6169  1.2532  0.3691
 4336TIP3    H234500   1.749   4.482   5.055  0.0941 -0.7915 -0.5843
 4337TIP3   OH234501   0.245   2.355  14.193 -0.6822  0.6182 -0.1646
 4337TIP3    H134502   0.341   2.353  14.192 -0.6795  0.3965 -1.0590
 4337TIP3    H234503   0.221   2.357  14.285  0.1910  0.9603  0.0589
 4338TIP3   OH234504   3.378   5.766   4.544 -0.1329  1.1193 -0.3455
 4338TIP3    H134505   3.324   5.709   4.599 -1.3548  0.9196 -1.6903
 4338TIP3    H234506   3.467   5.739   4.563 -0.6499 -1.5113 -1.1142
 4339TIP3   OH234507   4.688   2.897  13.280 -0.2068  0.5428 -0.1332
 4339TIP3    H134508   4.608   2.948  13.291 -0.3923  0.2440 -0.0693
 4339TIP3    H234509   4.725   2.892  13.368 -1.7391 -1.9237  0.4693
 4340TIP3   OH234510   0.620   1.367   5.583 -0.2874  0.3004 -0.0866
 4340TIP3    H134511   0.676   1.292   5.599 -1.1339 -0.1213  1.0248
 4340TIP3    H234512   0.632   1.423   5.659 -2.7987 -0.7446  1.2118
 4341TIP3   OH234513   3.172   2.464  15.647 -0.1523 -0.3771  0.5351
 4341TIP3    H134514   3.233   2.501  15.584 -1.1220  2.0387  0.8800
 4341TIP3    H234515   3.142   2.383  15.606 -0.7885  1.0942 -2.2060
 4342TIP3   OH234516   1.745   4.557  14.969  0.3330 -0.4734 -0.1311
 4342TIP3    H134517   1.771   4.476  14.925  2.5376 -0.6588  1.3733
 4342TIP3    H234518   1.797   4.625  14.926 -1.3893  0.2008 -1.2789
 4343TIP3   OH234519   1.490   6.645   5.318 -0.5733  0.0946  0.0736
 4343TIP3    H134520   1.399   6.629   5.342 -0.3821 -0.8380  0.2155
 4343TIP3    H234521   1.493   6.738   5.293 -1.2657  0.4917  1.3979
 4344TIP3   OH234522   1.348   3.124   1.044  0.2979  0.2656 -0.0302
 4344TIP3    H134523   1.296   3.146   0.967  0.8282  1.2780 -0.1230
 4344TIP3    H234524   1.287   3.079   1.103  0.4481 -2.7850 -1.9891
 4345TIP3   OH234525   0.296   6.246  14.182  0.3788 -0.2292  0.0926
 4345TIP3    H134526   0.213   6.283  14.212  0.6029 -0.2441  0.7485
 4345TIP3    H234527   0.278   6.151  14.176  0.1143 -0.1465 -0.5719
 4346TIP3   OH234528   3.598   5.990   3.401 -0.3079  0.2113  0.2144
 4346TIP3    H134529   3.616   5.928   3.471 -1.7270  0.1650  0.5656
 4346TIP3    H234530   3.637   6.073   3.431 -1.2894  0.3089  1.2836
 4347TIP3   OH234531   0.034   6.787  11.396 -0.2183  0.6482  0.7390
 4347TIP3    H134532   0.009   6.711  11.448  0.5004  0.2336  0.4909
 4347TIP3    H234533   0.106   6.756  11.341 -0.4262  1.3040  0.0875
 4348TIP3   OH234534   4.761   6.787  17.266 -0.0378  0.2282 -0.2633
 4348TIP3    H134535   4.680   6.822  17.303  0.2002 -0.5718  1.0861
 4348TIP3    H234536   4.744   6.694  17.252  0.1811  0.3408 -1.3535
 4349TIP3   OH234537   6.405   5.772  17.211  0.1889  0.1167 -0.2394
 4349TIP3    H134538   6.371   5.845  17.263 -0.2009  0.8104 -1.4229
 4349TIP3    H234539   6.335   5.707  17.211 -0.0633  0.3854 -0.4073
 4350TIP3   OH234540   3.033   2.942   1.695  0.3158  0.7497  0.2669
 4350TIP3    H134541   2.944   2.978   1.690 -0.0218 -0.2072 -1.4332
 4350TIP3    H234542   3.086   3.003   1.644 -0.0291 -0.4261 -1.5734
 4351TIP3   OH234543   2.895   0.929   2.536  0.3759  0.1260  0.1242
 4351TIP3    H134544   2.944   0.959   2.613  0.7361  0.5069 -0.2451
 4351TIP3    H234545   2.859   0.845   2.562  0.2405  0.3907  0.8176
 4352TIP3   OH234546   4.190   6.746   4.761 -0.2571  0.2530  0.6679
 4352TIP3    H134547   4.158   6.813   4.822  1.3356  0.4652  1.3220
 4352TIP3    H234548   4.265   6.787   4.718  0.3198 -0.8719  0.5795
 4353TIP3   OH234549   6.062   0.686  14.364 -0.4612  0.3414  0.1951
 4353TIP3    H134550   6.049   0.744  14.439 -0.7235  1.5252 -0.7379
 4353TIP3    H234551   6.157   0.681  14.355 -0.4334  0.4908  0.3826
 4354TIP3   OH234552   5.381   5.647   0.264 -0.0927  0.8421 -0.2009
 4354TIP3    H134553   5.419   5.726   0.301 -1.3707  0.6889  1.5720
 4354TIP3    H234554   5.443   5.578   0.287  0.1921  1.0770 -0.2625
 4355TIP3   OH234555   2.152   3.201   4.114 -0.1947 -0.0583 -0.0578
 4355TIP3    H134556   2.073   3.149   4.102 -1.0936  1.4505 -1.0513
 4355TIP3    H234557   2.177   3.187   4.206 -0.0848 -2.5741 -0.4290
 4356TIP3   OH234558   5.063   6.287   5.267  0.2377  0.9466  0.7709
 4356TIP3    H134559   5.069   6.292   5.362 -0.5384 -0.3689  0.9275
 4356TIP3    H234560   4.991   6.225   5.252  0.3879  1.1001 -0.6642
 4357TIP3   OH234561   6.689   2.834  11.548 -0.0782 -0.0872 -0.1056
 4357TIP3    H134562   6.731   2.893  11.610  1.4849 -1.4656  0.2176
 4357TIP3    H234563   6.736   2.751  11.557 -1.5175 -1.1008 -1.2772
 4358TIP3   OH234564   6.648   4.667   0.243  0.2637  0.0399  0.2280
 4358TIP3    H134565   6.608   4.635   0.324  0.1470 -0.6149 -0.0856
 4358TIP3    H234566   6.602   4.621   0.173  1.4984 -0.6723 -0.1488
 4359TIP3   OH234567   1.987   3.818   1.990  0.3599 -0.1630  0.5330
 4359TIP3    H134568   2.035   3.811   2.073 -0.5949 -1.9621  0.9623
 4359TIP3    H234569   1.986   3.912   1.971  0.9001  0.2442  2.3743
 4360TIP3   OH234570   0.523   3.665  12.316  0.6275  0.6716  0.5393
 4360TIP3    H134571   0.518   3.570  12.323  1.5681  0.6452  0.9199
 4360TIP3    H234572   0.583   3.691  12.385  2.4965  1.2922 -1.2189
 4361TIP3   OH234573   5.938   6.654   2.521 -0.1961 -0.3164  0.2667
 4361TIP3    H134574   5.854   6.611   2.504  0.5776 -1.0329 -2.2198
 4361TIP3    H234575   6.001   6.582   2.527  0.3045  0.2170  2.0004
 4362TIP3   OH234576   6.813   2.347   0.809 -1.1254 -0.3001 -0.7274
 4362TIP3    H134577   6.818   2.364   0.715  0.8587  0.2997 -0.5612
 4362TIP3    H234578   6.902   2.323   0.834 -0.9807  2.0436  1.4162
 4363TIP3   OH234579   2.736   1.879   4.745  0.4309 -0.5871  0.1095
 4363TIP3    H134580   2.642   1.893   4.758  0.5241  0.4514 -0.3292
 4363TIP3    H234581   2.767   1.957   4.701  2.1842  0.7437  3.3588
 4364TIP3   OH234582   0.893   4.518  14.837 -0.2788 -0.2079  0.0724
 4364TIP3    H134583   0.922   4.608  14.847 -0.2654 -0.2182  0.1225
 4364TIP3    H234584   0.895   4.481  14.925 -1.8216  0.2006  0.2929
 4365TIP3   OH234585   4.166   3.364  13.399  0.3404  0.2403  0.7106
 4365TIP3    H134586   4.075   3.364  13.428 -0.4508  0.8453 -1.6141
 4365TIP3    H234587   4.163   3.337  13.308  2.2979  1.8815  0.0724
 4366TIP3   OH234588   4.306   3.949  12.158  0.0246 -0.2206  0.8031
 4366TIP3    H134589   4.386   3.906  12.187 -0.2169 -0.1732  1.5636
 4366TIP3    H234590   4.271   3.893  12.089  0.8093 -0.1411  0.3289
 4367TIP3   OH234591   5.479   5.353  17.255 -0.2694  0.6408 -0.0402
 4367TIP3    H134592   5.535   5.421  17.216  0.6603  0.1486  0.4017
 4367TIP3    H234593   5.390   5.385  17.242  0.0906  1.2274 -1.1708
 4368TIP3   OH234594   3.780   5.550  14.926  0.3759  0.1580 -0.2272
 4368TIP3    H134595   3.767   5.576  14.835 -2.4611  0.6856  0.2153
 4368TIP3    H234596   3.872   5.569  14.944  1.2577 -0.7340 -3.1637
 4369TIP3   OH234597   0.848   1.023  17.131 -0.2573  0.9094 -0.1077
 4369TIP3    H134598   0.780   0.974  17.083 -0.6404 -2.0836  3.0656
 4369TIP3    H234599   0.928   0.972  17.118 -0.4142 -0.1050  2.3713
 4370TIP3   OH234600   6.762   2.508  11.614 -0.2846  0.2995 -0.0356
 4370TIP3    H134601   6.850   2.515  11.650 -0.1392  1.9606 -0.6102
 4370TIP3    H234602   6.710   2.469  11.684  0.6175  0.6535  0.8539
 4371TIP3   OH234603   1.286   6.789   1.981 -0.2725 -0.5664  0.0960
 4371TIP3    H134604   1.265   6.880   1.998  1.9143 -0.1271  0.7721
 4371TIP3    H234605   1.254   6.742   2.058 -0.0742 -0.1594  0.4277
 4372TIP3   OH234606   5.589   2.988   0.074 -0.0062 -0.2802  0.0707
 4372TIP3    H134607   5.531   2.927   0.029 -0.0322 -0.5003  0.3999
 4372TIP3    H234608   5.626   3.042   0.004 -1.2883  0.4618 -0.0744
 4373TIP3   OH234609   6.087   2.158   4.907 -0.4072 -0.5923 -0.4353
 4373TIP3    H134610   6.093   2.192   4.997  0.2583 -1.4025 -0.1607
 4373TIP3    H234611   6.015   2.094   4.911 -1.3231  0.3833 -0.8311
 4374TIP3   OH234612   4.567   0.455   6.761  1.0269  0.5218  0.1502
 4374TIP3    H134613   4.591   0.416   6.845 -0.1978 -0.8427 -0.1068
 4374TIP3    H234614   4.589   0.388   6.696 -0.3871  0.5405 -0.3792
 4375TIP3   OH234615   4.553   2.117   2.553  0.5357 -1.1252 -0.3608
 4375TIP3    H134616   4.460   2.124   2.575  0.9124  0.4367  0.9957
 4375TIP3    H234617   4.567   2.025   2.531 -0.8174 -1.9616  1.9502
 4376TIP3   OH234618   6.138   6.621   3.401 -0.5044  0.2606  0.7632
 4376TIP3    H134619   6.114   6.545   3.455  0.7537  0.9417  2.3972
 4376TIP3    H234620   6.056   6.649   3.361 -1.3986 -0.6525  1.8706
 4377TIP3   OH234621   1.584   0.763  15.477  0.4128 -0.3159 -0.0364
 4377TIP3    H134622   1.579   0.792  15.568  0.0596 -0.0620 -0.1387
 4377TIP3    H234623   1.505   0.797  15.436  0.6117 -0.3561 -0.4609
 4378TIP3   OH234624   4.581   6.253  12.797 -0.0705  0.1699  0.6103
 4378TIP3    H134625   4.666   6.291  12.820 -0.0859 -0.1699  1.2395
 4378TIP3    H234626   4.590   6.160  12.814 -0.4493  0.0756  0.3092
 4379TIP3   OH234627   4.024   5.163  17.283 -0.1932  0.0908  0.0178
 4379TIP3    H134628   4.067   5.222  17.345  1.5292 -2.0762  1.0378
 4379TIP3    H234629   4.061   5.186  17.198 -0.2444  1.0405  0.2349
 4380TIP3   OH234630   6.820   4.845  13.071  0.4054  0.1575  0.8241
 4380TIP3    H134631   6.858   4.848  13.159 -0.6985 -0.7637  1.3543
 4380TIP3    H234632   6.726   4.838  13.086  0.1625  0.4742 -0.4483
 4381TIP3   OH234633   3.429   6.188  14.431  0.2281 -0.1836  0.5257
 4381TIP3    H134634   3.458   6.255  14.493  1.1229 -1.0556  1.0771
 4381TIP3    H234635   3.416   6.110  14.485  0.9014 -0.9270 -0.3504
 4382TIP3   OH234636   6.354   4.156  15.023  0.1938 -0.5109 -0.3043
 4382TIP3    H134637   6.417   4.166  15.094 -1.0837 -1.0530  0.9289
 4382TIP3    H234638   6.399   4.102  14.958  2.1722  1.7145 -0.9533
 4383TIP3   OH234639   5.489   4.026   0.340  0.3979 -0.2977  0.3420
 4383TIP3    H134640   5.490   4.029   0.244 -1.4761  2.5697  0.2991
 4383TIP3    H234641   5.510   4.115   0.367  1.2977 -1.1406  2.6739
 4384TIP3   OH234642   2.226   0.999   0.845 -0.2024 -0.0120  0.5039
 4384TIP3    H134643   2.279   0.973   0.920  0.3805  2.3705  0.9963
 4384TIP3    H234644   2.190   0.917   0.811  2.7096 -1.5990  0.9558
 4385TIP3   OH234645   1.498   3.403  15.996 -0.5150  0.0597  0.6516
 4385TIP3    H134646   1.485   3.338  15.926 -0.3967  1.0965 -0.3578
 4385TIP3    H234647   1.584   3.381  16.033 -0.0637  0.1711 -0.2860
 4386TIP3   OH234648   0.008   1.235  14.299 -0.0772 -0.2074  0.4066
 4386TIP3    H134649   0.057   1.207  14.222 -0.5061 -1.7730  0.6740
 4386TIP3    H234650   0.064   1.302  14.340  0.5098  0.0813 -0.8149
 4387TIP3   OH234651   2.791   6.714   6.123 -0.5660 -0.5186  0.2735
 4387TIP3    H134652   2.777   6.809   6.124 -0.2918 -0.3885 -2.2987
 4387TIP3    H234653   2.886   6.703   6.123 -0.5966 -0.8074  0.7383
 4388TIP3   OH234654   2.599   5.479  15.168  0.5110 -0.4197 -0.1363
 4388TIP3    H134655   2.593   5.445  15.257  1.4995 -1.2013 -0.3470
 4388TIP3    H234656   2.689   5.463  15.142  0.6928  1.2935 -0.7072
 4389TIP3   OH234657   2.661   4.719  16.476 -0.3181  0.6187  0.1285
 4389TIP3    H134658   2.594   4.743  16.540 -0.6391  1.5564 -0.5276
 4389TIP3    H234659   2.743   4.753  16.514 -0.4650  0.9339  0.1660
 4390TIP3   OH234660   3.697   0.317   4.895 -0.7352  0.0998 -0.5316
 4390TIP3    H134661   3.713   0.223   4.887 -1.5162  0.0277 -1.3889
 4390TIP3    H234662   3.604   0.327   4.876 -0.9690  0.9071  0.8659
 4391TIP3   OH234663   3.916   3.381  15.345 -0.2776  0.0374  0.7030
 4391TIP3    H134664   3.987   3.380  15.281 -0.6150 -0.7945  0.3243
 4391TIP3    H234665   3.902   3.288  15.367 -0.4744  0.2738  1.6365
 4392TIP3   OH234666   2.270   3.966  14.815 -0.1480  0.1158 -0.5842
 4392TIP3    H134667   2.220   4.027  14.869 -0.3631  2.0890 -2.8111
 4392TIP3    H234668   2.351   3.951  14.864 -0.3007  1.8560  0.2729
 4393TIP3   OH234669   3.674   0.284  14.339 -0.1115 -0.2478  0.1620
 4393TIP3    H134670   3.716   0.364  14.372 -0.3373  0.6148 -1.5038
 4393TIP3    H234671   3.613   0.315  14.272 -1.3543 -1.7155  0.5594
 4394TIP3   OH234672   0.933   1.973  15.344  0.0709  0.1794 -0.1561
 4394TIP3    H134673   0.964   2.063  15.333  0.5394  0.0372 -0.0284
 4394TIP3    H234674   0.855   1.981  15.399  0.8312  0.4124  0.9414
 4395TIP3   OH234675   6.329   3.873  13.435  0.7734  0.2970 -0.4568
 4395TIP3    H134676   6.270   3.804  13.408  1.1232 -0.8859  1.6437
 4395TIP3    H234677   6.290   3.953  13.399 -0.6742 -0.7359 -1.2891
 4396TIP3   OH234678   6.794   1.288  16.209 -0.2304 -0.4641 -0.5361
 4396TIP3    H134679   6.802   1.287  16.113 -0.2568  2.7640 -0.6904
 4396TIP3    H234680   6.701   1.274  16.226 -0.0149 -2.5192 -0.8429
 4397TIP3   OH234681   0.543   4.151  11.287  0.5138  0.1053  0.1167
 4397TIP3    H134682   0.571   4.061  11.303  0.0340 -0.3353 -1.3997
 4397TIP3    H234683   0.617   4.204  11.317  1.5890 -0.8879 -0.6727
 4398TIP3   OH234684   4.807   2.792  13.528  0.2715  0.1274  0.1108
 4398TIP3    H134685   4.846   2.840  13.601 -0.5910 -0.1770  0.7743
 4398TIP3    H234686   4.754   2.725  13.568  0.9657 -1.0165 -0.8148
 4399TIP3   OH234687   1.553   1.741   5.887  0.7002  0.0477 -0.3833
 4399TIP3    H134688   1.466   1.740   5.927 -0.6994  1.7602 -3.0709
 4399TIP3    H234689   1.579   1.649   5.881 -0.7308 -0.4640  0.8401
 4400TIP3   OH234690   6.124   0.776  16.777 -0.0038 -0.3300 -0.3781
 4400TIP3    H134691   6.181   0.815  16.711  1.7174 -0.4580  0.9611
 4400TIP3    H234692   6.036   0.802  16.752  0.8378  1.9350 -1.1834
 4401TIP3   OH234693   4.030   4.634  17.243  0.6181 -0.1085 -0.0012
 4401TIP3    H134694   4.105   4.681  17.279  1.3581 -0.0719 -1.5182
 4401TIP3    H234695   3.954   4.673  17.285  1.4004  0.2937  1.0836
 4402TIP3   OH234696   0.122   2.605  11.230 -0.4615  0.2334 -0.0685
 4402TIP3    H134697   0.157   2.557  11.305 -1.0595 -1.2459 -0.6816
 4402TIP3    H234698   0.139   2.697  11.249 -0.4027 -0.1250  1.7656
 4403TIP3   OH234699   5.905   1.535  11.382  0.1257 -0.0877  0.6076
 4403TIP3    H134700   5.895   1.450  11.339 -0.4113  0.7410 -1.0006
 4403TIP3    H234701   5.926   1.514  11.473  1.2418 -1.9404 -0.0190
 4404TIP3   OH234702   6.252   1.802   4.490  0.6602  0.0239  0.6856
 4404TIP3    H134703   6.269   1.878   4.546  1.5464 -1.6797  2.8454
 4404TIP3    H234704   6.338   1.774   4.461  0.4941 -1.1545  1.3014
 4405TIP3   OH234705   5.873   6.052  14.516 -0.3269  0.4651 -0.5564
 4405TIP3    H134706   5.825   6.063  14.597  3.0874  2.1664  1.4801
 4405TIP3    H234707   5.868   5.959  14.496 -0.9915 -0.0517  1.8312
 4406TIP3   OH234708   5.019   1.903  13.228 -0.0170 -0.0529  0.0633
 4406TIP3    H134709   4.964   1.833  13.262 -0.2873 -0.2716 -0.7910
 4406TIP3    H234710   4.971   1.936  13.152  0.6625  0.2767 -0.2319
 4407TIP3   OH234711   4.338   3.217   3.464  0.1911 -0.1929  0.1162
 4407TIP3    H134712   4.256   3.170   3.454  0.5071 -0.7130 -0.0921
 4407TIP3    H234713   4.312   3.308   3.479 -0.4915 -0.7171  2.5283
 4408TIP3   OH234714   3.254   0.432   5.666 -0.2137  0.2653  0.0100
 4408TIP3    H134715   3.220   0.377   5.595 -0.4915  1.3773 -0.7404
 4408TIP3    H234716   3.184   0.493   5.685  0.2192  0.5862  0.5963
 4409TIP3   OH234717   0.821   3.407  15.868  0.4836 -0.3214  0.6257
 4409TIP3    H134718   0.755   3.366  15.812 -0.6622 -0.5001  2.0647
 4409TIP3    H234719   0.803   3.501  15.860  0.8625 -0.2984  0.0416
 4410TIP3   OH234720   1.496   0.752  11.242 -0.4787 -0.2814 -0.3631
 4410TIP3    H134721   1.536   0.813  11.180 -0.8876  0.5829  0.2043
 4410TIP3    H234722   1.432   0.704  11.190 -0.8314  0.4505 -0.6149
 4411TIP3   OH234723   5.436   2.148  14.786  0.4902 -0.3626 -0.5780
 4411TIP3    H134724   5.462   2.179  14.699  0.0969  0.6774 -0.3448
 4411TIP3    H234725   5.460   2.220  14.845 -0.9447 -0.2661 -0.0792
 4412TIP3   OH234726   6.725   3.485  15.447  0.2172  0.5202 -0.2875
 4412TIP3    H134727   6.663   3.465  15.517 -0.2792  2.6562 -0.0368
 4412TIP3    H234728   6.807   3.502  15.492  0.4976 -0.3686 -0.4478
 4413TIP3   OH234729   1.599   4.132  12.779  0.3640 -0.5614 -0.3689
 4413TIP3    H134730   1.612   4.188  12.702  0.6577 -1.2394 -0.8241
 4413TIP3    H234731   1.594   4.043  12.743  2.0450 -1.0544  0.5258
 4414TIP3   OH234732   4.189   2.904   6.477  0.2235 -0.7114  0.2513
 4414TIP3    H134733   4.222   2.951   6.553  2.1492 -1.8868  0.1989
 4414TIP3    H234734   4.265   2.894   6.419 -0.4919 -2.4258 -0.4721
 4415TIP3   OH234735   0.418   2.667   4.730  0.3214  0.8753 -0.2679
 4415TIP3    H134736   0.431   2.581   4.769 -1.9620  0.7736  0.4305
 4415TIP3    H234737   0.410   2.727   4.805  0.3644  1.4350 -0.6985
 4416TIP3   OH234738   3.518   1.694  12.350  0.4398 -0.1447  0.3820
 4416TIP3    H134739   3.607   1.659  12.358  1.4559  1.4871 -2.2058
 4416TIP3    H234740   3.465   1.619  12.323  1.5205 -0.7302 -0.2219
 4417TIP3   OH234741   5.191   0.760  13.581 -0.0297  0.0061 -0.1155
 4417TIP3    H134742   5.257   0.743  13.649 -0.1422  1.4228  0.3634
 4417TIP3    H234743   5.204   0.851  13.557 -1.9362  0.3905  0.1352
 4418TIP3   OH234744   4.597   2.314   2.345  0.3358  0.1825 -0.7777
 4418TIP3    H134745   4.523   2.374   2.346  0.8597  0.8436 -1.0694
 4418TIP3    H234746   4.580   2.252   2.416 -0.9241 -0.2002 -1.3828
 4419TIP3   OH234747   5.999   5.366   3.530 -0.4777  0.1678  0.2867
 4419TIP3    H134748   5.961   5.445   3.570 -0.1015  0.3544  0.2795
 4419TIP3    H234749   5.926   5.325   3.484 -1.2195 -0.6757  2.1092
 4420TIP3   OH234750   3.266   4.641  12.051  0.0448  0.2102  0.3531
 4420TIP3    H134751   3.258   4.728  12.011 -1.4859  0.1136  0.3898
 4420TIP3    H234752   3.269   4.659  12.145 -2.1215  0.1880  0.4851
 4421TIP3   OH234753   5.945   6.681  13.309  0.3829  0.5104 -0.4000
 4421TIP3    H134754   5.965   6.751  13.371 -0.2728 -1.3304  2.0919
 4421TIP3    H234755   5.988   6.707  13.228  1.2170  3.1394  0.7765
 4422TIP3   OH234756   2.684   6.353  15.761  0.1923 -0.0893 -0.5664
 4422TIP3    H134757   2.777   6.367  15.741 -0.1077  1.3814 -1.0891
 4422TIP3    H234758   2.647   6.441  15.760 -1.1311 -0.6236  0.0743
 4423TIP3   OH234759   0.834   1.637   4.849 -0.0603  0.1938 -0.0527
 4423TIP3    H134760   0.911   1.615   4.798  1.0420  0.8270  1.2498
 4423TIP3    H234761   0.840   1.582   4.927 -2.1984 -1.4328 -0.9400
 4424TIP3   OH234762   6.644   3.714   5.291  0.2891  0.3456  0.3784
 4424TIP3    H134763   6.658   3.800   5.329 -0.0140  1.5342 -1.9934
 4424TIP3    H234764   6.731   3.675   5.288  1.0240  1.9697 -1.4970
 4425TIP3   OH234765   3.050   2.457  14.770 -0.2817  0.6295 -0.1042
 4425TIP3    H134766   3.009   2.380  14.733  1.2422  0.9080 -2.6084
 4425TIP3    H234767   3.014   2.531  14.721 -1.8237  1.6392  2.3329
 4426TIP3   OH234768   6.424   6.596   5.800 -0.0899  0.0356 -0.4975
 4426TIP3    H134769   6.462   6.512   5.825  0.7650  0.4029 -0.5493
 4426TIP3    H234770   6.499   6.651   5.776 -0.6080  0.9441 -0.0819
 4427TIP3   OH234771   3.156   6.306  12.883 -0.1980  0.8493  0.2271
 4427TIP3    H134772   3.079   6.250  12.880  0.0037  0.5888 -0.0928
 4427TIP3    H234773   3.127   6.389  12.846 -0.4374  0.8877  0.5012
 4428TIP3   OH234774   1.396   4.087  16.902 -0.1478  0.3020 -0.3710
 4428TIP3    H134775   1.324   4.096  16.840  0.8375  1.1162 -1.4381
 4428TIP3    H234776   1.467   4.139  16.864  1.4925 -1.5902 -0.0730
 4429TIP3   OH234777   1.112   1.022   0.619 -0.1742  0.2359 -0.2590
 4429TIP3    H134778   1.188   0.992   0.569 -0.9579 -2.3141 -0.0557
 4429TIP3    H234779   1.044   0.958   0.600 -1.7429  1.4426  0.9793
 4430TIP3   OH234780   4.414   5.994   6.821 -0.4470 -0.3481  0.1833
 4430TIP3    H134781   4.404   5.915   6.768 -0.5403 -0.8061  0.8738
 4430TIP3    H234782   4.326   6.031   6.827 -0.3379  0.0190 -0.4591
 4431TIP3   OH234783   2.575   4.816  13.211 -0.0421 -0.7586  0.6070
 4431TIP3    H134784   2.599   4.768  13.132 -1.5566  0.0791 -0.4078
 4431TIP3    H234785   2.542   4.748  13.271  0.0962 -1.2755  0.0997
 4432TIP3   OH234786   1.166   2.748  15.781 -0.9677 -0.0882 -0.1214
 4432TIP3    H134787   1.145   2.799  15.703  1.6407  1.0220 -0.1939
 4432TIP3    H234788   1.121   2.664  15.768 -0.5427  0.0287 -2.8474
 4433TIP3   OH234789   1.388   5.769   3.526 -0.4723 -0.6049 -0.4232
 4433TIP3    H134790   1.438   5.690   3.547  2.1071  1.1192  0.4270
 4433TIP3    H234791   1.301   5.753   3.562  0.4895 -2.3674  1.3021
 4434TIP3   OH234792   6.178   5.036  14.165 -0.2794 -0.6806  0.4965
 4434TIP3    H134793   6.149   4.997  14.082  0.8473 -0.6675  0.0639
 4434TIP3    H234794   6.109   5.097  14.189  1.0177  2.2447 -2.4885
 4435TIP3   OH234795   0.230   6.164   2.655  0.1774  0.4890  0.4779
 4435TIP3    H134796   0.155   6.113   2.685  1.1998 -1.2104  0.2855
 4435TIP3    H234797   0.303   6.102   2.654  1.1237  1.5266 -1.4359
 4436TIP3   OH234798   2.599   6.658   6.515  0.4824 -0.4120 -0.1018
 4436TIP3    H134799   2.617   6.579   6.464 -0.7939 -1.4018  0.9071
 4436TIP3    H234800   2.597   6.728   6.451  1.4151 -1.2251 -1.0578
 4437TIP3   OH234801   3.021   2.408  13.147  0.1125  0.1597 -0.1427
 4437TIP3    H134802   2.948   2.393  13.087 -0.8858 -0.2204  1.1072
 4437TIP3    H234803   3.037   2.503  13.143 -2.7927  0.8979  2.0464
 4438TIP3   OH234804   2.287   4.608  14.375  0.1705 -0.2158 -0.4737
 4438TIP3    H134805   2.351   4.542  14.346  0.1382 -0.0702 -0.8846
 4438TIP3    H234806   2.284   4.598  14.470  0.7155 -0.3094 -0.4608
 4439TIP3   OH234807   6.642   0.885  10.857  0.4096 -0.3200  0.7499
 4439TIP3    H134808   6.718   0.859  10.805 -0.4402  0.5650 -1.0571
 4439TIP3    H234809   6.577   0.817  10.840  0.5196 -0.6494  1.6315
 4440TIP3   OH234810   6.254   5.931   4.766  0.0168  0.5194 -0.2702
 4440TIP3    H134811   6.231   5.848   4.723 -0.5074  0.0906  0.7789
 4440TIP3    H234812   6.171   5.963   4.802  0.6687 -0.0351  1.8812
 4441TIP3   OH234813   5.420   4.415  14.513 -0.3301 -0.4557 -0.1794
 4441TIP3    H134814   5.501   4.372  14.541 -0.5633  0.6719  2.4464
 4441TIP3    H234815   5.350   4.358  14.544 -0.6418 -1.6465 -2.8107
 4442TIP3   OH234816   1.513   2.828  15.390  0.4658  0.1193 -0.1361
 4442TIP3    H134817   1.514   2.916  15.428  0.4792  0.4396 -0.8477
 4442TIP3    H234818   1.531   2.843  15.297 -0.6235 -0.5329 -0.4712
 4443TIP3   OH234819   5.494   4.879  12.891 -0.2179  0.5094 -0.4820
 4443TIP3    H134820   5.526   4.791  12.909 -0.3957  1.0195  3.0372
 4443TIP3    H234821   5.571   4.935  12.900 -0.9262  1.1656  2.6145
 4444TIP3   OH234822   6.601   1.479   2.965 -0.2740 -0.4016  0.4351
 4444TIP3    H134823   6.623   1.426   2.888 -0.2535  1.3167 -0.7927
 4444TIP3    H234824   6.511   1.456   2.985 -0.6970  0.0402 -0.8911
 4445TIP3   OH234825   0.704   5.308  16.309 -0.2471  0.1898 -0.4071
 4445TIP3    H134826   0.678   5.310  16.217 -1.5479 -0.3172 -0.0827
 4445TIP3    H234827   0.740   5.220  16.322 -0.5100  0.0934 -0.3252
 4446TIP3   OH234828   1.963   0.999  16.879 -0.1604  0.2817 -0.1151
 4446TIP3    H134829   1.945   1.092  16.872 -0.5509  0.1727 -0.6037
 4446TIP3    H234830   1.916   0.959  16.806  1.5865 -0.0956 -1.0935
 4447TIP3   OH234831   4.434   0.486   6.133  0.2827 -0.1764 -0.4512
 4447TIP3    H134832   4.453   0.424   6.063  0.2983 -0.2773 -0.3581
 4447TIP3    H234833   4.484   0.454   6.208 -0.7225 -0.7964 -0.0271
 4448TIP3   OH234834   4.574   3.820  16.301  0.4809 -0.6072  0.3969
 4448TIP3    H134835   4.637   3.751  16.282  3.0371  0.3191  4.2767
 4448TIP3    H234836   4.504   3.777  16.350  2.4080 -0.6557  3.4333
 4449TIP3   OH234837   5.312   1.382   6.003 -0.1401  0.3363  0.0934
 4449TIP3    H134838   5.233   1.412   5.958  0.2960 -1.0400 -1.6802
 4449TIP3    H234839   5.374   1.364   5.933  0.8575 -1.1282  1.2923
 4450TIP3   OH234840   4.596   1.660  16.483  0.5676 -0.0426 -0.2430
 4450TIP3    H134841   4.534   1.589  16.468  1.5565 -1.2288  0.9641
 4450TIP3    H234842   4.682   1.622  16.464  1.0092  1.4354 -1.4800
 4451TIP3   OH234843   4.494   3.860  14.089 -0.2563  0.4712  0.3435
 4451TIP3    H134844   4.548   3.781  14.089  0.7054  1.1021 -1.0628
 4451TIP3    H234845   4.482   3.881  14.182 -1.6918 -2.0744  0.8294
 4452TIP3   OH234846   2.086   6.146  11.821 -0.1301 -0.9055  0.1019
 4452TIP3    H134847   2.134   6.133  11.739  0.5643 -1.4527  0.5813
 4452TIP3    H234848   2.046   6.061  11.839  0.9281 -1.2217  1.0724
 4453TIP3   OH234849   0.365   6.067  13.248 -0.5308  0.4288 -0.1585
 4453TIP3    H134850   0.308   6.057  13.324  0.2636 -0.1702  0.3727
 4453TIP3    H234851   0.340   5.996  13.189 -0.6211  0.4181 -0.1065
 4454TIP3   OH234852   6.313   5.585   0.124  0.5951  0.0578 -0.3435
 4454TIP3    H134853   6.362   5.503   0.127 -0.3834 -0.6505 -2.2134
 4454TIP3    H234854   6.225   5.559   0.095 -0.9228  1.2951  2.6537
 4455TIP3   OH234855   2.666   0.892  17.037 -0.8424  0.4257 -0.6976
 4455TIP3    H134856   2.632   0.812  17.077 -0.5278  1.1269  1.0802
 4455TIP3    H234857   2.589   0.946  17.020 -0.8904  0.9775  0.9996
 4456TIP3   OH234858   6.379   3.593  16.349 -0.0645 -0.1873  0.1655
 4456TIP3    H134859   6.309   3.567  16.409  0.5986  0.4836  1.2597
 4456TIP3    H234860   6.352   3.679  16.317 -0.8817 -0.9308 -1.2850
 4457TIP3   OH234861   4.685   4.503   2.151  0.2375 -0.1743 -0.3588
 4457TIP3    H134862   4.713   4.572   2.090  2.1511 -1.3704 -0.9030
 4457TIP3    H234863   4.698   4.540   2.238  1.6823  0.0337 -0.6382
 4458TIP3   OH234864   6.397   4.382   4.689 -0.0532 -0.3341  0.2727
 4458TIP3    H134865   6.360   4.367   4.601 -1.0385  0.2881  0.5666
 4458TIP3    H234866   6.347   4.456   4.724  0.9772  0.0419  0.9977
 4459TIP3   OH234867   0.266   2.599   5.461 -0.2146  0.1190  0.1641
 4459TIP3    H134868   0.285   2.594   5.368 -0.0664 -1.3963  0.2524
 4459TIP3    H234869   0.223   2.683   5.472  0.5116  0.6818 -1.1285
 4460TIP3   OH234870   3.906   6.143   4.343 -0.9926 -0.3151 -0.0048
 4460TIP3    H134871   3.823   6.189   4.333 -0.1587  1.1778 -0.5337
 4460TIP3    H234872   3.911   6.121   4.436 -1.5483  0.4463  0.2149
 4461TIP3   OH234873   0.803   6.372  15.582  0.1314 -0.1575  0.1048
 4461TIP3    H134874   0.734   6.398  15.643  1.1157 -0.4037  1.3542
 4461TIP3    H234875   0.881   6.419  15.611  1.0147 -1.5334  0.0548
 4462TIP3   OH234876   6.006   2.060   2.054  0.0996  0.0643  0.1081
 4462TIP3    H134877   5.936   2.099   2.002 -0.3963  1.3188  1.6269
 4462TIP3    H234878   6.044   1.993   1.997 -0.4360  1.3180 -1.8309
 4463TIP3   OH234879   6.432   2.755  11.232 -0.0446  0.0137  0.2190
 4463TIP3    H134880   6.360   2.707  11.190 -1.0782  0.7919  1.0576
 4463TIP3    H234881   6.511   2.715  11.195 -0.7306 -3.6287  2.2263
 4464TIP3   OH234882   6.698   2.797   4.838 -0.0034 -0.5119 -0.3318
 4464TIP3    H134883   6.687   2.757   4.924  0.9666  1.4409  0.7943
 4464TIP3    H234884   6.611   2.829   4.815  0.1225  0.9780  1.0611
 4465TIP3   OH234885   0.394   1.724   5.481 -0.0451  0.3890 -0.0957
 4465TIP3    H134886   0.400   1.663   5.555 -1.7150 -1.3650 -1.3013
 4465TIP3    H234887   0.484   1.749   5.463  0.3902  1.5043  2.9773
 4466TIP3   OH234888   3.257   3.962  14.259 -0.0328  0.3905  0.5740
 4466TIP3    H134889   3.166   3.980  14.283 -0.4140  2.1940 -1.8511
 4466TIP3    H234890   3.308   4.021  14.315 -0.3112 -0.6546  1.9710
 4467TIP3   OH234891   1.894   4.686   0.723 -0.2334  0.1083 -0.3870
 4467TIP3    H134892   1.957   4.631   0.676  0.3861  1.5386 -1.3419
 4467TIP3    H234893   1.906   4.665   0.815  0.1585 -1.1417 -0.7098
 4468TIP3   OH234894   1.426   3.081   3.657 -0.5693  0.2113  0.0007
 4468TIP3    H134895   1.454   3.133   3.733 -0.0563 -0.2810  0.1543
 4468TIP3    H234896   1.374   3.010   3.695  1.7972 -1.5435  0.1957
 4469TIP3   OH234897   1.037   4.780  11.602 -0.4394 -0.0211  0.9216
 4469TIP3    H134898   1.086   4.734  11.670 -1.5362  0.3770  2.0236
 4469TIP3    H234899   0.946   4.753  11.616 -1.0236  1.9136  1.1539
 4470TIP3   OH234900   1.665   6.675  12.364  0.1360  0.4625  0.4262
 4470TIP3    H134901   1.742   6.722  12.331  0.3554 -0.2982 -0.1617
 4470TIP3    H234902   1.641   6.723  12.444  1.7431  0.1993  1.1217
 4471TIP3   OH234903   6.127   3.894   4.868  0.1028  0.2940 -0.2801
 4471TIP3    H134904   6.167   3.978   4.848  0.6364 -0.1075 -0.9475
 4471TIP3    H234905   6.044   3.916   4.909  0.8740  1.1415  0.8644
 4472TIP3   OH234906   0.050   3.090  12.190  0.3102  0.1709  0.6679
 4472TIP3    H134907  -0.037   3.078  12.153 -0.3620 -0.3294  2.3220
 4472TIP3    H234908   0.036   3.143  12.268  1.4650 -0.1176  1.0933
 4473TIP3   OH234909   6.480   5.063  12.146  0.5730 -0.3663  0.3093
 4473TIP3    H134910   6.551   5.014  12.187  0.5391  0.0661  0.8962
 4473TIP3    H234911   6.403   5.008  12.158  0.7121 -0.6038  0.1220
 4474TIP3   OH234912   4.311   1.810   4.610  0.2655  0.2489  0.0816
 4474TIP3    H134913   4.381   1.754   4.645 -0.1044 -0.3908 -0.1747
 4474TIP3    H234914   4.316   1.797   4.515 -2.0673 -2.1659  0.1718
 4475TIP3   OH234915   0.584   3.341  15.722  0.2382 -0.2903 -0.0555
 4475TIP3    H134916   0.527   3.272  15.756  1.8467 -1.1856  0.9561
 4475TIP3    H234917   0.542   3.423  15.751 -0.6929 -0.9025  0.3825
 4476TIP3   OH234918   5.964   2.665  13.621  0.4377  0.4342  0.2657
 4476TIP3    H134919   5.928   2.746  13.657  0.9276  0.8039 -0.0772
 4476TIP3    H234920   6.058   2.679  13.619  0.4164  0.5202 -1.4133
 4477TIP3   OH234921   4.653   2.135   1.550 -0.6791  0.2887 -0.4492
 4477TIP3    H134922   4.630   2.060   1.604 -0.7871  0.7115  0.0957
 4477TIP3    H234923   4.571   2.185   1.543  0.3404  2.8669  3.1526
 4478TIP3   OH234924   3.650   0.976   4.720  0.0167 -0.5786  0.0730
 4478TIP3    H134925   3.567   1.019   4.699  0.1807 -0.8091 -1.1245
 4478TIP3    H234926   3.629   0.883   4.721  0.4669 -0.7256 -1.4081
 4479TIP3   OH234927   4.131   4.710   1.174  0.0781 -0.1925 -0.3599
 4479TIP3    H134928   4.211   4.661   1.161 -0.3366 -0.5575 -1.7047
 4479TIP3    H234929   4.118   4.758   1.092 -2.1155 -1.7215 -1.0073
 4480TIP3   OH234930   6.269   3.500   5.353 -0.3127  0.0237  0.0063
 4480TIP3    H134931   6.350   3.546   5.332  0.5613 -1.0917  0.8465
 4480TIP3    H234932   6.200   3.558   5.320  0.7664  1.4712  0.1693
 4481TIP3   OH234933   3.435   4.039  15.086 -0.3102 -0.2742 -0.4938
 4481TIP3    H134934   3.453   4.063  15.177 -0.9955 -0.4557 -0.2997
 4481TIP3    H234935   3.401   4.119  15.046 -1.6013 -0.6190 -0.1282
 4482TIP3   OH234936   2.885   1.593  11.364  0.4669  0.1498  0.5768
 4482TIP3    H134937   2.968   1.622  11.326  0.7930 -0.8901  0.4476
 4482TIP3    H234938   2.840   1.674  11.388  0.5315  0.8340 -1.4117
 4483TIP3   OH234939   4.797   5.659  13.903  0.3816  0.5399  0.2838
 4483TIP3    H134940   4.749   5.577  13.904 -0.1360  0.8393  0.2471
 4483TIP3    H234941   4.835   5.665  13.816 -0.9053  1.0974 -0.2544
 4484TIP3   OH234942   2.179   1.780   0.940  0.0717 -0.0222 -0.3244
 4484TIP3    H134943   2.269   1.770   0.970 -0.2859 -1.1945  0.4592
 4484TIP3    H234944   2.131   1.809   1.018 -0.5554 -1.3617 -0.1774
 4485TIP3   OH234945   0.120   4.282   4.413 -0.1958  0.0535  0.0672
 4485TIP3    H134946   0.120   4.190   4.389 -0.2279  0.2356 -0.6517
 4485TIP3    H234947   0.051   4.321   4.360 -1.3301  0.1995  1.5821
 4486TIP3   OH234948   2.906   5.546  12.396 -0.4049 -0.1979  0.1709
 4486TIP3    H134949   2.902   5.451  12.385  0.1528 -0.0648 -1.6575
 4486TIP3    H234950   2.991   5.562  12.437 -1.4941 -0.5822  2.7759
 4487TIP3   OH234951   5.709   1.298   4.718  0.0463  0.6810 -0.2002
 4487TIP3    H134952   5.728   1.321   4.809 -2.0755  0.5893  0.3340
 4487TIP3    H234953   5.764   1.357   4.666  2.6894 -0.5220  1.0774
 4488TIP3   OH234954   4.682   5.249   1.735 -0.1823 -0.2237  0.4717
 4488TIP3    H134955   4.674   5.270   1.828  0.5251  1.1771  0.2303
 4488TIP3    H234956   4.594   5.263   1.699 -0.1649  0.4463  0.6884
 4489TIP3   OH234957   3.005   5.292  12.296 -0.2442  0.4196 -0.4624
 4489TIP3    H134958   3.072   5.260  12.357 -1.0490  0.0125  0.2425
 4489TIP3    H234959   3.051   5.352  12.238  0.7369  0.1001 -0.0310
 4490TIP3   OH234960   5.191   4.719   5.284 -0.9076 -0.1726  0.8291
 4490TIP3    H134961   5.157   4.670   5.359 -1.0992 -0.6353  0.4519
 4490TIP3    H234962   5.169   4.664   5.208 -1.9453  0.9337  0.2940
 4491TIP3   OH234963   0.707   0.705  12.742  0.0502  0.6340  0.2750
 4491TIP3    H134964   0.765   0.633  12.767  0.5294  0.5338 -1.0480
 4491TIP3    H234965   0.621   0.677  12.772  0.4582  0.1623  1.0506
 4492TIP3   OH234966   4.469   4.160   0.329  0.1914 -0.4463  0.2708
 4492TIP3    H134967   4.539   4.108   0.369 -0.6376 -1.6084  0.2600
 4492TIP3    H234968   4.398   4.159   0.395 -0.5356 -0.9236 -0.4977
 4493TIP3   OH234969   5.889   2.887  10.499 -0.1352  0.4000  0.1004
 4493TIP3    H134970   5.985   2.879  10.499 -0.2872 -2.4941  0.8509
 4493TIP3    H234971   5.873   2.980  10.482  2.7762  0.8263 -0.9042
 4494TIP3   OH234972   4.960   3.086  13.393  0.3257 -0.0357  0.0570
 4494TIP3    H134973   4.879   3.106  13.440  0.4144 -1.3908  0.8521
 4494TIP3    H234974   4.949   3.127  13.308 -1.2558 -0.2994  0.1082
 4495TIP3   OH234975   4.916   6.333  16.494 -0.1173 -0.0960 -0.4975
 4495TIP3    H134976   4.994   6.352  16.441 -0.2751  0.1094 -0.6597
 4495TIP3    H234977   4.947   6.275  16.563  0.0602 -0.4863 -0.9072
 4496TIP3   OH234978   4.672   4.215   3.596 -0.3902 -0.1239  0.3280
 4496TIP3    H134979   4.687   4.133   3.550 -3.3569 -1.3672  1.3742
 4496TIP3    H234980   4.653   4.279   3.527  0.6054 -0.5959 -0.4067
 4497TIP3   OH234981   6.507   0.453  14.057  0.1776  0.1358  0.1980
 4497TIP3    H134982   6.417   0.425  14.039  0.1307  0.8609 -0.7785
 4497TIP3    H234983   6.549   0.376  14.097 -1.2531  0.2430  2.0211
 4498TIP3   OH234984   4.546   5.814   4.735  0.0163 -0.1837 -0.4057
 4498TIP3    H134985   4.593   5.868   4.672 -0.0369 -0.8143 -1.0025
 4498TIP3    H234986   4.455   5.844   4.728  0.3912  1.5672  1.3020
 4499TIP3   OH234987   5.249   1.008   5.257 -0.5947  0.1339  0.9057
 4499TIP3    H134988   5.250   1.085   5.314  1.5194  0.0198  1.0966
 4499TIP3    H234989   5.331   0.963   5.276 -1.9896 -2.4781  1.1751
 4500TIP3   OH234990   3.474   1.315   2.328 -0.4650  0.4160  0.6394
 4500TIP3    H134991   3.474   1.343   2.236  1.1661 -0.7185  0.2649
 4500TIP3    H234992   3.531   1.378   2.372  1.3050 -0.8206  0.2343
 4501TIP3   OH234993   1.662   2.149   3.001  0.2301  0.0108  0.1530
 4501TIP3    H134994   1.728   2.172   3.066  0.4344 -1.6422  0.5698
 4501TIP3    H234995   1.708   2.150   2.918  0.6472 -0.5359  0.3711
 4502TIP3   OH234996   5.722   3.192  14.013 -0.3433  0.0337  0.2006
 4502TIP3    H134997   5.753   3.257  14.076  1.4793 -1.5835  1.0951
 4502TIP3    H234998   5.786   3.121  14.019 -0.7419 -0.6961 -2.6813
 4503TIP3   OH234999   1.732   4.274   5.219  0.0478  0.3156  0.3124
 4503TIP3    H135000   1.695   4.208   5.278 -0.6948 -0.1236 -0.6134
 4503TIP3    H235001   1.655   4.316   5.179  0.5299  0.1762 -0.7931
 4504TIP3   OH235002   6.598   6.089   1.398 -0.1315 -0.1492 -0.1532
 4504TIP3    H135003   6.566   6.041   1.322 -0.7850 -0.6670  0.4334
 4504TIP3    H235004   6.531   6.157   1.413 -0.8425 -1.0472  0.9001
 4505TIP3   OH235005   6.126   6.272   6.668 -0.1382  0.4322 -0.4375
 4505TIP3    H135006   6.095   6.324   6.594  1.6747  0.9590 -0.8984
 4505TIP3    H235007   6.064   6.290   6.738 -0.6162  1.7490 -1.1619
 4506TIP3   OH235008   1.763   0.396   0.306 -0.3139  0.2040 -0.0988
 4506TIP3    H135009   1.709   0.367   0.380 -1.0583 -1.5790 -1.2693
 4506TIP3    H235010   1.785   0.315   0.259  2.5902  0.9755 -0.2377
 4507TIP3   OH235011   5.419   1.654   2.640  0.0665 -0.1663  0.6935
 4507TIP3    H135012   5.328   1.642   2.612  0.2978  0.1410 -0.2222
 4507TIP3    H235013   5.430   1.748   2.648  0.1655 -0.2269  1.2987
 4508TIP3   OH235014   6.162   1.422   0.549 -0.9895  0.1327  0.0506
 4508TIP3    H135015   6.145   1.467   0.466 -0.1333 -0.1672 -0.3029
 4508TIP3    H235016   6.173   1.493   0.613  0.1508  0.4509 -0.4641
 4509TIP3   OH235017   5.175   0.624   2.100 -0.1019  0.5512 -0.0858
 4509TIP3    H135018   5.199   0.713   2.074 -0.1982 -0.0094 -2.2449
 4509TIP3    H235019   5.254   0.573   2.085 -0.1206  0.1951  0.9265
 4510TIP3   OH235020   3.791   3.939   2.688 -0.0688  0.3216 -0.3997
 4510TIP3    H135021   3.749   3.879   2.625 -1.0204 -0.6939  1.1364
 4510TIP3    H235022   3.725   3.953   2.756  1.8943 -1.0807  1.9715
 4511TIP3   OH235023   1.013   3.167   2.153 -0.5024  0.1119  0.1451
 4511TIP3    H135024   0.992   3.209   2.236 -1.0046  0.5262 -0.1845
 4511TIP3    H235025   0.948   3.201   2.092 -0.7950 -0.9988 -0.1767
 4512TIP3   OH235026   6.190   2.742  13.394 -0.0467 -0.0055 -0.1043
 4512TIP3    H135027   6.266   2.786  13.356 -0.5805  1.4692  0.4447
 4512TIP3    H235028   6.226   2.674  13.451  0.7848 -1.4001 -2.1776
 4513TIP3   OH235029   4.030   2.156   2.205 -0.2479  0.3109  0.0309
 4513TIP3    H135030   3.940   2.190   2.207 -0.4069 -0.0434 -0.6491
 4513TIP3    H235031   4.074   2.210   2.139  0.2772  1.0262  0.9414
 4514TIP3   OH235032   6.470   0.003  14.450 -0.8170  0.2269  0.7296
 4514TIP3    H135033   6.432   0.085  14.482 -0.6976  1.4067 -1.8529
 4514TIP3    H235034   6.403  -0.035  14.394 -0.0489 -0.2148  0.0744
 4515TIP3   OH235035   1.399   4.059   2.590  0.3005  0.1909  0.0677
 4515TIP3    H135036   1.402   4.103   2.675 -1.0967  0.4242  0.0257
 4515TIP3    H235037   1.449   4.117   2.532 -0.4761  1.1212  0.2880
 4516TIP3   OH235038   1.605   1.741  15.696  0.0354  0.8776 -0.3174
 4516TIP3    H135039   1.690   1.772  15.725  0.6294 -1.1101  0.2177
 4516TIP3    H235040   1.596   1.654  15.735 -1.8679  0.6853 -1.0588
 4517TIP3   OH235041   2.473   1.853   3.581  0.3221  0.0293 -0.1349
 4517TIP3    H135042   2.403   1.808   3.627 -0.2446 -2.1067 -2.7653
 4517TIP3    H235043   2.432   1.884   3.500  1.5789  2.2214 -0.0079
 4518TIP3   OH235044   0.610   1.048  12.206  0.6162  0.3020 -0.3079
 4518TIP3    H135045   0.634   1.127  12.158 -1.5530  2.4949  1.9388
 4518TIP3    H235046   0.672   1.044  12.279  0.4741  0.1207 -0.1972
 4519TIP3   OH235047   2.251   4.671  12.475  0.3300  0.0673  0.1687
 4519TIP3    H135048   2.316   4.602  12.491  1.7367  1.5139  1.0892
 4519TIP3    H235049   2.174   4.643  12.525  1.1900 -0.3957  1.2869
 4520TIP3   OH235050   3.579   2.565   2.346 -0.0707 -0.6850 -0.0205
 4520TIP3    H135051   3.638   2.631   2.382 -1.1865  0.4338 -0.1844
 4520TIP3    H235052   3.593   2.570   2.251 -1.7345  0.9266 -0.2295
 4521TIP3   OH235053   0.312   5.048   3.300  0.1937  0.3263 -0.5066
 4521TIP3    H135054   0.280   5.134   3.274 -1.4293 -0.2497 -0.5321
 4521TIP3    H235055   0.258   5.024   3.375  0.8033 -0.5600 -0.3329
 4522TIP3   OH235056   4.937   5.578  16.038 -0.1538 -0.3680  0.3150
 4522TIP3    H135057   4.849   5.556  16.069 -0.3649  0.9507  0.7048
 4522TIP3    H235058   4.957   5.661  16.080  0.2860  0.5787 -1.6918
 4523TIP3   OH235059   5.295   1.150   1.590 -0.0375 -0.3690 -0.0084
 4523TIP3    H135060   5.388   1.154   1.611 -0.2688 -3.0174  2.1774
 4523TIP3    H235061   5.292   1.154   1.495  2.1068  1.5757 -0.0829
 4524TIP3   OH235062   3.081   0.545   4.360  0.3147 -0.0624  0.1935
 4524TIP3    H135063   3.094   0.501   4.444 -2.3621  1.1443  1.3534
 4524TIP3    H235064   3.118   0.632   4.373 -1.1218  0.5200  0.5856
 4525TIP3   OH235065   3.055   3.576   3.829 -0.5481  0.2228  0.1799
 4525TIP3    H135066   3.086   3.574   3.919 -1.1963  2.5770  0.5293
 4525TIP3    H235067   3.125   3.621   3.781 -1.5501  1.8664  0.1806
 4526TIP3   OH235068   4.389   5.204   2.290 -0.0351 -0.2672  0.3126
 4526TIP3    H135069   4.337   5.158   2.225 -0.0992  0.0134  0.1627
 4526TIP3    H235070   4.358   5.295   2.285  0.1528 -0.1900  0.5392
 4527TIP3   OH235071   3.305   2.429   3.511 -0.1264  0.2658 -0.2785
 4527TIP3    H135072   3.250   2.432   3.589  1.6031 -1.9625  1.1506
 4527TIP3    H235073   3.366   2.502   3.523 -0.6312  0.6760 -0.1713
 4528TIP3   OH235074   5.985   4.640   1.575 -0.8202 -0.0063 -0.1987
 4528TIP3    H135075   6.040   4.591   1.637 -1.7937 -2.0680 -0.8548
 4528TIP3    H235076   5.913   4.674   1.628  1.5001  3.6906  0.8886
 4529TIP3   OH235077   2.230   3.079  15.005 -0.2054 -0.6329  0.0578
 4529TIP3    H135078   2.195   3.110  14.922 -0.1492 -1.7910 -0.4265
 4529TIP3    H235079   2.228   3.155  15.063  0.2823  0.3465 -1.1650
 4530TIP3   OH235080   5.589   6.294  15.095 -0.2281 -0.9806 -0.0285
 4530TIP3    H135081   5.515   6.289  15.155  0.3091  0.0365  0.7409
 4530TIP3    H235082   5.664   6.313  15.150  0.5445 -1.5345 -0.8549
 4531TIP3   OH235083   0.281   5.886  11.476 -0.1788 -0.2346  0.3250
 4531TIP3    H135084   0.355   5.853  11.527 -0.3819  1.4830  1.8594
 4531TIP3    H235085   0.276   5.979  11.499 -3.0887 -0.3843  0.6635
 4532TIP3   OH235086   2.882   6.030   2.122 -0.1557 -0.0307  0.2896
 4532TIP3    H135087   2.900   6.107   2.177 -0.9899  0.2542  0.1806
 4532TIP3    H235088   2.968   5.998   2.097  0.2903 -0.5338  2.2630
 4533TIP3   OH235089   1.033   5.547   5.943  0.4007 -0.0810 -0.1333
 4533TIP3    H135090   0.943   5.557   5.912  0.7665 -0.5661 -1.3783
 4533TIP3    H235091   1.039   5.608   6.017 -1.1216 -0.4741  0.3574
 4534TIP3   OH235092   1.320   4.259   1.431 -0.4552 -0.3165 -0.5004
 4534TIP3    H135093   1.236   4.281   1.392 -0.7816 -1.2787 -0.3664
 4534TIP3    H235094   1.321   4.163   1.434  0.0069 -0.2966  0.8698
 4535TIP3   OH235095   4.340   4.493   2.767  0.9907 -0.4357 -0.3236
 4535TIP3    H135096   4.362   4.531   2.681  2.6842 -0.8940 -0.1339
 4535TIP3    H235097   4.308   4.405   2.747 -0.2662  0.0596 -0.5775
 4536TIP3   OH235098   2.416   1.182   2.895 -0.7066  0.1472  0.6959
 4536TIP3    H135099   2.462   1.261   2.866  0.4980  0.6202  3.5529
 4536TIP3    H235100   2.470   1.110   2.863 -0.8765  0.5102 -0.4586
 4537TIP3   OH235101   2.580   6.814   4.513  0.4398 -0.1027  0.7230
 4537TIP3    H135102   2.664   6.812   4.559  0.4880  1.6406  0.7640
 4537TIP3    H235103   2.601   6.791   4.423  1.1630  1.3017  0.5020
 4538TIP3   OH235104   0.748   5.108  11.317  0.1005  0.4141  0.0679
 4538TIP3    H135105   0.703   5.192  11.308 -0.9292 -0.1581 -0.3141
 4538TIP3    H235106   0.686   5.052  11.363  0.1023 -0.6220 -1.1355
 4539TIP3   OH235107   5.854   0.416  15.312 -0.6539 -0.5341  0.4667
 4539TIP3    H135108   5.821   0.462  15.390  2.5498  0.4470  1.4016
 4539TIP3    H235109   5.905   0.344  15.348 -1.7540 -2.0361 -0.8909
 4540TIP3   OH235110   3.861   2.791   1.962  0.4965  0.0460 -0.4204
 4540TIP3    H135111   3.768   2.809   1.977 -0.1206 -1.0323 -2.4921
 4540TIP3    H235112   3.879   2.829   1.876  2.9284  3.2108  1.2758
 4541TIP3   OH235113   3.407   3.463  11.273 -0.2527  0.0403  0.2138
 4541TIP3    H135114   3.470   3.408  11.227  1.1407  0.8968  1.0345
 4541TIP3    H235115   3.327   3.457  11.221 -0.4404 -3.3732  0.6928
 4542TIP3   OH235116   4.042   2.530   3.479  0.0144 -0.5302  0.5749
 4542TIP3    H135117   4.123   2.581   3.474  0.1448 -0.8556 -1.1573
 4542TIP3    H235118   3.978   2.584   3.433 -0.4232 -0.8893  0.7622
 4543TIP3   OH235119   2.346   5.328  13.759 -0.0144 -0.6023  0.5427
 4543TIP3    H135120   2.416   5.394  13.760  0.0547 -0.4724 -2.5424
 4543TIP3    H235121   2.269   5.374  13.792  0.6238  0.2242  0.9186
 4544TIP3   OH235122   4.551   3.019  13.673 -0.4834  0.5407 -0.3942
 4544TIP3    H135123   4.583   3.003  13.762  1.5106 -1.7623 -1.4273
 4544TIP3    H235124   4.457   3.035  13.685 -0.4905 -0.7600  2.0509
 4545TIP3   OH235125   0.629   2.606   1.196 -0.7122 -0.2726 -0.4949
 4545TIP3    H135126   0.602   2.677   1.137 -1.8918 -1.6689 -1.6840
 4545TIP3    H235127   0.547   2.568   1.227 -0.1033  0.0022  1.5694
 4546TIP3   OH235128   6.540   1.599  16.906 -0.3104  0.2601  0.0507
 4546TIP3    H135129   6.551   1.506  16.888  1.4104  0.6202 -0.9371
 4546TIP3    H235130   6.611   1.621  16.965  1.2361  1.5483 -2.1673
 4547TIP3   OH235131   4.501   5.988  11.319 -0.1920  0.3378 -0.4279
 4547TIP3    H135132   4.478   6.026  11.404  1.8982 -0.2562  0.4621
 4547TIP3    H235133   4.432   5.923  11.302  0.7205 -1.4479  2.1518
 4548TIP3   OH235134   2.314   1.501  15.904  0.5561 -0.0509 -0.5648
 4548TIP3    H135135   2.376   1.569  15.927  3.3253 -1.7437 -2.5079
 4548TIP3    H235136   2.259   1.539  15.836  1.7496  0.4257 -1.2791
 4549TIP3   OH235137   5.952   6.481   0.305  0.4754  0.2076 -0.3373
 4549TIP3    H135138   6.047   6.493   0.303  0.5204 -0.0121 -2.6655
 4549TIP3    H235139   5.935   6.435   0.387  2.1147  2.0582  1.1168
 4550TIP3   OH235140   6.062   0.781  13.615  0.2161  0.0684 -0.3638
 4550TIP3    H135141   6.120   0.743  13.681  0.0431 -1.4173 -1.0308
 4550TIP3    H235142   6.107   0.860  13.585  0.1440  0.9727  1.7394
 4551TIP3   OH235143   6.011   4.985   4.995 -0.3669  0.1362  0.0369
 4551TIP3    H135144   5.939   4.924   5.014 -0.0115 -0.0674  0.7565
 4551TIP3    H235145   6.036   4.964   4.905  0.5927 -1.6808  0.6668
 4552TIP3   OH235146   2.404   6.541   3.283 -0.2111 -0.2724  0.2931
 4552TIP3    H135147   2.465   6.613   3.267  0.5574 -0.4279  2.2747
 4552TIP3    H235148   2.340   6.576   3.344 -1.7203 -0.3550 -1.1746
 4553TIP3   OH235149   4.719   6.019  17.170 -0.3113 -0.2357 -0.0638
 4553TIP3    H135150   4.654   5.949  17.157 -0.9483  0.3675 -0.1942
 4553TIP3    H235151   4.774   5.987  17.241 -0.3962 -1.0129 -0.3365
 4554TIP3   OH235152   3.757   2.177   3.382  0.0435  0.1464  0.3036
 4554TIP3    H135153   3.670   2.137   3.375 -0.2633  0.7825  0.4987
 4554TIP3    H235154   3.741   2.269   3.400  0.7218  0.6382 -1.3434
 4555TIP3   OH235155   2.603   0.769  10.949 -0.3424  0.0326  0.5169
 4555TIP3    H135156   2.558   0.697  10.992  1.0776 -0.2667  1.5392
 4555TIP3    H235157   2.683   0.782  10.999  0.2117  1.2631 -0.6155
 4556TIP3   OH235158   1.046   3.003  11.921  0.1763  0.2744  0.1997
 4556TIP3    H135159   1.075   2.953  11.845  0.4731 -0.6794  0.9120
 4556TIP3    H235160   0.957   3.030  11.900  0.6871  1.1173 -1.0001
 4557TIP3   OH235161   3.411   2.779  12.436 -0.1842  0.4039 -0.4181
 4557TIP3    H135162   3.452   2.695  12.418 -0.1122  0.7803 -2.1384
 4557TIP3    H235163   3.318   2.759  12.447  0.0037 -0.0457  0.4326
 4558TIP3   OH235164   0.804   3.396   5.214 -0.2861 -0.1256  0.1221
 4558TIP3    H135165   0.847   3.360   5.136  0.7018  1.6502 -0.1979
 4558TIP3    H235166   0.788   3.487   5.192  0.4403  0.5437  2.1549
 4559TIP3   OH235167   0.855   1.338   2.670 -0.5846  0.0048 -0.0595
 4559TIP3    H135168   0.841   1.261   2.726  1.5565 -1.3764 -1.2807
 4559TIP3    H235169   0.923   1.310   2.608 -0.7259  2.4615 -1.4280
 4560TIP3   OH235170   0.495   0.733   2.006 -0.0102 -0.0700 -0.0862
 4560TIP3    H135171   0.466   0.653   2.050  1.6477 -1.4444 -1.3686
 4560TIP3    H235172   0.443   0.802   2.047  0.7807 -1.3174  3.4211
 4561TIP3   OH235173   5.346   5.095  15.566  0.4546 -0.2833 -0.4447
 4561TIP3    H135174   5.305   5.071  15.483  0.9130  0.0905 -0.7813
 4561TIP3    H235175   5.347   5.013  15.616 -0.6077 -0.3186 -0.4659
 4562TIP3   OH235176   4.175   2.229   4.898 -0.2532  0.5051 -0.3248
 4562TIP3    H135177   4.204   2.139   4.908  1.3846  0.9404 -0.8272
 4562TIP3    H235178   4.221   2.277   4.967  0.0719  1.1879 -0.9975
 4563TIP3   OH235179   6.371   5.792   2.199 -0.1186 -0.5492 -0.1069
 4563TIP3    H135180   6.429   5.750   2.262  1.8446  2.5906  0.3918
 4563TIP3    H235181   6.412   5.776   2.114 -0.0591 -0.6554 -0.0578
 4564TIP3   OH235182   2.830   4.771  12.654  0.4300 -0.3196 -0.0019
 4564TIP3    H135183   2.836   4.808  12.741  1.1728  0.3287 -0.3290
 4564TIP3    H235184   2.836   4.676  12.668  0.5790 -0.2181  0.6409
 4565TIP3   OH235185   3.083   5.143   1.919  0.2558  0.0167  0.1116
 4565TIP3    H135186   3.129   5.220   1.886  0.7234 -0.5722 -0.6562
 4565TIP3    H235187   3.069   5.161   2.012  0.1631  1.1129 -0.1008
 4566TIP3   OH235188   3.353   4.848   1.801 -0.2197 -0.2378 -0.7314
 4566TIP3    H135189   3.375   4.810   1.886 -2.6741 -0.5195 -0.1481
 4566TIP3    H235190   3.348   4.943   1.818  1.0367 -0.1072 -1.0127
 4567TIP3   OH235191   3.547   6.559  13.672  0.0958 -0.1362 -0.3289
 4567TIP3    H135192   3.642   6.566  13.671  0.3162 -2.3607 -1.7998
 4567TIP3    H235193   3.526   6.521  13.757  0.5616 -0.2253 -0.2520
 4568TIP3   OH235194   4.752   4.919  12.761  0.0821 -0.1151  0.3516
 4568TIP3    H135195   4.744   4.894  12.669  1.6964  0.9989 -0.1288
 4568TIP3    H235196   4.761   5.014  12.760 -2.2760  0.2094  1.8782
 4569TIP3   OH235197   2.603   0.138  15.676 -0.0510 -0.3929  0.5034
 4569TIP3    H135198   2.669   0.087  15.723  0.7286 -0.2208 -0.3645
 4569TIP3    H235199   2.537   0.158  15.741  0.9081 -0.3153  1.4815
 4570TIP3   OH235200   4.099   3.021   2.821  0.3915  0.3418  0.2475
 4570TIP3    H135201   4.090   2.926   2.815  0.6027  0.3178  0.2977
 4570TIP3    H235202   4.170   3.035   2.884 -0.3630  0.5509  1.0823
 4571TIP3   OH235203   3.995   6.659   2.553 -0.1342 -0.5007 -0.6148
 4571TIP3    H135204   4.038   6.642   2.469 -0.6860 -0.6722 -0.8679
 4571TIP3    H235205   3.906   6.624   2.542 -0.2574 -0.3877 -0.0119
 4572TIP3   OH235206   2.919   0.349  14.412  0.5914  0.2515 -0.4406
 4572TIP3    H135207   2.997   0.354  14.468  0.9516 -0.7208 -0.8170
 4572TIP3    H235208   2.946   0.291  14.340 -0.0798  0.9402 -1.2541
 4573TIP3   OH235209   6.509   1.114   3.027  0.1692  0.5748  1.3456
 4573TIP3    H135210   6.600   1.101   3.055  0.4440 -2.1409 -0.4969
 4573TIP3    H235211   6.467   1.029   3.042 -0.8939  0.4366 -1.8244
 4574TIP3   OH235212   5.923   4.356  14.270  0.4379  0.3642 -0.1126
 4574TIP3    H135213   5.890   4.405  14.345  2.2583  0.6481  0.5466
 4574TIP3    H235214   6.011   4.327  14.296  1.4931  1.2029 -2.4335
 4575TIP3   OH235215   0.792   2.160   2.091  0.3298  0.2318 -0.4670
 4575TIP3    H135216   0.853   2.087   2.098 -0.6816 -0.6596 -0.6081
 4575TIP3    H235217   0.847   2.238   2.095  1.5169 -0.5409 -1.0132
 4576TIP3   OH235218   4.058   3.514  14.288  0.1967 -0.3679 -0.1782
 4576TIP3    H135219   4.100   3.494  14.205  1.2397  0.2498  0.1780
 4576TIP3    H235220   4.003   3.591  14.269 -0.6291 -1.0328 -0.5862
 4577TIP3   OH235221   3.964   5.729   2.558  0.2774 -0.0231 -0.5061
 4577TIP3    H135222   3.958   5.713   2.652  1.3354 -2.1961 -0.7487
 4577TIP3    H235223   3.957   5.824   2.549  0.9475  0.3009  1.8358
 4578TIP3   OH235224   1.371   2.056  16.258 -0.0163 -0.4860 -0.5510
 4578TIP3    H135225   1.313   1.988  16.292  0.4096 -1.8931 -2.4600
 4578TIP3    H235226   1.318   2.136  16.261 -1.2043 -1.2675 -0.0191
 4579TIP3   OH235227   4.869   1.925   0.190 -0.1728 -0.4138 -0.6502
 4579TIP3    H135228   4.842   1.981   0.263 -0.0930 -2.3572  0.9615
 4579TIP3    H235229   4.964   1.917   0.200 -0.3226 -1.7973 -0.0739
 4580TIP3   OH235230   0.854   2.108  13.461 -0.4879  0.3954 -0.0637
 4580TIP3    H135231   0.830   2.016  13.460 -0.7143  0.4365 -1.6190
 4580TIP3    H235232   0.945   2.110  13.491  0.1827 -0.5499 -1.8985
 4581TIP3   OH235233   3.241   0.116   2.054  0.0903  0.2349 -0.0578
 4581TIP3    H135234   3.210   0.109   1.963 -0.2403  1.7008 -0.0877
 4581TIP3    H235235   3.320   0.170   2.048  0.1891  0.1531  0.5003
 4582TIP3   OH235236   1.199   3.433  17.048  0.1180  0.1156  0.3189
 4582TIP3    H135237   1.242   3.390  16.974  1.1629  0.0720  0.9247
 4582TIP3    H235238   1.212   3.527  17.032  0.7734  0.0919  0.6846
 4583TIP3   OH235239   3.026   4.681  10.994 -0.2156 -0.0029  0.4910
 4583TIP3    H135240   3.066   4.596  10.976 -0.7082  0.1675 -1.6951
 4583TIP3    H235241   2.947   4.660  11.043 -0.9051 -0.9474 -0.9506
 4584TIP3   OH235242   5.055   1.986   4.273 -0.4030  0.1786  0.4074
 4584TIP3    H135243   5.036   2.001   4.180  0.0439  2.1679  0.6128
 4584TIP3    H235244   4.969   1.980   4.314 -0.6009 -0.4965 -0.0882
 4585TIP3   OH235245   5.425   3.193  16.200  0.0116 -0.0275  0.1402
 4585TIP3    H135246   5.432   3.131  16.127 -0.6267  0.0715 -0.0065
 4585TIP3    H235247   5.337   3.180  16.234  0.6850 -0.8885  1.6344
 4586TIP3   OH235248   1.928   5.409   2.988  0.5498  0.4422  0.1973
 4586TIP3    H135249   1.973   5.453   3.061 -0.1343  0.8597  0.3743
 4586TIP3    H235250   1.988   5.339   2.962  1.2700  0.9367  0.4860
 4587TIP3   OH235251   6.448   1.904  17.227 -0.3525  0.3059  0.5273
 4587TIP3    H135252   6.424   1.909  17.134 -0.8614  0.5088  0.6655
 4587TIP3    H235253   6.392   1.835  17.262 -0.9978  1.0185  0.9293
 4588TIP3   OH235254   1.600   2.912  15.115 -0.3162  0.2758 -0.5032
 4588TIP3    H135255   1.657   2.983  15.144 -0.4190 -0.0415  0.5183
 4588TIP3    H235256   1.639   2.881  15.033  0.6826  0.4098 -0.0946
 4589TIP3   OH235257   4.554   6.292   1.252  0.3102 -0.3464  0.8621
 4589TIP3    H135258   4.513   6.339   1.179  0.7657 -0.4960  0.5067
 4589TIP3    H235259   4.538   6.199   1.232  1.5706 -0.4531  0.2555
 4590TIP3   OH235260   0.481   0.344   1.338 -0.1199  1.0924  0.1737
 4590TIP3    H135261   0.513   0.303   1.418 -1.7740  0.5042  0.5807
 4590TIP3    H235262   0.517   0.290   1.268 -0.5682  0.1659  0.6291
 4591TIP3   OH235263   3.648   2.673   5.694 -0.4399 -0.3841 -0.1513
 4591TIP3    H135264   3.607   2.692   5.778  0.3540  0.7405  0.0105
 4591TIP3    H235265   3.642   2.756   5.646 -1.0510 -1.0653 -1.2843
 4592TIP3   OH235266   0.365   4.734   1.194  0.5594  0.5543  0.2323
 4592TIP3    H135267   0.281   4.710   1.155  1.1270 -1.0338 -0.0811
 4592TIP3    H235268   0.376   4.826   1.173 -0.2481  0.3176 -1.3387
 4593TIP3   OH235269   3.805   1.092  16.530 -0.5162 -0.2226  0.6344
 4593TIP3    H135270   3.861   1.044  16.470 -0.3728  1.1146 -0.3649
 4593TIP3    H235271   3.812   1.046  16.614  0.3511 -1.3270 -0.0320
 4594TIP3   OH235272   4.243   0.796  12.440  0.3022 -0.5459  0.0023
 4594TIP3    H135273   4.164   0.758  12.476  0.8625 -1.4191  0.3366
 4594TIP3    H235274   4.215   0.840  12.360 -0.7509  0.3585  0.8313
 4595TIP3   OH235275   0.693   4.642   3.586  0.0805 -0.0485 -0.3653
 4595TIP3    H135276   0.637   4.659   3.510 -0.7220 -0.8611  0.0205
 4595TIP3    H235277   0.686   4.548   3.600 -0.0140  0.1353  0.8915
 4596TIP3   OH235278   3.256   1.419   4.662 -0.2298  0.1144 -0.0110
 4596TIP3    H135279   3.182   1.446   4.716  0.1775  0.1218  0.5529
 4596TIP3    H235280   3.323   1.392   4.725  0.2558  0.1281 -0.5153
 4597TIP3   OH235281   1.857   2.459  15.780 -0.2465  0.5907  0.1594
 4597TIP3    H135282   1.832   2.539  15.827 -2.1597 -0.6047  1.2849
 4597TIP3    H235283   1.784   2.400  15.793  0.7689 -1.0777 -1.3612
 4598TIP3   OH235284   5.368   5.748  16.538 -0.2080 -0.2438 -0.3395
 4598TIP3    H135285   5.438   5.684  16.554 -0.6725 -0.4659  0.8978
 4598TIP3    H235286   5.408   5.833  16.558  0.0323 -0.2474 -0.7704
 4599TIP3   OH235287   6.087   5.383  14.484  0.3181  0.2529  0.0842
 4599TIP3    H135288   6.178   5.362  14.461  0.2338  0.7913 -0.7562
 4599TIP3    H235289   6.045   5.298  14.494  0.1733 -0.0665 -2.5417
 4600TIP3   OH235290   4.244   1.165  17.124  0.2673  0.1374  0.3228
 4600TIP3    H135291   4.262   1.248  17.079  1.7098  0.0651  0.7178
 4600TIP3    H235292   4.230   1.189  17.215 -2.6302  0.2784 -0.0811
 4601TIP3   OH235293   1.599   2.153   2.608  0.8590 -0.2695  0.0222
 4601TIP3    H135294   1.660   2.169   2.680  1.5992  2.3391 -1.0755
 4601TIP3    H235295   1.550   2.235   2.599  1.1155 -0.3230 -2.7019
 4602TIP3   OH235296   5.173   0.286   1.910  0.3961 -0.1895 -0.1872
 4602TIP3    H135297   5.197   0.207   1.959  0.9732 -0.7611 -1.3399
 4602TIP3    H235298   5.221   0.357   1.953  1.6175 -0.8207 -0.4526
 4603TIP3   OH235299   0.008   2.614  17.173  0.0957  0.7794  0.0167
 4603TIP3    H135300  -0.054   2.629  17.244  0.0240 -0.4068  0.2100
 4603TIP3    H235301   0.060   2.695  17.170 -1.2833  1.7120 -0.0123
 4604TIP3   OH235302   0.428   5.045  10.809 -0.3267  0.0330 -0.0092
 4604TIP3    H135303   0.336   5.021  10.825  0.1630 -2.0259  0.0656
 4604TIP3    H235304   0.470   4.962  10.784  1.2953  1.1175 -1.1042
 4605TIP3   OH235305   0.629   3.141  14.077 -0.0176 -0.1747  0.0663
 4605TIP3    H135306   0.627   3.206  14.148  1.2175 -0.6528  0.5745
 4605TIP3    H235307   0.537   3.119  14.062 -0.3463  0.4340  1.0647
 4606TIP3   OH235308   5.160   1.862   0.451 -0.4807  0.6927  0.1753
 4606TIP3    H135309   5.207   1.791   0.407 -1.1502 -0.6147  1.4668
 4606TIP3    H235310   5.092   1.889   0.389 -0.8920 -0.5436  0.0664
 4607TIP3   OH235311   3.853   3.989   0.884  0.0223  0.4264 -0.2578
 4607TIP3    H135312   3.808   4.041   0.817  0.1739  1.0123  0.0908
 4607TIP3    H235313   3.927   4.043   0.911  1.4560 -0.8886 -1.4272
 4608TIP3   OH235314   2.677   3.445   6.120 -0.3867  0.1275 -0.4281
 4608TIP3    H135315   2.743   3.513   6.128 -0.8753  0.6572 -0.8043
 4608TIP3    H235316   2.618   3.459   6.193  0.1984 -0.6785  0.2203
 4609TIP3   OH235317   4.269   3.489  14.482 -0.3183 -0.5200 -0.1624
 4609TIP3    H135318   4.322   3.410  14.488 -1.0541 -1.0746 -0.7456
 4609TIP3    H235319   4.191   3.462  14.434 -1.8142 -0.1103  1.9008
 4610TIP3   OH235320   2.141   0.629   0.551  0.2492  0.2251  0.1169
 4610TIP3    H135321   2.075   0.562   0.533  0.0612  0.7655 -1.3066
 4610TIP3    H235322   2.222   0.594   0.513  0.8075 -0.4100  1.8066
 4611TIP3   OH235323   5.368   6.775  15.386  0.3112  0.0539  0.1765
 4611TIP3    H135324   5.414   6.848  15.429  0.9809  0.2806 -0.8682
 4611TIP3    H235325   5.408   6.697  15.423 -1.1933  0.1551  2.1424
 4612TIP3   OH235326   5.952   6.159  16.179  0.1623  0.3810  0.4827
 4612TIP3    H135327   5.898   6.175  16.257  0.9061  1.3233  0.8325
 4612TIP3    H235328   5.889   6.146  16.108 -0.6814 -4.0406  1.7476
 4613TIP3   OH235329   6.136   4.733  15.489 -1.0228 -0.5256  0.2229
 4613TIP3    H135330   6.161   4.822  15.514  0.4439 -0.5520 -1.0351
 4613TIP3    H235331   6.145   4.682  15.570  1.8716 -0.2623  0.1590
 4614TIP3   OH235332   2.420   3.682   0.455  0.0356  0.3855 -0.1340
 4614TIP3    H135333   2.381   3.741   0.390  0.1142  0.0963 -0.4530
 4614TIP3    H235334   2.390   3.715   0.539 -0.5488  0.4264 -0.3535
 4615TIP3   OH235335   3.761   1.664   2.912 -0.7235  0.5297 -0.6043
 4615TIP3    H135336   3.670   1.651   2.886 -0.1045  0.7858 -3.2634
 4615TIP3    H235337   3.811   1.605   2.856  0.8466  1.5022 -0.3246
 4616TIP3   OH235338   1.293   0.041   5.263  0.0295  0.2888  0.0219
 4616TIP3    H135339   1.306   0.130   5.296  1.3329 -0.1017  0.6189
 4616TIP3    H235340   1.218   0.008   5.313 -0.2887  0.9440 -0.0070
 4617TIP3   OH235341   4.848   5.862   0.678  0.4018 -0.4100 -0.0239
 4617TIP3    H135342   4.823   5.793   0.739  0.5359 -0.6227 -0.2079
 4617TIP3    H235343   4.770   5.917   0.670  1.0087  0.8744  2.0013
 4618TIP3   OH235344   1.196   3.339   4.918  0.0881  0.5540  0.1928
 4618TIP3    H135345   1.280   3.336   4.872 -0.6650  0.6135 -1.2391
 4618TIP3    H235346   1.189   3.429   4.950 -0.2018  1.0532 -1.2100
 4619TIP3   OH235347   2.874   0.446   0.786 -0.3766  0.1042  0.0137
 4619TIP3    H135348   2.801   0.385   0.776  0.5351 -0.6289 -3.4796
 4619TIP3    H235349   2.836   0.532   0.772 -0.5231 -0.3484 -2.8637
 4620TIP3   OH235350   1.720   6.605   2.957  0.6954  0.1269  0.2136
 4620TIP3    H135351   1.635   6.641   2.983  0.4249 -0.9226  0.8506
 4620TIP3    H235352   1.729   6.629   2.865 -1.3448 -1.6598 -0.5202
 4621TIP3   OH235353   0.235   0.063  13.161 -0.1834 -0.2497  0.0826
 4621TIP3    H135354   0.153   0.074  13.113 -0.2372 -1.2186 -0.0595
 4621TIP3    H235355   0.259  -0.029  13.148 -0.3425 -0.6232  2.1551
 4622TIP3   OH235356   1.755   0.963   5.686 -0.2254  0.2837 -0.5324
 4622TIP3    H135357   1.761   0.959   5.590  0.8703  1.8739 -0.5755
 4622TIP3    H235358   1.769   0.873   5.714  2.1199  0.1619 -1.7971
 4623TIP3   OH235359   0.505   0.809   4.952  0.4959  0.2693  0.2625
 4623TIP3    H135360   0.567   0.749   4.993  0.0348 -0.1035  0.4149
 4623TIP3    H235361   0.428   0.807   5.007 -0.1012 -0.1764 -0.5611
 4624TIP3   OH235362   1.208   6.394  10.610  0.0904 -0.1417  0.3075
 4624TIP3    H135363   1.216   6.323  10.674  1.0240 -0.3343 -0.0010
 4624TIP3    H235364   1.289   6.389  10.559 -0.7171 -0.1096 -1.0288
 4625TIP3   OH235365   0.787   6.388   0.695  1.2982  0.3082 -0.4405
 4625TIP3    H135366   0.872   6.415   0.662  0.9128  0.1770 -1.5904
 4625TIP3    H235367   0.725   6.451   0.658  0.5656 -1.2103 -1.9290
 4626TIP3   OH235368   4.443   0.686   1.892 -0.5337 -0.3009 -0.0596
 4626TIP3    H135369   4.522   0.631   1.899 -0.2281  0.3197  1.7719
 4626TIP3    H235370   4.429   0.695   1.797  1.8472 -0.0747 -0.4588
 4627TIP3   OH235371   0.229   0.632  11.833 -0.2511 -0.1043 -0.1872
 4627TIP3    H135372   0.156   0.675  11.878 -0.6312 -0.6043 -0.3062
 4627TIP3    H235373   0.215   0.539  11.849 -0.3809 -0.2939 -1.3058
 4628TIP3   OH235374   1.024   5.859   1.394 -0.2706  0.0875 -0.0209
 4628TIP3    H135375   0.938   5.819   1.409  0.7497 -2.7663 -1.0644
 4628TIP3    H235376   1.084   5.810   1.451  1.1784 -0.5220 -1.9504
 4629TIP3   OH235377   4.646   5.142  14.314 -0.1152 -0.1498  0.2277
 4629TIP3    H135378   4.696   5.220  14.293  1.9586 -0.9733  1.7148
 4629TIP3    H235379   4.654   5.087  14.236 -1.3647  0.9607 -0.7230
 4630TIP3   OH235380   5.766   4.924   0.708  0.4734  0.3574  0.8093
 4630TIP3    H135381   5.791   4.900   0.619  0.7037 -0.2087  1.0197
 4630TIP3    H235382   5.691   4.868   0.727 -0.6379  1.6536  0.3822
 4631TIP3   OH235383   0.422   0.184  15.409 -0.1877  0.0220 -0.4342
 4631TIP3    H135384   0.347   0.181  15.350 -0.7563 -0.0865  0.2698
 4631TIP3    H235385   0.496   0.207  15.354 -0.8672  0.8275 -1.0314
 4632TIP3   OH235386   2.058   3.488  13.838 -0.5855 -0.6417 -0.1205
 4632TIP3    H135387   2.117   3.448  13.902 -1.6568 -0.9954  0.6588
 4632TIP3    H235388   2.088   3.579  13.832 -0.1775 -0.7235  0.5302
 4633TIP3   OH235389   6.158   1.699   0.704  0.0012 -0.0765 -0.0174
 4633TIP3    H135390   6.117   1.771   0.751 -0.2012 -0.9229  1.1251
 4633TIP3    H235391   6.244   1.733   0.677  0.1743  0.3707  1.0864
 4634TIP3   OH235392   0.474   5.909   4.182 -0.0130  0.9191 -0.1357
 4634TIP3    H135393   0.550   5.957   4.152  0.9338 -1.3170 -1.5137
 4634TIP3    H235394   0.508   5.824   4.210 -1.9435 -0.0322 -0.4979
 4635TIP3   OH235395   2.243   3.937  12.839  0.0273  0.5776 -0.5089
 4635TIP3    H135396   2.198   3.930  12.755  0.4618 -0.0166 -0.7006
 4635TIP3    H235397   2.332   3.908  12.820 -0.0254 -0.1343  0.2803
 4636TIP3   OH235398   4.993   2.250   5.898  0.0993  0.2024 -0.3134
 4636TIP3    H135399   5.039   2.237   5.816 -0.1953 -0.2928 -0.4089
 4636TIP3    H235400   4.931   2.321   5.881  0.3084  0.3606 -0.4039
 4637TIP3   OH235401   5.315   2.518  14.900 -0.1930 -0.1365  0.3404
 4637TIP3    H135402   5.256   2.506  14.974 -0.3531 -1.7562 -0.0241
 4637TIP3    H235403   5.272   2.474  14.827  1.1970 -0.9064 -0.0564
 4638TIP3   OH235404   0.372   1.682   4.237 -0.2658  0.0849  0.5025
 4638TIP3    H135405   0.374   1.743   4.163  0.0114 -0.9358 -0.3410
 4638TIP3    H235406   0.446   1.709   4.292 -0.6479  1.0317  0.5729
 4639TIP3   OH235407   3.526   1.472  12.670  0.1998 -0.3642  0.2033
 4639TIP3    H135408   3.443   1.456  12.626 -0.0544 -1.2696  0.9648
 4639TIP3    H235409   3.591   1.475  12.600 -0.4364  0.0704 -0.3718
 4640TIP3   OH235410   4.052   0.699   3.121  0.6795 -1.1006  0.2467
 4640TIP3    H135411   4.027   0.631   3.184  0.5638 -1.2506  0.0379
 4640TIP3    H235412   3.971   0.749   3.107  1.3121  0.7086  2.3769
 4641TIP3   OH235413   5.690   4.636  12.831  0.4403  0.4649  0.2930
 4641TIP3    H135414   5.604   4.625  12.791  0.2197 -0.6430  1.0328
 4641TIP3    H235415   5.737   4.556  12.811  0.6355  0.2671  1.4573
 4642TIP3   OH235416   4.826   3.961   0.689 -0.3775  0.1828 -0.0953
 4642TIP3    H135417   4.832   4.022   0.762  0.0065 -1.1318  0.9977
 4642TIP3    H235418   4.907   3.911   0.691 -1.5999 -1.9174  0.4796
 4643TIP3   OH235419   1.416   5.460   6.189  0.3267  0.1348 -0.5418
 4643TIP3    H135420   1.343   5.412   6.149  1.8723 -2.9922  0.0592
 4643TIP3    H235421   1.387   5.478   6.278  0.5247 -1.9003 -0.0128
 4644TIP3   OH235422   0.886   3.397   5.834 -0.0204  0.3305  0.0204
 4644TIP3    H135423   0.892   3.397   5.930  2.8036 -1.5216 -0.0298
 4644TIP3    H235424   0.869   3.306   5.811  2.1279  0.1857 -1.2456
 4645TIP3   OH235425   0.739   4.500  16.885 -0.2801 -0.0393  0.1643
 4645TIP3    H135426   0.674   4.476  16.951 -0.2310  3.0648  1.5186
 4645TIP3    H235427   0.687   4.530  16.811 -0.3853  0.1113  0.2970
 4646TIP3   OH235428   1.962   5.971  10.719 -0.0803 -0.0743 -0.1814
 4646TIP3    H135429   2.008   5.895  10.683 -0.7172 -0.4303 -0.2698
 4646TIP3    H235430   1.873   5.939  10.734 -0.9188  1.2099 -2.0945
 4647TIP3   OH235431   0.946   5.166   5.884 -0.1670 -0.1553 -0.0623
 4647TIP3    H135432   1.028   5.147   5.929 -0.3630  0.2558  0.4738
 4647TIP3    H235433   0.883   5.181   5.954 -0.6226 -0.1225 -0.4730
 4648TIP3   OH235434   0.624   2.937   4.414 -0.2680  0.3526  0.4639
 4648TIP3    H135435   0.627   3.019   4.364  1.7160 -0.1753 -0.3819
 4648TIP3    H235436   0.602   2.870   4.350  0.1397 -0.0380  0.7216
 4649TIP3   OH235437   2.522   4.043   5.818 -0.3609 -0.5053 -0.3571
 4649TIP3    H135438   2.456   4.009   5.879  0.7046  1.1500  1.8833
 4649TIP3    H235439   2.513   4.138   5.825 -0.5502 -0.2179 -3.3185
 4650TIP3   OH235440   4.365   4.308   5.651  0.4839 -0.0743 -0.2805
 4650TIP3    H135441   4.323   4.301   5.566  0.8380 -0.1749 -0.4493
 4650TIP3    H235442   4.293   4.319   5.713  0.2871  1.9153 -0.7906
 4651TIP3   OH235443   6.041   2.111   0.517  0.1105  0.1789  0.0428
 4651TIP3    H135444   5.972   2.095   0.582 -0.0345  1.9615  0.3696
 4651TIP3    H235445   6.060   2.024   0.482 -1.8871 -0.4527  0.3642
 4652TIP3   OH235446   1.405   3.699   3.438  0.2263  0.6915  0.3943
 4652TIP3    H135447   1.359   3.658   3.365  1.9204 -2.3191  0.8830
 4652TIP3    H235448   1.433   3.784   3.404 -1.6437  0.6792 -1.3764
 4653TIP3   OH235449   4.370   2.867   0.807 -0.1669  0.3015 -0.0952
 4653TIP3    H135450   4.410   2.859   0.894  0.5167  0.3164 -0.3948
 4653TIP3    H235451   4.442   2.896   0.751 -1.0185  2.1037 -0.3192
 4654TIP3   OH235452   5.233   0.576   1.381 -0.4839 -0.2749 -0.3187
 4654TIP3    H135453   5.222   0.619   1.466  1.4974  1.2685 -0.7773
 4654TIP3    H235454   5.147   0.539   1.363 -1.3012  0.3965  1.7917
 4655TIP3   OH235455   3.312   2.947   5.424 -0.0660  0.1411 -0.1216
 4655TIP3    H135456   3.321   2.932   5.330 -1.2373  0.4340 -0.3011
 4655TIP3    H235457   3.249   2.880   5.453 -0.4461  0.6493  0.2644
 4656TIP3   OH235458   5.485   0.509   4.741 -0.3087  0.0230 -0.4524
 4656TIP3    H135459   5.557   0.446   4.751  0.1276  0.3222 -1.5530
 4656TIP3    H235460   5.473   0.516   4.646 -2.2113 -0.4823 -0.2926
 4657TIP3   OH235461   3.843   5.046  11.115  0.6182  0.2681  0.6173
 4657TIP3    H135462   3.935   5.024  11.108  0.2475 -1.2489  0.1410
 4657TIP3    H235463   3.800   4.965  11.142 -0.8017  0.4162 -0.9733
 4658TIP3   OH235464   0.541   3.957  14.139 -0.1475  0.3081  0.4435
 4658TIP3    H135465   0.577   4.012  14.209 -0.7677 -0.9298  1.7800
 4658TIP3    H235466   0.595   3.878  14.141 -1.8544 -0.9153  1.4317
 4659TIP3   OH235467   1.553   5.161   3.376 -0.4778 -0.3070  0.1683
 4659TIP3    H135468   1.462   5.189   3.391  0.0202  1.4464  0.1927
 4659TIP3    H235469   1.583   5.217   3.304  0.8585 -0.2496  0.7482
 4660TIP3   OH235470   5.273   5.516   2.653 -0.4874 -0.2385  0.0052
 4660TIP3    H135471   5.286   5.426   2.680 -0.1514 -0.0522  0.4685
 4660TIP3    H235472   5.259   5.564   2.734  1.4506  0.4766 -0.0421
 4661TIP3   OH235473   6.793   6.782   4.291 -0.3088  0.5318  0.3883
 4661TIP3    H135474   6.710   6.736   4.299  0.8863 -1.9427 -0.4932
 4661TIP3    H235475   6.851   6.739   4.355  0.4791  1.8107  0.5780
 4662TIP3   OH235476   2.516   5.869  12.391 -0.7880 -0.2523 -0.2835
 4662TIP3    H135477   2.444   5.932  12.400  0.4863  1.3661 -0.9742
 4662TIP3    H235478   2.551   5.886  12.304  1.9546  0.7125  0.9112
 4663TIP3   OH235479   0.247   1.893  11.526  0.1615 -0.2864  0.1061
 4663TIP3    H135480   0.205   1.915  11.609 -1.9635 -1.6062 -0.5571
 4663TIP3    H235481   0.311   1.825  11.549  1.8212  1.4897  1.0615
 4664TIP3   OH235482   2.670   1.033  13.564  0.2074 -0.0541  0.0826
 4664TIP3    H135483   2.650   1.125  13.546 -0.7274 -0.2319  0.1802
 4664TIP3    H235484   2.607   1.008  13.632 -0.5617 -1.1771 -1.0042
 4665TIP3   OH235485   3.124   0.201   1.064 -0.4454 -0.5179 -0.1371
 4665TIP3    H135486   3.178   0.270   1.025 -1.3809 -0.8804 -2.2167
 4665TIP3    H235487   3.166   0.119   1.035 -2.3795 -0.8194 -2.3935
 4666TIP3   OH235488   4.090   2.017  12.444 -0.6235  0.1163 -0.2307
 4666TIP3    H135489   4.003   2.050  12.419 -1.3776 -0.9141  0.9217
 4666TIP3    H235490   4.101   1.937  12.393 -1.4183 -1.0478  1.3425
 4667TIP3   OH235491   3.515   2.338  11.523  0.3367  0.3163  0.1629
 4667TIP3    H135492   3.427   2.344  11.485  0.6129 -1.2601 -0.8617
 4667TIP3    H235493   3.573   2.336  11.446  1.0052 -1.8671  0.6672
 4668TIP3   OH235494   0.319   0.358   1.885 -0.2774  0.1404 -0.4627
 4668TIP3    H135495   0.230   0.324   1.886 -1.0932  2.1097 -1.3091
 4668TIP3    H235496   0.356   0.333   1.970 -1.7648 -0.3260  0.0722
 4669TIP3   OH235497   5.728   6.251   1.035 -0.8023 -0.4679 -0.1195
 4669TIP3    H135498   5.745   6.229   1.126 -0.5475 -2.8668 -0.6686
 4669TIP3    H235499   5.798   6.207   0.987 -1.7163 -0.4044 -1.5654
 4670TIP3   OH235500   0.116   6.626   4.522  0.6995 -0.2808  0.1824
 4670TIP3    H135501   0.120   6.636   4.617 -1.3410 -1.5180  0.4511
 4670TIP3    H235502   0.207   6.636   4.493  1.4372 -0.3835  2.2951
 4671TIP3   OH235503   5.387   3.394  12.634 -0.2456 -0.2413 -0.1013
 4671TIP3    H135504   5.458   3.330  12.637  2.3655  2.4684  1.4068
 4671TIP3    H235505   5.420   3.464  12.578 -1.6932  1.1466  0.6752
 4672TIP3   OH235506   6.725   4.260  13.625 -0.6064 -0.2360  0.3844
 4672TIP3    H135507   6.764   4.213  13.699 -1.1074 -0.1808  0.6865
 4672TIP3    H235508   6.650   4.306  13.662  0.3776  1.5434  0.2818
 4673TIP3   OH235509   6.451   2.560  16.655  0.3143 -0.2174  0.1938
 4673TIP3    H135510   6.480   2.493  16.716 -0.2826  1.0790  2.0007
 4673TIP3    H235511   6.514   2.556  16.583  2.1968 -0.5678  1.7744
 4674TIP3   OH235512   3.094   0.395   0.169  0.3245 -0.0871  0.2253
 4674TIP3    H135513   3.157   0.355   0.110 -0.2958 -0.5356 -0.1433
 4674TIP3    H235514   3.144   0.460   0.218  0.8614  0.2432 -0.7437
 4675TIP3   OH235515   4.263   0.778  13.849  0.0711  0.9975  0.0336
 4675TIP3    H135516   4.357   0.784  13.866  0.1929 -1.2646  0.5573
 4675TIP3    H235517   4.222   0.793  13.934 -0.0155  1.5536 -0.1063
 4676TIP3   OH235518   4.354   6.746   4.475  0.3281 -0.3929 -0.0975
 4676TIP3    H135519   4.427   6.683   4.478 -0.6460 -1.5729 -0.3190
 4676TIP3    H235520   4.375   6.810   4.543  1.7246 -0.5238 -0.3646
 4677TIP3   OH235521   3.643   6.009  15.382 -0.1515 -0.0546  0.4428
 4677TIP3    H135522   3.611   5.970  15.463  1.3396 -1.1854  0.5371
 4677TIP3    H235523   3.621   6.102  15.390 -1.5512 -0.4257  1.3537
 4678TIP3   OH235524   1.843   0.114  10.272 -0.5367 -0.2200  0.0722
 4678TIP3    H135525   1.820   0.077  10.187  0.7950 -0.1948 -0.3191
 4678TIP3    H235526   1.926   0.072  10.295 -0.0356  1.0151  0.5787
 4679TIP3   OH235527   4.073   3.120  13.932 -0.1695  0.1780  0.4479
 4679TIP3    H135528   4.060   3.147  13.841  1.2749  2.0538  0.7166
 4679TIP3    H235529   4.167   3.100  13.938 -0.6872 -2.5091  0.9563
 4680TIP3   OH235530   1.315   3.141   2.232  0.1756  0.0745 -0.0001
 4680TIP3    H135531   1.268   3.123   2.313 -0.3956  0.1179 -0.3138
 4680TIP3    H235532   1.363   3.060   2.213  1.0137  0.3606  0.8366
 4681TIP3   OH235533   2.248   5.754  15.801  0.6072 -0.1712  0.2060
 4681TIP3    H135534   2.241   5.777  15.708  0.4599  0.6935  0.4223
 4681TIP3    H235535   2.334   5.712  15.809 -0.2671 -2.2623 -0.7117
 4682TIP3   OH235536   2.353   2.972   4.223 -0.2768 -0.8073 -0.1239
 4682TIP3    H135537   2.370   3.019   4.305  0.6681 -2.0710  0.4472
 4682TIP3    H235538   2.439   2.961   4.183 -0.8272  0.7271 -1.8735
 4683TIP3   OH235539   6.358   2.448   0.242 -0.4888 -0.0620  0.5305
 4683TIP3    H135540   6.365   2.426   0.149  0.5397  2.0826  0.0294
 4683TIP3    H235541   6.298   2.523   0.244  0.3938  0.6527  1.4350
 4684TIP3   OH235542   3.143   5.116   0.403  0.2310 -0.3647  0.2341
 4684TIP3    H135543   3.054   5.080   0.409  0.4621 -1.1249 -0.6538
 4684TIP3    H235544   3.131   5.204   0.366 -0.1647 -0.3909  0.2993
 4685TIP3   OH235545   4.163   4.082  16.230 -0.2424 -0.1602  0.1128
 4685TIP3    H135546   4.068   4.078  16.222 -0.2471 -1.8681  0.6766
 4685TIP3    H235547   4.179   4.107  16.321 -0.1981 -2.2053  0.7230
 4686TIP3   OH235548   2.610   2.559   4.024  0.0287 -0.3199 -0.6370
 4686TIP3    H135549   2.666   2.493   3.983 -0.1439  1.8596 -5.1082
 4686TIP3    H235550   2.671   2.615   4.072  0.8031 -1.2149 -0.5390
 4687TIP3   OH235551   3.445   5.721   2.771  0.1389 -0.5458 -0.3300
 4687TIP3    H135552   3.530   5.747   2.735 -0.4904  0.0329 -1.4549
 4687TIP3    H235553   3.430   5.782   2.843  0.2852 -0.0701 -0.6954
 4688TIP3   OH235554   2.374   2.374   2.018 -0.0523 -0.2044  0.4478
 4688TIP3    H135555   2.404   2.403   1.931 -0.4801 -1.6400 -0.2037
 4688TIP3    H235556   2.437   2.413   2.078  0.4221  0.5904 -0.5213
 4689TIP3   OH235557   1.381   6.255   4.439 -0.4535 -0.4785  0.1658
 4689TIP3    H135558   1.399   6.252   4.345 -0.4561  2.4258 -0.0421
 4689TIP3    H235559   1.465   6.241   4.481  0.2542  1.4915 -0.4495
 4690TIP3   OH235560   0.961   3.249   1.269 -0.3169 -0.3206  0.8690
 4690TIP3    H135561   0.882   3.207   1.234  0.3263 -0.7828 -0.0683
 4690TIP3    H235562   0.950   3.342   1.249 -0.6081 -0.3882  0.7142
 4691TIP3   OH235563   6.650   2.229   2.514  0.1807  0.1012  0.5294
 4691TIP3    H135564   6.713   2.157   2.522  0.0460  0.0539  1.2666
 4691TIP3    H235565   6.586   2.198   2.451 -0.1767 -0.6651  1.2465
 4692TIP3   OH235566   4.217   5.540   3.578  0.1804  0.4285  0.3504
 4692TIP3    H135567   4.145   5.579   3.628 -1.3531 -1.4946 -0.1971
 4692TIP3    H235568   4.243   5.463   3.629 -0.2573 -0.6019 -0.9150
 4693TIP3   OH235569   1.048   0.382   0.196  0.3295  0.1488  0.3753
 4693TIP3    H135570   1.131   0.336   0.198 -0.0079 -0.4826  0.0317
 4693TIP3    H235571   1.049   0.432   0.114  0.5089  0.4091  0.5349
 4694TIP3   OH235572   3.104   5.554  16.021 -0.4007  0.4003  1.2683
 4694TIP3    H135573   3.169   5.571  15.953 -0.7384  0.9266  1.0713
 4694TIP3    H235574   3.021   5.547  15.973 -0.6796  1.0331  1.6483
 4695TIP3   OH235575   4.140   5.008   3.917  0.1161 -0.3397 -0.2821
 4695TIP3    H135576   4.165   4.922   3.951  4.2393  0.4633 -0.7695
 4695TIP3    H235577   4.157   5.069   3.989  0.1581  0.3552 -0.8609
 4696TIP3   OH235578   4.030   2.245   4.018  0.1242  0.4409 -0.4447
 4696TIP3    H135579   3.993   2.331   4.035  0.0883  0.5376 -0.9972
 4696TIP3    H235580   3.963   2.200   3.967 -1.4717 -1.2224  2.7862
 4697TIP3   OH235581   3.933   6.665   0.111 -0.6515  0.4452 -0.0138
 4697TIP3    H135582   3.897   6.629   0.193 -2.1573 -2.4071 -1.7697
 4697TIP3    H235583   3.870   6.732   0.086 -1.6908 -0.5548 -0.1632
 4698TIP3   OH235584   1.143   1.969  12.197  0.2821 -0.7273  0.0431
 4698TIP3    H135585   1.082   2.014  12.139  1.7541  1.3920  0.0216
 4698TIP3    H235586   1.126   2.006  12.284 -1.9208 -3.8815  1.1476
 4699TIP3   OH235587   6.436   0.312  13.223  0.0570  0.0784  0.3707
 4699TIP3    H135588   6.528   0.326  13.242 -0.1077  1.4326  0.2689
 4699TIP3    H235589   6.391   0.383  13.268 -0.5994  1.7028 -2.6074
 4700TIP3   OH235590   4.596   4.985  12.425 -0.0251 -0.4912 -0.0452
 4700TIP3    H135591   4.681   4.947  12.448 -0.0496 -0.2764  0.4226
 4700TIP3    H235592   4.580   4.957  12.335  1.5448  1.1963 -0.9191
 4701TIP3   OH235593   4.947   2.674  14.588 -0.5443 -0.2596  0.5354
 4701TIP3    H135594   4.925   2.635  14.673 -0.4988  1.3517  1.3180
 4701TIP3    H235595   4.950   2.768  14.604  1.5102 -0.0233 -0.7687
 4702TIP3   OH235596   5.168   3.669   1.796  0.0708 -0.3175 -0.0718
 4702TIP3    H135597   5.170   3.755   1.754  1.7724 -0.1803  0.2231
 4702TIP3    H235598   5.203   3.684   1.884  1.6435 -1.4944 -0.4417
 4703TIP3   OH235599   4.429   2.380   5.392 -0.6051  0.0377  0.3816
 4703TIP3    H135600   4.381   2.459   5.369 -0.3038 -0.4891 -2.3297
 4703TIP3    H235601   4.519   2.398   5.366 -0.3382 -0.8306  0.6577
 4704TIP3   OH235602   2.141   1.782   4.489 -0.1269  1.0406 -0.3311
 4704TIP3    H135603   2.147   1.870   4.450  1.3235  0.8093 -0.6948
 4704TIP3    H235604   2.232   1.757   4.506 -0.4010 -0.9342 -1.4666
 4705TIP3   OH235605   2.148   5.113  11.533  0.3675  0.4457  0.0517
 4705TIP3    H135606   2.169   5.201  11.503  0.5733  0.0573 -0.9598
 4705TIP3    H235607   2.089   5.126  11.607 -0.3768  1.4090 -0.6986
 4706TIP3   OH235608   3.559   3.371   2.528  0.4006 -0.2376 -0.1577
 4706TIP3    H135609   3.600   3.338   2.608 -0.5407 -0.2057  0.3587
 4706TIP3    H235610   3.538   3.292   2.477  0.5477 -0.2856 -0.1441
 4707TIP3   OH235611   6.218   0.672  13.807 -0.1567  0.0919  0.0157
 4707TIP3    H135612   6.219   0.733  13.880 -0.8262  1.6334 -1.2123
 4707TIP3    H235613   6.149   0.609  13.828 -0.3733  0.5424  0.6626
 4708TIP3   OH235614   4.495   0.268   2.879  0.1831 -0.1026  0.2245
 4708TIP3    H135615   4.539   0.350   2.856 -0.0949  0.0938  0.3850
 4708TIP3    H235616   4.401   0.289   2.875  0.0753 -0.7112 -0.8670
 4709TIP3   OH235617   4.772   2.024   5.252 -0.2975  0.0100 -0.1643
 4709TIP3    H135618   4.782   1.931   5.231  2.2530  0.0126  0.7403
 4709TIP3    H235619   4.748   2.025   5.344  1.4084  0.2415  0.3053
 4710TIP3   OH235620   4.298   3.949  13.622 -0.3092 -0.5300  0.0029
 4710TIP3    H135621   4.210   3.917  13.604 -0.2760 -2.1009  2.3167
 4710TIP3    H235622   4.295   4.042  13.599 -2.5114 -0.5780 -0.0889
 4711TIP3   OH235623   2.087   1.131  15.211  0.0449  0.0927 -0.7432
 4711TIP3    H135624   2.156   1.145  15.146  1.5335 -1.2704  0.4391
 4711TIP3    H235625   2.065   1.039  15.203 -0.2777  0.0849  0.1726
 4712TIP3   OH235626   3.631   3.117  11.620  0.1839 -0.8361 -0.1816
 4712TIP3    H135627   3.579   3.038  11.606 -0.1893 -0.6134 -0.0551
 4712TIP3    H235628   3.584   3.186  11.574  1.2416 -0.9396 -1.4868
 4713TIP3   OH235629   1.933   1.672   2.287 -0.1065 -0.1483 -0.6807
 4713TIP3    H135630   2.015   1.706   2.324 -0.2562  1.5698 -1.8570
 4713TIP3    H235631   1.946   1.676   2.192 -0.7340 -1.9739 -0.8784
 4714TIP3   OH235632   2.211   4.295   4.821 -0.2650  0.2296 -0.1238
 4714TIP3    H135633   2.116   4.308   4.825 -0.2554  0.7136 -1.0501
 4714TIP3    H235634   2.221   4.203   4.795 -0.4206 -0.4646  2.1261
 4715TIP3   OH235635   2.361   6.681  16.103 -0.3568  0.3674 -0.7103
 4715TIP3    H135636   2.419   6.608  16.125  2.4811  2.4066 -0.9466
 4715TIP3    H235637   2.346   6.725  16.187  1.6901  2.0114 -1.1257
 4716TIP3   OH235638   3.892   2.077  11.753 -0.7333 -0.0052  0.2294
 4716TIP3    H135639   3.934   2.017  11.692  0.2782  0.9620 -0.0571
 4716TIP3    H235640   3.946   2.073  11.832 -2.8234 -2.3513  1.7305
 4717TIP3   OH235641   2.650   6.333  17.224 -0.5915 -0.1755 -0.0981
 4717TIP3    H135642   2.561   6.305  17.201 -1.3541  1.4741  0.6745
 4717TIP3    H235643   2.637   6.403  17.289  1.2918 -0.2738  0.4328
 4718TIP3   OH235644   1.176   5.420  14.966  0.6885 -0.1797  0.1999
 4718TIP3    H135645   1.208   5.379  14.886 -1.0698  0.9120 -1.1481
 4718TIP3    H235646   1.183   5.352  15.033  1.5796 -1.3405 -1.0182
 4719TIP3   OH235647   3.047   5.173  11.702  0.2273  0.0156  0.1631
 4719TIP3    H135648   3.122   5.232  11.694  0.2951  0.0989  1.1954
 4719TIP3    H235649   3.033   5.167  11.797  0.4458 -1.8968  0.0988
 4720TIP3   OH235650   0.874   3.544   4.816  0.2099  0.2030 -0.7287
 4720TIP3    H135651   0.898   3.597   4.893 -0.2024 -0.5479 -0.0636
 4720TIP3    H235652   0.942   3.563   4.752  0.5071  0.9268 -0.2143
 4721TIP3   OH235653   2.702   2.537  16.663  0.3057  0.0429 -0.8386
 4721TIP3    H135654   2.700   2.473  16.734  0.4769 -0.8467 -1.6165
 4721TIP3    H235655   2.610   2.545  16.636  0.2707  0.1973 -0.6687
 4722TIP3   OH235656   3.411   3.833   4.184 -0.1536 -0.0561  0.3799
 4722TIP3    H135657   3.400   3.923   4.214 -3.2214 -0.6725  1.5046
 4722TIP3    H235658   3.486   3.800   4.235  0.9212  1.7594  0.0519
 4723TIP3   OH235659   4.948   1.651  16.451 -0.0111 -0.0908  0.7860
 4723TIP3    H135660   4.886   1.581  16.428 -0.6183 -0.2678  2.7757
 4723TIP3    H235661   4.955   1.704  16.371  0.2412 -2.2182 -0.6840
 4724TIP3   OH235662   3.122   4.422  10.929  0.3706  0.4168  0.3167
 4724TIP3    H135663   3.071   4.372  10.865 -1.2217  0.8559  1.1707
 4724TIP3    H235664   3.213   4.413  10.901  0.0892 -2.3172  0.0338
 4725TIP3   OH235665   6.661   0.855  13.948  0.3414 -0.2184  0.7327
 4725TIP3    H135666   6.723   0.871  14.019 -1.0026  1.4735  1.6280
 4725TIP3    H235667   6.580   0.898  13.978 -0.9692 -1.4908 -0.8055
 4726TIP3   OH235668   3.336   6.038   5.375 -0.2088 -0.3861  0.5159
 4726TIP3    H135669   3.392   5.961   5.387 -0.2849 -0.2019  2.2837
 4726TIP3    H235670   3.349   6.063   5.284 -1.6025 -3.6016 -0.7313
 4727TIP3   OH235671   1.632   2.820  13.772  0.5426 -0.1889  0.0510
 4727TIP3    H135672   1.553   2.769  13.758 -0.0809  0.9887 -0.9909
 4727TIP3    H235673   1.676   2.820  13.686  0.2922  1.3390 -0.1153
 4728TIP3   OH235674   1.445   0.458  14.396  0.1211  0.5272 -0.1146
 4728TIP3    H135675   1.417   0.375  14.435 -2.9356  0.9702 -1.0956
 4728TIP3    H235676   1.534   0.440  14.363  0.3737 -1.6668  1.5270
 4729TIP3   OH235677   3.961   3.481  13.626 -0.3271  0.2778 -0.8941
 4729TIP3    H135678   4.050   3.510  13.644  0.4740 -1.6185 -1.5864
 4729TIP3    H235679   3.952   3.399  13.675 -2.2845  1.2292  0.4691
 4730TIP3   OH235680   3.293   0.805   0.471 -0.3141 -0.4085 -0.3964
 4730TIP3    H135681   3.383   0.795   0.440 -0.5232 -0.8967 -0.8575
 4730TIP3    H235682   3.242   0.821   0.392 -0.4316  1.3711  0.0167
 4731TIP3   OH235683   2.124   4.054   3.198  0.2745  0.5193  0.1327
 4731TIP3    H135684   2.083   4.121   3.252 -0.6400 -0.2538  0.4107
 4731TIP3    H235685   2.093   4.073   3.109  2.9659  2.7287 -0.4884
 4732TIP3   OH235686   1.019   2.731  14.517  0.4027  0.0278  0.3053
 4732TIP3    H135687   1.084   2.719  14.587  0.6576  1.7590  0.4170
 4732TIP3    H235688   0.994   2.824  14.524 -1.7588 -0.4827 -0.0323
 4733TIP3   OH235689   6.081   3.455   0.218 -0.1795  0.5949  0.1507
 4733TIP3    H135690   6.141   3.480   0.147  0.0934  0.2289  0.2487
 4733TIP3    H235691   5.999   3.500   0.197 -0.2959  0.0006 -0.7383
 4734TIP3   OH235692   3.720   5.414  12.501 -0.2532 -0.5793 -0.1390
 4734TIP3    H135693   3.815   5.419  12.511 -0.3255 -1.1216  0.9343
 4734TIP3    H235694   3.688   5.498  12.534 -0.1673 -0.4405 -0.3997
 4735TIP3   OH235695   4.467   0.362   0.658  0.4918  0.1666  0.1380
 4735TIP3    H135696   4.523   0.413   0.598 -1.5720  1.9792 -0.3728
 4735TIP3    H235697   4.401   0.324   0.601  0.5897 -1.1117  0.8556
 4736TIP3   OH235698   6.260   1.949   3.011  0.0324 -0.0963  0.2687
 4736TIP3    H135699   6.307   1.899   2.945  1.1943 -0.7143  1.5112
 4736TIP3    H235700   6.168   1.942   2.986  0.2187 -2.2990  0.0136
 4737TIP3   OH235701   3.930   5.872   0.807  0.1092  0.1704 -0.7432
 4737TIP3    H135702   3.928   5.834   0.896  0.9337 -1.3454 -1.3292
 4737TIP3    H235703   3.842   5.907   0.795 -1.0018 -2.2193 -0.3691
 4738TIP3   OH235704   3.909   2.801   4.526 -0.4484 -0.5035  0.7573
 4738TIP3    H135705   3.971   2.732   4.549 -1.0491 -1.1229  0.5418
 4738TIP3    H235706   3.873   2.830   4.610  0.8543  0.5728  0.9812
 4739TIP3   OH235707   6.159   0.375   3.595 -0.3153  0.7001  0.5442
 4739TIP3    H135708   6.151   0.430   3.673 -1.8084 -0.0532  0.9702
 4739TIP3    H235709   6.124   0.429   3.524 -0.7902  0.6898  0.7658
 4740TIP3   OH235710   5.008   4.307  13.646  0.0618 -0.6201  0.2224
 4740TIP3    H135711   4.963   4.362  13.583  0.9667 -0.2204 -0.0970
 4740TIP3    H235712   5.033   4.229  13.597  0.0722 -0.6593  0.2904
 4741TIP3   OH235713   3.453   1.347  16.481  0.7741 -0.0332 -0.1822
 4741TIP3    H135714   3.430   1.400  16.557  1.5839  1.6666 -1.0668
 4741TIP3    H235715   3.378   1.355  16.422 -0.2421 -2.0703  0.7337
 4742TIP3   OH235716   4.651   5.925   2.548 -0.1091  0.0783 -0.1254
 4742TIP3    H135717   4.629   5.990   2.481 -0.5602 -0.0585 -0.1113
 4742TIP3    H235718   4.573   5.870   2.556 -0.2796  0.4438  0.9258
 4743TIP3   OH235719   2.792   2.164  13.992 -0.8256  0.2627 -0.0494
 4743TIP3    H135720   2.722   2.208  13.945 -0.3782  0.9310 -0.0964
 4743TIP3    H235721   2.871   2.211  13.967 -0.4091 -0.2477  0.2984
 4744TIP3   OH235722   2.321   4.477  13.212 -0.3838  0.6363  0.7586
 4744TIP3    H135723   2.334   4.382  13.216 -2.1071  0.3848  1.2029
 4744TIP3    H235724   2.380   4.513  13.279  1.8512  0.1243 -0.7944
 4745TIP3   OH235725   5.296   5.208   5.601 -0.2303 -0.0543  0.0312
 4745TIP3    H135726   5.316   5.254   5.682 -0.3489  0.8061 -0.4179
 4745TIP3    H235727   5.377   5.162   5.580 -0.0584  0.0717  0.4068
 4746TIP3   OH235728   2.385   2.875  13.209  0.3458 -0.1672  0.0216
 4746TIP3    H135729   2.434   2.853  13.289  0.2880 -1.6867 -0.3293
 4746TIP3    H235730   2.402   2.801  13.150 -0.6546  0.3176 -0.8990
 4747TIP3   OH235731   4.612   1.264  16.579  0.0032  0.0930 -0.4701
 4747TIP3    H135732   4.681   1.225  16.633  1.6207  1.0205 -1.7542
 4747TIP3    H235733   4.622   1.221  16.494 -0.3840  0.9219 -0.9408
 4748TIP3   OH235734   6.698   6.763   1.991  0.1891 -0.2740  0.1279
 4748TIP3    H135735   6.694   6.832   1.924  0.0721 -1.0089 -0.6449
 4748TIP3    H235736   6.663   6.804   2.069 -0.3168  0.4095 -0.4408
 4749TIP3   OH235737   6.206   5.837  16.255  0.7970  0.3825 -0.2314
 4749TIP3    H135738   6.148   5.777  16.208 -0.8423  0.0398  2.0523
 4749TIP3    H235739   6.178   5.924  16.227  1.0659  0.1584 -1.2149
 4750TIP3   OH235740   1.837   5.255  15.673 -0.1083 -0.2296  0.1411
 4750TIP3    H135741   1.741   5.249  15.671 -0.1968  1.0904 -0.4952
 4750TIP3    H235742   1.856   5.347  15.655  1.2911 -0.5183  0.0314
 4751TIP3   OH235743   0.232   5.239  10.759  0.1554 -0.1372 -0.1744
 4751TIP3    H135744   0.239   5.148  10.789  2.6441 -0.0724 -0.3269
 4751TIP3    H235745   0.260   5.236  10.668 -0.0674  0.7414 -0.2784
 4752TIP3   OH235746   5.910   1.398  12.777  0.0282 -0.3771 -0.2122
 4752TIP3    H135747   5.964   1.477  12.785  1.5746 -1.4500  0.4851
 4752TIP3    H235748   5.821   1.431  12.762  0.6382  1.4777 -0.0327
 4753TIP3   OH235749   2.932   2.360   5.726  0.3092  0.3179 -0.4547
 4753TIP3    H135750   2.889   2.300   5.786  0.1138  1.2670  0.3725
 4753TIP3    H235751   2.890   2.344   5.641 -0.5623  0.1238  0.0056
 4754TIP3   OH235752   4.135   1.772   0.384 -0.2413  0.3855 -0.4484
 4754TIP3    H135753   4.062   1.823   0.348  1.2032  1.3328 -2.1874
 4754TIP3    H235754   4.181   1.833   0.441 -0.9414 -0.2978  0.8739
 4755TIP3   OH235755   2.634   1.824  13.351 -0.5304 -0.0150 -0.2015
 4755TIP3    H135756   2.649   1.872  13.432  0.5251  0.4147 -0.6436
 4755TIP3    H235757   2.698   1.753  13.353 -0.9397 -0.3937 -0.3571
 4756TIP3   OH235758   5.766   1.119  12.210  0.1190 -0.5658 -0.0235
 4756TIP3    H135759   5.852   1.078  12.207  0.0629 -0.9485  2.1394
 4756TIP3    H235760   5.784   1.213  12.214  0.5934 -0.6854  2.3324
 4757TIP3   OH235761   4.894   4.347   5.600  0.2729 -0.1908 -0.6407
 4757TIP3    H135762   4.914   4.433   5.638  0.0810  0.2079 -1.4183
 4757TIP3    H235763   4.798   4.343   5.600  0.2648 -0.0828 -1.2988
 4758TIP3   OH235764   1.483   6.217   2.029 -0.2161 -0.6379  0.4666
 4758TIP3    H135765   1.389   6.199   2.038 -0.7581  0.9157 -1.2944
 4758TIP3    H235766   1.487   6.310   2.006  1.6407 -1.0190 -0.9791
 4759TIP3   OH235767   3.699   6.490   3.272 -0.0211 -0.0037 -0.5499
 4759TIP3    H135768   3.780   6.537   3.292  0.7779 -1.5674  0.0406
 4759TIP3    H235769   3.686   6.504   3.178  1.2124 -0.1305 -0.7592
 4760TIP3   OH235770   0.240   6.131   1.633  0.5065 -0.1371 -0.1671
 4760TIP3    H135771   0.189   6.210   1.649 -2.1258 -1.4300 -1.4712
 4760TIP3    H235772   0.281   6.111   1.718  1.8232  2.8765  0.0374
 4761TIP3   OH235773   2.933   0.141   3.761  0.0416 -0.2405  0.4239
 4761TIP3    H135774   2.927   0.195   3.683  1.4551  1.0625  1.1733
 4761TIP3    H235775   2.968   0.057   3.730 -3.5727 -1.4262 -0.9955
 4762TIP3   OH235776   4.295   5.849   5.403  0.8234 -0.4219 -0.3418
 4762TIP3    H135777   4.298   5.760   5.438 -3.7014 -0.1797  1.3181
 4762TIP3    H235778   4.315   5.905   5.478  1.0814  0.0053 -0.7225
 4763TIP3   OH235779   4.356   4.582   5.305 -0.1006  0.2335 -0.3725
 4763TIP3    H135780   4.437   4.550   5.266 -0.8063  0.8010 -2.4040
 4763TIP3    H235781   4.381   4.663   5.350  0.4543  0.4732 -1.0910
 4764TIP3   OH235782   1.119   6.689   1.353  0.6209 -0.0649 -0.1840
 4764TIP3    H135783   1.184   6.618   1.356  0.9295  0.1447 -1.4457
 4764TIP3    H235784   1.164   6.765   1.390  1.2673  0.1900 -1.4351
 4765TIP3   OH235785   2.688   3.419  13.613 -0.7346  0.4854  0.1842
 4765TIP3    H135786   2.729   3.439  13.530 -0.6785  1.3648  0.4107
 4765TIP3    H235787   2.642   3.336  13.598 -1.5554  1.1323 -1.0110
 4766TIP3   OH235788   2.328   5.864   3.080 -0.9559  0.0340  0.2263
 4766TIP3    H135789   2.421   5.878   3.061 -0.8778  1.7393  1.5707
 4766TIP3    H235790   2.322   5.772   3.105  0.0380 -0.5419 -1.5188
 4767TIP3   OH235791   0.675   0.468   5.886 -0.1464 -0.8050  0.2524
 4767TIP3    H135792   0.670   0.561   5.910 -1.5979 -0.4891 -1.0918
 4767TIP3    H235793   0.719   0.426   5.960  1.1520  1.0434  0.5888
 4768TIP3   OH235794   1.559   6.559  15.821  0.2728  0.4728  0.1406
 4768TIP3    H135795   1.649   6.577  15.792  1.0112 -1.3030  1.1646
 4768TIP3    H235796   1.519   6.646  15.830  1.5689  1.2651 -1.2443
 4769TIP3   OH235797   0.985   0.772  16.323 -0.0004 -0.5387 -0.3408
 4769TIP3    H135798   0.958   0.850  16.372  1.7954  0.3833 -0.7196
 4769TIP3    H235799   1.011   0.709  16.390 -0.6844 -0.5201 -0.0510
 4770TIP3   OH235800   2.079   3.022  16.755  0.7373  0.1907 -0.3173
 4770TIP3    H135801   2.045   3.028  16.665  0.5467  1.3389 -0.1787
 4770TIP3    H235802   2.029   3.087  16.804 -0.8380 -2.0055  1.1783
 4771TIP3   OH235803   3.355   4.047   3.171  0.0833 -0.2032  0.8368
 4771TIP3    H135804   3.314   4.016   3.251  0.3697  1.3911  1.6426
 4771TIP3    H235805   3.293   4.110   3.134 -0.6658 -1.9038 -0.9612
 4772TIP3   OH235806   1.516   3.232  15.022 -0.9024 -0.5576 -0.1340
 4772TIP3    H135807   1.542   3.226  14.930 -1.5163  0.4486 -0.3906
 4772TIP3    H235808   1.599   3.227  15.070 -0.3873  0.6960 -0.8478
 4773TIP3   OH235809   2.362   2.972  12.883 -0.3729  0.0087 -0.0558
 4773TIP3    H135810   2.419   2.940  12.813  3.6143 -2.1218  3.7012
 4773TIP3    H235811   2.304   2.898  12.903 -0.3664  0.0043 -0.0532
 4774TIP3   OH235812   5.843   2.228  13.448 -0.2895 -0.2154  0.1536
 4774TIP3    H135813   5.793   2.272  13.516  0.5224  1.8154 -0.4935
 4774TIP3    H235814   5.880   2.298  13.395 -1.0236 -1.7071 -2.5457
 4775TIP3   OH235815   1.343   1.574  15.074  0.2031 -0.2408 -0.2847
 4775TIP3    H135816   1.342   1.562  14.979  1.2996  1.2643 -0.5223
 4775TIP3    H235817   1.418   1.632  15.090  0.5332 -1.1163  1.5901
 4776TIP3   OH235818   4.331   0.492  15.201  0.2867  0.1504 -0.0889
 4776TIP3    H135819   4.252   0.439  15.209 -1.5980  2.8003 -0.2195
 4776TIP3    H235820   4.380   0.452  15.129 -1.3538 -0.9829 -0.6197
 4777TIP3   OH235821   1.455   2.199   5.547  0.2059 -0.0759  0.1637
 4777TIP3    H135822   1.503   2.124   5.584  0.4143 -0.5887 -1.1051
 4777TIP3    H235823   1.372   2.161   5.517  0.1094  0.3012 -0.0433
 4778TIP3   OH235824   2.927   2.990  14.747 -0.3379 -0.2694  0.3453
 4778TIP3    H135825   2.953   2.991  14.655 -1.0419  0.2575  0.1436
 4778TIP3    H235826   2.996   3.039  14.792 -0.0755 -0.3863  0.0694
 4779TIP3   OH235827   4.263   6.591  11.407  0.0808 -0.0648  0.0202
 4779TIP3    H135828   4.267   6.496  11.416  0.3720 -0.0110  0.4980
 4779TIP3    H235829   4.224   6.621  11.489 -0.2483  0.2108 -0.2355
 4780TIP3   OH235830   6.049   4.355   0.970  0.1082 -0.1189 -0.3274
 4780TIP3    H135831   6.027   4.298   0.897  0.1496  0.7088 -1.0082
 4780TIP3    H235832   6.126   4.403   0.941 -1.7300  2.6171 -1.1428
 4781TIP3   OH235833   6.196   5.683  10.585  0.4671  0.7734  0.2563
 4781TIP3    H135834   6.190   5.672  10.680 -0.0591 -1.5908  0.0139
 4781TIP3    H235835   6.115   5.726  10.560 -0.4879 -0.6836  0.6830
 4782TIP3   OH235836   5.198   4.643  10.890  0.4793 -0.1738 -0.5241
 4782TIP3    H135837   5.248   4.576  10.843  2.6506 -1.0005  2.6092
 4782TIP3    H235838   5.264   4.703  10.924 -1.0486  1.0804  0.3868
 4783TIP3   OH235839   6.037   0.078  14.154  0.3322  0.0181  0.0342
 4783TIP3    H135840   5.991   0.154  14.119 -0.1468  0.7583  2.1017
 4783TIP3    H235841   5.967   0.023  14.191  0.8633 -0.2783  0.6131
 4784TIP3   OH235842   3.784   2.805  16.477 -0.7926  0.0239  0.1331
 4784TIP3    H135843   3.766   2.843  16.391 -0.8836  3.2879  1.4244
 4784TIP3    H235844   3.866   2.847  16.504 -0.2678 -1.6707  1.2717
 4785TIP3   OH235845   4.892   3.962   3.865 -0.4038 -0.2651 -0.2049
 4785TIP3    H135846   4.927   4.030   3.807  0.0300 -0.6047 -0.3480
 4785TIP3    H235847   4.811   3.999   3.899 -0.2539  0.2592 -0.4086
 4786TIP3   OH235848   2.329   0.097  14.189  0.2016 -0.0232 -0.4484
 4786TIP3    H135849   2.422   0.079  14.177  0.1578 -1.8963  1.4908
 4786TIP3    H235850   2.315   0.090  14.284 -2.1334 -1.0550 -0.8012
 4787TIP3   OH235851   0.411   6.661  13.349  0.2168  0.7701  0.4274
 4787TIP3    H135852   0.500   6.639  13.319  0.1514  1.9888 -0.8101
 4787TIP3    H235853   0.422   6.746  13.392 -0.1521  0.2896  1.4926
 4788TIP3   OH235854   5.289   6.588   5.676  0.0405  0.0348  0.0449
 4788TIP3    H135855   5.225   6.537   5.726 -0.8332 -0.8387 -1.8751
 4788TIP3    H235856   5.374   6.548   5.699 -0.4920 -1.3534 -0.3121
 4789TIP3   OH235857   3.480   5.419  14.280  0.4786 -0.3095 -0.0493
 4789TIP3    H135858   3.505   5.497  14.330  1.6733 -1.0932  0.6358
 4789TIP3    H235859   3.491   5.347  14.341 -0.0533 -1.0902 -0.8473
 4790TIP3   OH235860   1.871   4.832   5.781  0.0430  0.1666  0.3948
 4790TIP3    H135861   1.827   4.802   5.701  0.3850 -1.7061  0.8502
 4790TIP3    H235862   1.818   4.795   5.852  0.6177  0.5090  1.0035
 4791TIP3   OH235863   3.430   5.822   2.381  0.1399  0.4529 -0.7641
 4791TIP3    H135864   3.444   5.916   2.376  0.9349  0.4127  0.3743
 4791TIP3    H235865   3.494   5.791   2.446  0.2064 -0.9323 -1.4464
 4792TIP3   OH235866   2.126   0.384  11.782 -0.7767 -0.2825  0.4747
 4792TIP3    H135867   2.031   0.374  11.789 -0.8315 -0.1347 -0.0538
 4792TIP3    H235868   2.150   0.438  11.858 -1.3870  1.3609 -0.4513
 4793TIP3   OH235869   5.841   2.903   0.633 -0.0365  0.5009  0.2492
 4793TIP3    H135870   5.923   2.911   0.584 -0.4471  0.3430 -0.4854
 4793TIP3    H235871   5.833   2.986   0.679  0.2313  0.7610 -0.1613
 4794TIP3   OH235872   0.043   1.863   6.099 -0.7760 -0.1155  0.1814
 4794TIP3    H135873   0.090   1.946   6.103 -2.6189  0.9272  1.7793
 4794TIP3    H235874   0.031   1.848   6.005  1.4419  0.2675 -0.2240
 4795TIP3   OH235875   5.771   6.593  14.323  0.5165 -0.0743  0.1810
 4795TIP3    H135876   5.855   6.576  14.365  0.5535  0.4391  0.3188
 4795TIP3    H235877   5.709   6.602  14.395  0.4050 -0.1287  0.0925
 4796TIP3   OH235878   6.256   4.966  16.509  0.3526  0.1100 -0.3228
 4796TIP3    H135879   6.303   5.008  16.581  0.3967 -0.7484  0.1570
 4796TIP3    H235880   6.205   5.037  16.470 -0.5811  0.3731  1.2880
 4797TIP3   OH235881   1.100   0.050  12.950 -0.5007  0.0961 -0.2011
 4797TIP3    H135882   1.105  -0.045  12.950  0.3686  0.1237 -1.2916
 4797TIP3    H235883   1.115   0.075  12.859  0.3669  1.3133  0.2461
 4798TIP3   OH235884   2.896   5.030   0.399 -0.0559 -0.0664 -0.0975
 4798TIP3    H135885   2.826   5.055   0.338  0.7679 -0.3642 -1.1989
 4798TIP3    H235886   2.926   4.945   0.367  0.6309 -0.0677  0.5273
 4799TIP3   OH235887   6.437   4.848   4.236  0.2857  0.4667  0.0539
 4799TIP3    H135888   6.483   4.795   4.172  0.1972  0.3492  0.0879
 4799TIP3    H235889   6.416   4.929   4.189  1.1999  0.8367  0.2604
 4800TIP3   OH235890   2.475   1.412   2.751  0.1616  0.0587 -0.0818
 4800TIP3    H135891   2.530   1.465   2.809  1.2982 -2.1764  1.0264
 4800TIP3    H235892   2.528   1.401   2.671 -0.9404  2.2006 -1.2000
 4801TIP3   OH235893   2.271   3.336   1.706  0.6413  0.1220  0.3034
 4801TIP3    H135894   2.246   3.243   1.703 -2.0956  0.7344  1.4763
 4801TIP3    H235895   2.262   3.360   1.798 -0.3302  1.9378 -0.2175
 4802TIP3   OH235896   5.974   4.089   4.453  0.4646  0.0933 -0.1788
 4802TIP3    H135897   5.909   4.039   4.502 -0.3042  0.2111 -1.0435
 4802TIP3    H235898   5.949   4.076   4.361  1.2328  0.7324 -0.4874
 4803TIP3   OH235899   1.593   6.479  16.499  0.7379 -0.0162  0.0322
 4803TIP3    H135900   1.579   6.565  16.538  2.2106  0.3533 -0.1756
 4803TIP3    H235901   1.516   6.464  16.445 -0.1324  0.5983  1.0493
 4804TIP3   OH235902   3.159   5.027   0.889 -0.2101 -0.1441 -0.6895
 4804TIP3    H135903   3.102   5.093   0.850 -1.0023 -0.8373 -0.7366
 4804TIP3    H235904   3.139   4.946   0.842  0.7093 -0.4376 -0.6024
 4805TIP3   OH235905   0.844   5.345   1.181  0.3092  0.2157  0.3032
 4805TIP3    H135906   0.821   5.427   1.139 -1.4480 -0.2647  0.2681
 4805TIP3    H235907   0.920   5.367   1.236  0.0287  1.7856  0.1115
 4806TIP3   OH235908   2.258   1.160   3.117 -0.4791 -0.0448 -0.6435
 4806TIP3    H135909   2.322   1.154   3.045  0.9715 -0.5660  0.6351
 4806TIP3    H235910   2.173   1.154   3.073  0.3419  0.2010 -2.3714
 4807TIP3   OH235911   3.054   4.881   4.262 -0.4999 -0.0483 -0.6340
 4807TIP3    H135912   3.005   4.801   4.283 -1.8059  0.7999 -0.3895
 4807TIP3    H235913   3.070   4.922   4.346 -0.5823  0.3770 -0.8232
 4808TIP3   OH235914   4.189   4.497   0.448  0.1262 -0.3562 -0.0348
 4808TIP3    H135915   4.106   4.511   0.401 -0.3035  0.9449  1.0415
 4808TIP3    H235916   4.170   4.523   0.538  1.9698  0.9087  0.0382
 4809TIP3   OH235917   1.885   6.343  15.981 -0.4301 -0.8773  0.4557
 4809TIP3    H135918   1.850   6.323  16.068  0.9178 -0.9826  1.0009
 4809TIP3    H235919   1.830   6.294  15.921 -1.8041 -0.2781  1.1845
 4810TIP3   OH235920   3.389   5.769   1.805 -0.6515 -0.7789 -0.5309
 4810TIP3    H135921   3.312   5.730   1.847  0.1007 -1.4458  0.2685
 4810TIP3    H235922   3.440   5.694   1.774 -0.6392 -0.3250 -1.6765
 4811TIP3   OH235923   3.055   0.438   0.498 -0.0468  0.3321  0.2226
 4811TIP3    H135924   3.048   0.479   0.585  0.7733  0.9309  0.0090
 4811TIP3    H235925   3.149   0.425   0.485 -0.1836  0.0314 -0.4773
 4812TIP3   OH235926   1.042   0.692  12.283  0.0917 -0.2704 -0.8810
 4812TIP3    H135927   0.969   0.631  12.296 -1.1894  1.0687 -1.4666
 4812TIP3    H235928   1.021   0.736  12.200  1.0144  0.9055 -0.5130
 4813TIP3   OH235929   5.120   3.281  15.743  0.1126  0.6609  0.2849
 4813TIP3    H135930   5.111   3.328  15.660 -1.9864  1.1662  0.7391
 4813TIP3    H235931   5.102   3.346  15.810 -0.0462 -0.1530  1.0535
 4814TIP3   OH235932   0.701   4.377   5.826 -0.3155 -0.4314  0.1864
 4814TIP3    H135933   0.693   4.291   5.867  0.0723 -0.9295 -0.7486
 4814TIP3    H235934   0.795   4.394   5.823 -0.2398 -0.8916 -1.4042
 4815TIP3   OH235935   2.159   2.460   2.349  0.0977 -0.6366 -0.3693
 4815TIP3    H135936   2.135   2.417   2.432  0.6202  0.5482  0.4270
 4815TIP3    H235937   2.114   2.409   2.282  1.2353 -2.8516  0.4496
 4816TIP3   OH235938   0.615   5.892   1.401 -0.4165  0.9218 -0.4607
 4816TIP3    H135939   0.564   5.822   1.441  0.3378  0.7580  0.2404
 4816TIP3    H235940   0.610   5.965   1.464 -0.2404  1.0928 -0.6408
 4817TIP3   OH235941   2.093   6.385  11.965 -0.6512  0.4037  0.2177
 4817TIP3    H135942   2.006   6.380  12.005 -0.0817 -0.9833  1.3745
 4817TIP3    H235943   2.098   6.308  11.909  0.0106  0.1988  0.5531
 4818TIP3   OH235944   5.051   1.055  12.629 -0.2693 -0.1769  0.2490
 4818TIP3    H135945   5.044   1.090  12.541 -0.8110 -1.1644 -0.1249
 4818TIP3    H235946   5.082   1.128  12.683  0.1469  0.4073 -0.7690
 4819TIP3   OH235947   1.864   2.621   3.676 -0.5508  0.0036  0.3286
 4819TIP3    H135948   1.894   2.627   3.767 -1.7198 -1.8050  0.8945
 4819TIP3    H235949   1.818   2.704   3.661  1.2275  1.1101  0.7313
 4820TIP3   OH235950   5.941   5.433   1.936 -0.9354 -0.1719  0.3931
 4820TIP3    H135951   5.898   5.438   2.021 -0.4884 -3.1804  0.9006
 4820TIP3    H235952   5.909   5.352   1.897  0.3250  0.1592 -1.5010
 4821TIP3   OH235953   1.355   2.530   0.445 -0.2518 -0.0690  0.3373
 4821TIP3    H135954   1.268   2.569   0.448 -0.6488 -0.9731  1.8031
 4821TIP3    H235955   1.380   2.533   0.353 -1.2697  1.3944  0.0755
 4822TIP3   OH235956   5.963   3.382  11.627 -0.5526 -0.2328  0.0085
 4822TIP3    H135957   6.017   3.441  11.681 -1.2035 -1.4509  2.1232
 4822TIP3    H235958   5.972   3.297  11.670 -1.4958 -1.1707 -1.5917
 4823TIP3   OH235959   5.971   3.867  15.239  0.5906 -0.1673 -0.2368
 4823TIP3    H135960   6.026   3.897  15.166 -0.9430  1.5354 -0.7706
 4823TIP3    H235961   6.016   3.900  15.317  0.1837  1.5832 -0.6875
 4824TIP3   OH235962   1.853   0.945  13.890  0.4930  0.5277  0.1720
 4824TIP3    H135963   1.772   0.902  13.860  0.3978  1.6390 -1.2584
 4824TIP3    H235964   1.887   0.886  13.957 -0.6645 -0.7792 -0.3253
 4825TIP3   OH235965   6.354   1.489  10.441 -0.0573 -0.0095 -0.3705
 4825TIP3    H135966   6.361   1.465  10.534 -0.1183  0.3110 -0.2828
 4825TIP3    H235967   6.293   1.424  10.405  1.6211 -1.5010 -0.6797
 4826TIP3   OH235968   2.429   0.986   4.513 -0.5768  0.2753 -0.4535
 4826TIP3    H135969   2.359   0.932   4.550  0.2060 -0.4487  0.0113
 4826TIP3    H235970   2.413   0.985   4.419 -1.5063  0.5813 -0.3081
 4827TIP3   OH235971   5.279   5.665   4.988  0.1445 -0.0027  0.0232
 4827TIP3    H135972   5.294   5.684   4.895 -0.2452 -2.0669 -0.5162
 4827TIP3    H235973   5.232   5.582   4.988  0.9254 -0.5033  2.1003
 4828TIP3   OH235974   3.185   6.617  15.240  0.2327  0.5991  0.4955
 4828TIP3    H135975   3.188   6.539  15.295  2.8534 -2.4138 -3.3475
 4828TIP3    H235976   3.269   6.660  15.252  0.4387  0.4649 -0.3711
 4829TIP3   OH235977   2.678   0.961  14.513 -0.2151  0.3799  0.3475
 4829TIP3    H135978   2.598   0.909  14.510  0.3800 -0.7141  1.8745
 4829TIP3    H235979   2.728   0.933  14.437 -0.4540 -0.3477  0.4484
 4830TIP3   OH235980   4.995   4.053  13.423  0.7237 -0.0861 -0.4908
 4830TIP3    H135981   4.974   4.003  13.345 -0.4597 -0.7707  0.2337
 4830TIP3    H235982   4.941   4.014  13.492  0.0798  1.8898  0.2021
 4831TIP3   OH235983   1.371   0.300   5.343 -0.0997 -0.3201 -0.5345
 4831TIP3    H135984   1.423   0.317   5.264  1.7158  0.6035  0.7789
 4831TIP3    H235985   1.415   0.350   5.412 -1.1971 -1.6557  1.2278
 4832TIP3   OH235986   3.974   4.627   2.436  0.1808 -0.5114  0.2000
 4832TIP3    H135987   4.021   4.599   2.357  0.4717  0.9888 -0.2042
 4832TIP3    H235988   3.887   4.653   2.404 -0.1553 -1.1354  0.5911
 4833TIP3   OH235989   6.334   4.831   0.445 -0.5422  0.4274  0.0466
 4833TIP3    H135990   6.247   4.869   0.455  0.0505  2.0484 -0.5186
 4833TIP3    H235991   6.335   4.797   0.355 -0.9764 -0.7096  0.4562
 4834TIP3   OH235992   1.068   6.117  16.513 -0.4580  0.6752  0.2117
 4834TIP3    H135993   1.073   6.056  16.440  1.0453  1.1157 -0.0980
 4834TIP3    H235994   1.050   6.062  16.589  0.7023 -0.1663 -0.0888
 4835TIP3   OH235995   0.481   5.299  13.977  0.3493 -0.4809 -0.0174
 4835TIP3    H135996   0.512   5.265  13.893 -1.3392 -1.3283 -0.3542
 4835TIP3    H235997   0.406   5.243  13.999 -1.3720  1.8334  0.3623
 4836TIP3   OH235998   1.031   0.306  14.029 -0.2248  0.5600 -0.6486
 4836TIP3    H135999   1.080   0.320  14.110 -0.0925  0.7213 -0.7578
 4836TIP3    H236000   1.098   0.284  13.963 -0.5104 -2.5359 -0.0869
 4837TIP3   OH236001   3.155   1.362  13.537  0.1889 -0.5650  0.3589
 4837TIP3    H136002   3.132   1.444  13.580  0.4715 -0.6336  0.6514
 4837TIP3    H236003   3.139   1.295  13.604  0.4040 -0.6973  0.2785
 4838TIP3   OH236004   4.358   5.884   3.676  1.0238  0.1468  0.2487
 4838TIP3    H136005   4.450   5.909   3.677  1.2551 -0.6880  0.7364
 4838TIP3    H236006   4.329   5.899   3.766  0.3476  1.5390 -0.1649
 4839TIP3   OH236007   2.661   5.342   0.527  0.1254 -0.2190  0.4252
 4839TIP3    H136008   2.677   5.255   0.565  1.0631  0.6677  2.1691
 4839TIP3    H236009   2.580   5.372   0.570 -1.1213 -0.8391 -1.3745
 4840TIP3   OH236010   1.672   5.368  14.167 -0.4595 -0.0359 -0.0785
 4840TIP3    H136011   1.640   5.447  14.123  0.4219 -0.4127 -1.4592
 4840TIP3    H236012   1.739   5.399  14.228 -3.0860  0.7357  2.6559
 4841TIP3   OH236013   4.837   5.493  16.485 -0.2355  0.1593 -0.0605
 4841TIP3    H136014   4.889   5.566  16.521  0.1134 -0.7559  1.3789
 4841TIP3    H236015   4.751   5.531  16.468 -0.3811  0.6963  1.6708
 4842TIP3   OH236016   6.813   4.761   2.734 -0.0703 -0.4269  0.2353
 4842TIP3    H136017   6.761   4.690   2.696  0.0831 -0.3632 -0.0956
 4842TIP3    H236018   6.781   4.840   2.690 -0.6405 -0.2163  1.0178
 4843TIP3   OH236019   3.615   1.803  13.436  0.4261  0.1858 -0.0276
 4843TIP3    H136020   3.579   1.722  13.474 -2.4470  1.1414 -0.4983
 4843TIP3    H236021   3.641   1.855  13.511  0.7204 -0.4784  0.3444
 4844TIP3   OH236022   5.678   5.263  14.769 -0.4030 -0.2825 -0.4325
 4844TIP3    H136023   5.702   5.354  14.787 -0.5224 -0.0682 -1.3402
 4844TIP3    H236024   5.593   5.268  14.726  0.3409 -0.7147 -2.0022
 4845TIP3   OH236025   3.515   2.449  17.033 -0.0675 -0.5579  0.2405
 4845TIP3    H136026   3.534   2.355  17.031 -0.8285 -0.7076 -0.9096
 4845TIP3    H236027   3.593   2.490  16.996  0.3493 -0.6981  0.9273
 4846TIP3   OH236028   1.313   2.229  11.490 -1.0831 -0.1436  0.1163
 4846TIP3    H136029   1.401   2.233  11.451 -1.7143  2.8256 -1.3313
 4846TIP3    H236030   1.329   2.210  11.583  0.9749 -0.9225 -0.3349
 4847TIP3   OH236031   1.912   4.431   3.716  0.0727 -0.3348 -0.3599
 4847TIP3    H136032   1.825   4.472   3.721 -1.2568 -2.4212 -3.3403
 4847TIP3    H236033   1.921   4.383   3.798 -1.5460  0.0648  0.0849
 4848TIP3   OH236034   0.018   3.490  12.954 -0.3891 -0.2159 -0.2464
 4848TIP3    H136035  -0.004   3.491  13.047 -0.8996  1.5277 -0.3458
 4848TIP3    H236036   0.065   3.572  12.939  0.1333 -0.6959 -1.4391
 4849TIP3   OH236037   6.237   0.854   5.220  0.2190  0.0352 -0.5702
 4849TIP3    H136038   6.224   0.867   5.126  3.1072 -0.6417 -1.1420
 4849TIP3    H236039   6.332   0.851   5.232 -0.0557 -1.0621  2.2182
 4850TIP3   OH236040   0.838   6.111  15.261 -0.0783 -0.2163  0.1832
 4850TIP3    H136041   0.874   6.062  15.335 -0.3960  2.8257  2.5407
 4850TIP3    H236042   0.876   6.069  15.184  0.9915 -2.9889  2.0673
 4851TIP3   OH236043   4.942   5.472  13.563 -0.5624  0.0994 -0.4745
 4851TIP3    H136044   5.028   5.507  13.590  0.1605 -2.4069  0.7306
 4851TIP3    H236045   4.954   5.449  13.470 -0.6987  1.8597 -0.9643
 4852TIP3   OH236046   5.741   4.160   5.636  0.4533 -0.0798  0.3827
 4852TIP3    H136047   5.835   4.142   5.634  0.0606 -2.7295  1.5802
 4852TIP3    H236048   5.715   4.142   5.726 -1.1719  0.9590  0.1659
 4853TIP3   OH236049   5.780   6.516  16.674  0.1636  0.1142  0.0563
 4853TIP3    H136050   5.727   6.436  16.676  1.4189 -0.7851 -0.6074
 4853TIP3    H236051   5.836   6.508  16.752 -1.1990  1.4702  1.2327
 4854TIP3   OH236052   6.368   2.228  13.904  0.1511  0.0706  0.2173
 4854TIP3    H136053   6.461   2.222  13.928 -0.1923 -1.8165  1.2693
 4854TIP3    H236054   6.366   2.210  13.810  0.7494 -1.1569  0.4269
 4855TIP3   OH236055   5.963   2.659   2.089 -0.1489  0.0288  0.2263
 4855TIP3    H136056   5.962   2.607   2.009  0.4767 -0.6812  0.6772
 4855TIP3    H236057   6.046   2.706   2.086 -0.2707  0.2517  0.3026
 4856TIP3   OH236058   6.726   6.299   1.181 -0.0312  0.1415  0.0619
 4856TIP3    H136059   6.741   6.205   1.192 -1.3073  0.0291  0.9748
 4856TIP3    H236060   6.705   6.309   1.089 -2.6257 -0.9105  0.4518
 4857TIP3   OH236061   5.486   4.510  14.262 -0.3666  0.3509 -0.1374
 4857TIP3    H136062   5.480   4.471  14.349  2.0440 -2.0927 -0.9334
 4857TIP3    H236063   5.404   4.484  14.218 -0.4807 -0.5594  0.5917
 4858TIP3   OH236064   1.306   0.146  11.097 -1.0476 -0.0525  0.0159
 4858TIP3    H136065   1.383   0.120  11.148 -0.3933  3.2484  0.9782
 4858TIP3    H236066   1.341   0.171  11.012 -1.2218  0.2916  0.0442
 4859TIP3   OH236067   6.117   5.109   0.932 -0.1537  0.5195 -0.1807
 4859TIP3    H136068   6.072   5.081   1.012 -0.5965  1.3586 -0.1209
 4859TIP3    H236069   6.104   5.037   0.871 -1.0985  0.5017  0.0239
 4860TIP3   OH236070   3.833   1.512   2.625 -0.1656  0.8292 -0.1036
 4860TIP3    H136071   3.896   1.542   2.689  0.5000 -0.6042 -0.0507
 4860TIP3    H236072   3.886   1.480   2.552 -0.8732  1.0050 -0.7108
 4861TIP3   OH236073   1.439   0.650   3.179  0.6475 -0.0647  0.2715
 4861TIP3    H136074   1.409   0.588   3.245  0.4832 -1.8048 -1.3809
 4861TIP3    H236075   1.363   0.666   3.124  1.3778 -0.4510 -0.8737
 4862TIP3   OH236076   5.794   1.929  15.940  0.3415  0.1771  0.3155
 4862TIP3    H136077   5.746   2.007  15.914  0.5143  0.0469 -0.4053
 4862TIP3    H236078   5.864   1.920  15.876 -0.7784 -1.5946 -0.7424
 4863TIP3   OH236079   0.196   5.297   5.419 -0.1837  0.3412  0.0078
 4863TIP3    H136080   0.199   5.201   5.420  0.2818  0.3553  0.4342
 4863TIP3    H236081   0.112   5.319   5.460 -0.4150  0.1186 -0.3357
 4864TIP3   OH236082   6.785   5.775   4.333  0.1318 -0.3344 -0.7033
 4864TIP3    H136083   6.830   5.755   4.415 -0.5822 -0.6700 -0.3821
 4864TIP3    H236084   6.744   5.692   4.307 -2.9271  0.5765  0.6879
 4865TIP3   OH236085   4.583   5.616   0.588  0.5427 -0.2969 -0.0942
 4865TIP3    H136086   4.673   5.602   0.616  0.6723 -1.6248 -1.0963
 4865TIP3    H236087   4.587   5.621   0.492 -0.4842 -0.8367 -0.1876
 4866TIP3   OH236088   4.976   4.543  16.628  0.1165 -0.1339  0.3093
 4866TIP3    H136089   4.930   4.467  16.593  0.6170  0.7197 -2.4705
 4866TIP3    H236090   5.058   4.508  16.663 -0.1334 -0.9827  0.0468
 4867TIP3   OH236091   1.771   4.767   2.768  0.6997 -0.3386  0.3171
 4867TIP3    H136092   1.755   4.840   2.708  0.8585 -1.3675 -1.0133
 4867TIP3    H236093   1.684   4.743   2.799  0.6146  0.2005  0.5081
 4868TIP3   OH236094   1.824   4.655   0.427 -0.7424 -0.0974  0.0021
 4868TIP3    H136095   1.810   4.704   0.508  0.5508 -0.3230  0.3896
 4868TIP3    H236096   1.741   4.661   0.380 -1.3924  0.3618  1.1723
 4869TIP3   OH236097   4.790   1.759   4.492 -0.1354 -0.2044  0.0913
 4869TIP3    H136098   4.773   1.714   4.409  1.0476 -1.4926  0.5119
 4869TIP3    H236099   4.748   1.845   4.482 -1.2741 -0.8808 -1.2660
 4870TIP3   OH236100   2.330   6.228   0.111 -0.4831  0.1645  0.3245
 4870TIP3    H136101   2.237   6.245   0.098 -0.6832  0.3181  1.8587
 4870TIP3    H236102   2.337   6.133   0.114 -0.0935 -0.0390 -2.9575
 4871TIP3   OH236103   2.252   0.799   4.634  0.4308 -0.0438 -0.5285
 4871TIP3    H136104   2.295   0.716   4.655 -1.5794 -0.6675  1.5749
 4871TIP3    H236105   2.168   0.774   4.596  0.4639  1.0798 -1.3999
 4872TIP3   OH236106   3.396   0.137  12.069 -0.0051  0.5389 -0.1352
 4872TIP3    H136107   3.475   0.182  12.038  1.3962 -0.4884  1.6709
 4872TIP3    H236108   3.340   0.207  12.103  0.9387  1.1815  0.1661
 4873TIP3   OH236109   1.643   3.476   4.488  0.8944  0.5358  0.1035
 4873TIP3    H136110   1.562   3.489   4.538  1.8301  0.2123  1.7605
 4873TIP3    H236111   1.639   3.384   4.460  1.0592  0.2668  0.9197
 4874TIP3   OH236112   4.533   2.449  15.157 -0.1119 -0.0698 -0.0587
 4874TIP3    H136113   4.450   2.494  15.173 -0.7871 -0.2288 -2.6930
 4874TIP3    H236114   4.556   2.412  15.242 -2.5926  0.2107  0.8414
 4875TIP3   OH236115   0.872   5.243  12.097  0.9384  0.2983  1.1046
 4875TIP3    H136116   0.881   5.203  12.184 -2.4985 -0.5975  1.2321
 4875TIP3    H236117   0.815   5.318  12.111 -1.8986 -1.3366 -0.5427
 4876TIP3   OH236118   4.001   2.609   1.261  0.2897  0.0443  0.4283
 4876TIP3    H136119   3.915   2.568   1.268  0.1015  0.6068  1.6731
 4876TIP3    H236120   3.984   2.703   1.264  0.8288  0.2164 -1.0021
 4877TIP3   OH236121   6.803   4.358  12.118  0.3355  0.2139  0.4891
 4877TIP3    H136122   6.755   4.308  12.053  0.8235  1.2413 -0.6962
 4877TIP3    H236123   6.825   4.294  12.186 -1.5669 -0.5409  0.4611
 4878TIP3   OH236124   4.316   1.817   4.330 -0.1771 -0.1458 -0.1502
 4878TIP3    H136125   4.254   1.885   4.301  0.0144 -0.3309 -1.0090
 4878TIP3    H236126   4.263   1.738   4.339  0.0638 -0.5414 -1.7999
 4879TIP3   OH236127   4.511   4.259  14.007  0.3653  0.4009 -0.3197
 4879TIP3    H136128   4.492   4.181  13.955  0.4836  0.5774 -0.6295
 4879TIP3    H236129   4.435   4.316  13.993 -0.0790  0.0310  0.5126
 4880TIP3   OH236130   0.763   2.047  14.979 -0.0197  0.8478  0.4523
 4880TIP3    H136131   0.775   1.982  14.910 -2.1202 -1.2555  1.9111
 4880TIP3    H236132   0.843   2.041  15.032 -0.0585 -0.3957  0.3962
 4881TIP3   OH236133   3.369   3.057  12.772 -0.3155  0.3345 -0.4457
 4881TIP3    H136134   3.337   3.136  12.729 -0.2350  0.5400 -0.1329
 4881TIP3    H236135   3.334   3.062  12.861  1.1526  0.9311  0.1346
 4882TIP3   OH236136   1.727   5.224  12.812  0.7883  0.0554 -0.7637
 4882TIP3    H136137   1.780   5.304  12.813 -0.7433  1.1487  0.7813
 4882TIP3    H236138   1.674   5.230  12.891 -0.6704 -1.6309 -1.5381
 4883TIP3   OH236139   4.982   3.965  16.375  0.1691 -0.1754 -0.3374
 4883TIP3    H136140   5.032   4.021  16.433  0.1053  0.2207 -0.6607
 4883TIP3    H236141   4.896   4.006  16.369 -0.1956 -0.8421  0.2002
 4884TIP3   OH236142   1.582   6.147   4.866 -0.0504 -0.1954  0.1013
 4884TIP3    H136143   1.584   6.122   4.959  0.9892 -0.5952 -0.0160
 4884TIP3    H236144   1.630   6.077   4.822  0.9667  0.8617 -0.5276
 4885TIP3   OH236145   4.840   3.203  12.733 -0.0803 -0.4168 -0.1775
 4885TIP3    H136146   4.800   3.264  12.671  0.0918  0.2965  0.4053
 4885TIP3    H236147   4.924   3.243  12.756 -1.2152  0.6621  2.4766
 4886TIP3   OH236148   0.129   6.630  13.805  0.5876  0.1601 -0.2453
 4886TIP3    H136149   0.058   6.668  13.753  1.7625 -1.1002 -3.0144
 4886TIP3    H236150   0.166   6.704  13.852 -0.0548  1.6165 -1.8849
 4887TIP3   OH236151   2.040   6.027   2.248  0.1954  0.4146 -0.2958
 4887TIP3    H136152   1.948   6.001   2.243  0.2044  0.4994 -3.8830
 4887TIP3    H236153   2.087   5.944   2.256 -0.1467  0.2381 -0.0701
 4888TIP3   OH236154   6.257   2.300   1.856 -0.3654 -0.4211  0.1121
 4888TIP3    H136155   6.243   2.255   1.939 -0.4328 -1.6141 -0.5366
 4888TIP3    H236156   6.318   2.370   1.877 -0.1625 -0.8863  1.1133
 4889TIP3   OH236157   0.703   4.690  14.397  0.0102 -0.3384  0.4923
 4889TIP3    H136158   0.771   4.757  14.389  0.2654 -0.6870 -0.3069
 4889TIP3    H236159   0.698   4.672  14.491 -0.9636  1.7266  0.9109
 4890TIP3   OH236160   6.287   3.152  11.142 -0.0725 -0.1354 -0.0132
 4890TIP3    H136161   6.297   3.225  11.204 -1.4038 -0.2140  0.3354
 4890TIP3    H236162   6.322   3.186  11.060 -0.3920  0.8056  0.2206
 4891TIP3   OH236163   0.485   5.927   0.502 -0.1397 -0.5060  0.6688
 4891TIP3    H136164   0.520   5.859   0.444 -0.3506 -1.7581  1.9520
 4891TIP3    H236165   0.456   5.996   0.443  1.6364 -0.7754 -0.6007
 4892TIP3   OH236166   4.660   5.265   6.674 -0.1615 -0.4131  0.4071
 4892TIP3    H136167   4.655   5.292   6.765 -2.9567 -1.0041  0.5140
 4892TIP3    H236168   4.572   5.279   6.639 -0.2980 -3.8295 -1.0715
 4893TIP3   OH236169   1.374   2.457   0.162  0.1540  0.1922  0.1759
 4893TIP3    H136170   1.281   2.469   0.142  0.2686 -0.7517 -1.0838
 4893TIP3    H236171   1.416   2.537   0.129  0.0206 -0.2775 -1.2339
 4894TIP3   OH236172   5.759   6.137   2.472 -0.6030  0.6429 -0.0451
 4894TIP3    H136173   5.683   6.095   2.511 -1.4092 -0.3878 -2.5087
 4894TIP3    H236174   5.724   6.213   2.425  0.0692  0.8488 -0.2305
 4895TIP3   OH236175   2.044   3.272   6.856 -0.1340  0.2200 -0.1340
 4895TIP3    H136176   1.993   3.262   6.937 -1.3957  0.7812 -0.8419
 4895TIP3    H236177   2.117   3.329   6.882  0.0511 -0.4285  0.8451
 4896TIP3   OH236178   1.223   6.094   2.364  1.0614  0.3072 -0.2475
 4896TIP3    H136179   1.153   6.127   2.307  0.2980  2.2000  1.6511
 4896TIP3    H236180   1.232   6.161   2.432  1.4731 -2.0695  2.2219
 4897TIP3   OH236181   1.997   2.822  15.217  0.4400  0.2260  0.1480
 4897TIP3    H136182   1.918   2.782  15.179 -0.4923  0.1948  1.9975
 4897TIP3    H236183   2.061   2.819  15.146 -1.8447  2.3040 -2.2357
 4898TIP3   OH236184   1.077   3.396   4.068  0.3944  0.3830 -0.5419
 4898TIP3    H136185   1.021   3.363   3.998 -1.8652  1.2292  0.7601
 4898TIP3    H236186   1.153   3.434   4.022 -0.1390 -0.6761 -2.3841
 4899TIP3   OH236187   4.375   0.361   1.684  0.2983  0.5824 -0.1930
 4899TIP3    H136188   4.387   0.455   1.680 -0.4914  0.6817 -3.4014
 4899TIP3    H236189   4.355   0.336   1.594  0.5397 -2.6722  0.5262
 4900TIP3   OH236190   0.727   0.612   4.876 -0.3270 -0.0438  0.3329
 4900TIP3    H136191   0.656   0.646   4.822 -0.2019  0.4891  0.5042
 4900TIP3    H236192   0.687   0.597   4.962 -0.4427 -0.5764  0.1945
 4901TIP3   OH236193   3.546   1.155   1.147  0.4060  0.4183  0.4352
 4901TIP3    H136194   3.518   1.113   1.066  0.8649  0.9482 -0.0112
 4901TIP3    H236195   3.465   1.176   1.193  0.1303  0.3855 -0.0323
 4902TIP3   OH236196   6.015   1.926   0.798 -0.4594  0.2228  0.8779
 4902TIP3    H136197   5.935   1.978   0.789  0.4842  1.8024  1.2113
 4902TIP3    H236198   6.083   1.980   0.757  0.6113 -0.6521  1.4501
 4903TIP3   OH236199   6.638   3.373   1.623  0.2432  0.1440 -0.1509
 4903TIP3    H136200   6.656   3.465   1.640  0.8311  0.0121 -0.0355
 4903TIP3    H236201   6.546   3.362   1.648 -0.0198  0.8370 -0.7755
 4904TIP3   OH236202   1.606   0.931   4.776 -0.4924  0.3993 -0.0658
 4904TIP3    H136203   1.676   0.997   4.773  0.5313 -0.6810 -1.5786
 4904TIP3    H236204   1.619   0.886   4.860  0.2340  0.6439 -0.0402
 4905TIP3   OH236205   1.313   1.191  13.415  0.3495  0.1897  0.6454
 4905TIP3    H136206   1.402   1.204  13.383  0.4172 -1.8693 -0.1739
 4905TIP3    H236207   1.310   1.238  13.498  1.0825  3.2282 -0.9136
 4906TIP3   OH236208   5.528   5.075   5.578 -0.2033  0.1419 -0.1643
 4906TIP3    H136209   5.614   5.053   5.614  0.0888  0.7147 -0.4954
 4906TIP3    H236210   5.516   5.017   5.503 -0.3984 -0.3972  0.2808
 4907TIP3   OH236211   3.213   2.516  13.936  0.2896 -0.1197  0.6571
 4907TIP3    H136212   3.303   2.538  13.956  0.8461 -0.8032 -0.9096
 4907TIP3    H236213   3.176   2.597  13.900  0.1081  0.2965  1.7330
 4908TIP3   OH236214   5.968   2.488  16.229  0.3086  0.0193  0.4834
 4908TIP3    H136215   6.029   2.425  16.190 -1.4358 -1.7973  0.5011
 4908TIP3    H236216   5.950   2.452  16.316 -0.6704  0.5734  0.5203
 4909TIP3   OH236217   1.142   5.224  13.090  0.3187  0.0986 -0.3371
 4909TIP3    H136218   1.176   5.280  13.019  0.0935 -0.1929 -0.6773
 4909TIP3    H236219   1.154   5.135  13.058 -0.3222 -0.0207 -0.2526
 4910TIP3   OH236220   2.225   1.210   1.851 -0.0587  0.0586 -0.2718
 4910TIP3    H136221   2.279   1.172   1.920  0.5689  1.8979  0.3166
 4910TIP3    H236222   2.169   1.273   1.896 -0.7032  0.2165 -1.2557
 4911TIP3   OH236223   1.058   1.975  15.009  0.3590 -0.5255  0.3002
 4911TIP3    H136224   1.064   2.071  15.007  1.3042 -0.5816 -1.7127
 4911TIP3    H236225   1.133   1.948  15.062  0.4926 -0.1770  0.2902
 4912TIP3   OH236226   3.177   0.176   2.902 -0.4224  0.1557  0.7618
 4912TIP3    H136227   3.140   0.254   2.946  0.3756  1.1599 -0.2915
 4912TIP3    H236228   3.101   0.134   2.862 -0.8083  0.7006  0.8988
 4913TIP3   OH236229   3.839   2.920  12.851  0.0847 -0.1753  0.2365
 4913TIP3    H136230   3.896   2.936  12.926 -0.4200  0.8434  0.4295
 4913TIP3    H236231   3.784   2.999  12.846 -1.7445 -1.3790  0.4549
 4914TIP3   OH236232   0.620   5.934   3.440 -0.0551  0.1814 -0.0558
 4914TIP3    H136233   0.690   5.868   3.442 -1.0149 -0.8567 -0.0044
 4914TIP3    H236234   0.666   6.016   3.425  1.2001 -0.4561  0.1531
 4915TIP3   OH236235   1.325   6.654   4.183  0.1535  0.4374  0.3643
 4915TIP3    H136236   1.268   6.616   4.116 -0.2943  0.8844  0.4841
 4915TIP3    H236237   1.325   6.748   4.165  4.1121  0.1683 -2.1826
 4916TIP3   OH236238   5.938   3.408   1.403 -0.3824 -0.0722  0.2839
 4916TIP3    H136239   5.982   3.329   1.432  1.7630  1.0977  0.4250
 4916TIP3    H236240   5.948   3.407   1.308 -3.6208 -1.7347 -0.1791
 4917TIP3   OH236241   1.386   3.411  12.928  0.2336  0.0299  0.3417
 4917TIP3    H136242   1.478   3.416  12.903 -0.4743  0.5483 -2.4654
 4917TIP3    H236243   1.368   3.317  12.936  0.9633 -0.0751  0.8261
 4918TIP3   OH236244   1.679   0.145   3.082 -0.5028  0.1303  0.6382
 4918TIP3    H136245   1.666   0.089   3.006 -0.3157 -0.4022  0.9958
 4918TIP3    H236246   1.743   0.099   3.136 -0.4163  0.6414  0.9828
 4919TIP3   OH236247   3.142   2.180  10.838 -0.1989  0.0997 -0.0887
 4919TIP3    H136248   3.214   2.193  10.776  0.2820 -1.8186 -0.0156
 4919TIP3    H236249   3.077   2.130  10.788 -0.2845 -0.5034  0.6048
 4920TIP3   OH236250   3.586   1.102  11.667 -0.2966 -0.0892  0.7769
 4920TIP3    H136251   3.606   1.009  11.672  2.4420 -0.0830 -3.8749
 4920TIP3    H236252   3.658   1.145  11.713  0.6576 -0.3146 -0.4556
 4921TIP3   OH236253   3.803   3.710   0.065  0.2520 -0.5257 -0.2203
 4921TIP3    H136254   3.888   3.672   0.045 -0.0239 -0.2008 -2.2900
 4921TIP3    H236255   3.745   3.635   0.080  0.3254 -0.8545 -1.5095
 4922TIP3   OH236256   3.124   1.411  14.373 -0.0554 -0.4415  0.3300
 4922TIP3    H136257   3.080   1.370  14.448  1.3143 -1.6941  0.4884
 4922TIP3    H236258   3.139   1.339  14.312 -1.3095  0.5938 -1.2829
 4923TIP3   OH236259   3.335   5.145   1.760  0.0404  0.2846 -0.2602
 4923TIP3    H136260   3.289   5.221   1.725 -1.9572 -0.1960  1.1356
 4923TIP3    H236261   3.311   5.073   1.700  1.4655  0.5839 -1.2471
 4924TIP3   OH236262   4.046   6.348   0.138  0.2007 -0.0390 -0.5146
 4924TIP3    H136263   4.139   6.369   0.139  0.5535 -1.5015 -0.8056
 4924TIP3    H236264   4.011   6.395   0.063  0.2344  2.2769  0.8337
 4925TIP3   OH236265   5.978   2.093   1.170 -0.3934  0.1307  0.0206
 4925TIP3    H136266   5.923   2.077   1.246 -1.0837 -0.5185 -0.6008
 4925TIP3    H236267   6.065   2.065   1.196 -0.6561 -0.2284  0.5160
 4926TIP3   OH236268   4.729   3.123   5.631  0.4911 -0.3434 -0.6655
 4926TIP3    H136269   4.637   3.142   5.610  0.7028 -0.2634 -1.5335
 4926TIP3    H236270   4.727   3.098   5.724 -0.0183  2.4984  0.2062
 4927TIP3   OH236271   3.636   6.203   4.541 -0.0903  0.6456 -0.0516
 4927TIP3    H136272   3.560   6.148   4.521 -0.3046 -0.2222  2.7331
 4927TIP3    H236273   3.616   6.287   4.500 -2.3400  0.2779  0.1658
 4928TIP3   OH236274   4.917   0.163  17.157  0.1069 -0.2234  0.1533
 4928TIP3    H136275   4.926   0.124  17.070 -0.8153 -0.7698  0.2906
 4928TIP3    H236276   4.859   0.104  17.204 -0.9323  1.0401  0.5395
 4929TIP3   OH236277   4.921   2.891  13.127  0.4121 -0.4794  0.2977
 4929TIP3    H136278   4.857   2.886  13.198  2.0689 -1.1246  1.8254
 4929TIP3    H236279   4.896   2.969  13.077 -1.3215 -0.5079  1.0594
 4930TIP3   OH236280   4.821   4.588   4.153 -0.5833 -0.0346  0.5523
 4930TIP3    H136281   4.908   4.549   4.148 -0.8124 -0.4426 -1.0940
 4930TIP3    H236282   4.782   4.568   4.068 -2.2485  0.2302  1.2207
 4931TIP3   OH236283   2.622   0.738  15.545 -0.1067  0.3120 -0.5219
 4931TIP3    H136284   2.686   0.686  15.498 -0.3459  0.0422 -0.5514
 4931TIP3    H236285   2.613   0.695  15.630 -0.1586  0.4194 -0.4718
 4932TIP3   OH236286   5.327   0.054   3.211 -0.7584 -0.3291 -0.0752
 4932TIP3    H136287   5.342  -0.032   3.251  2.5958  0.4803  0.6721
 4932TIP3    H236288   5.305   0.111   3.284  2.3375  0.4884  0.3531
 4933TIP3   OH236289   5.180   1.794  12.588  0.0243  0.1294  0.2447
 4933TIP3    H136290   5.195   1.821  12.678  0.3568  0.4416  0.0996
 4933TIP3    H236291   5.224   1.861  12.535  1.4383 -1.0385 -0.1136
 4934TIP3   OH236292   3.183   1.253   4.993 -0.5193  0.9235  0.0675
 4934TIP3    H136293   3.271   1.277   5.023 -0.5950  0.2154  0.9107
 4934TIP3    H236294   3.125   1.315   5.037 -0.4183  1.6504 -0.8079
 4935TIP3   OH236295   0.870   3.696   5.948  0.1920 -0.4220  0.3934
 4935TIP3    H136296   0.820   3.640   5.889  0.2834 -2.0754  1.8040
 4935TIP3    H236297   0.962   3.681   5.924  0.1822 -0.3805  0.3323
 4936TIP3   OH236298   2.186   0.716   3.762 -0.3377  0.3665  0.0434
 4936TIP3    H136299   2.151   0.639   3.718 -0.6294  0.9548 -0.7932
 4936TIP3    H236300   2.171   0.788   3.700  0.6780  0.9549  0.4507
 4937TIP3   OH236301   2.323   4.898  15.007 -0.6328  0.1092  0.1400
 4937TIP3    H136302   2.339   4.983  15.048 -1.5113  0.6762 -0.6387
 4937TIP3    H236303   2.302   4.839  15.079 -0.7765  0.7469  0.6215
 4938TIP3   OH236304   1.650   6.138   3.956 -0.2196 -0.1903 -0.0497
 4938TIP3    H136305   1.672   6.049   3.983  1.9620  0.3929  0.3114
 4938TIP3    H236306   1.589   6.169   4.022 -0.4899 -1.1932  0.1844
 4939TIP3   OH236307   6.385   5.225  14.234  0.2685  0.0253  0.0264
 4939TIP3    H136308   6.475   5.194  14.221 -0.0269 -1.6538  1.6148
 4939TIP3    H236309   6.330   5.149  14.216 -0.8025  0.8063 -0.1056
 4940TIP3   OH236310   4.765   2.384  14.518  0.1689 -0.2946  0.0268
 4940TIP3    H136311   4.858   2.362  14.523  0.2930 -0.2076 -1.3438
 4940TIP3    H236312   4.749   2.442  14.592  1.2446 -0.1901  0.1880
 4941TIP3   OH236313   0.897   4.740   2.313  0.9370 -0.1033  0.2188
 4941TIP3    H136314   0.909   4.785   2.396 -1.6546  0.6580  0.2566
 4941TIP3    H236315   0.839   4.667   2.333  0.9728 -0.4217 -0.7709
 4942TIP3   OH236316   1.169   2.666  12.313 -0.5568 -0.0279 -0.0416
 4942TIP3    H136317   1.155   2.757  12.336  0.3966  0.1074  0.0316
 4942TIP3    H236318   1.260   2.662  12.285 -0.5414 -0.9973  0.1217
 4943TIP3   OH236319   1.318   2.709   0.007 -0.3405  0.2453 -0.0230
 4943TIP3    H136320   1.229   2.727   0.038 -0.2514 -0.0712  0.4309
 4943TIP3    H236321   1.318   2.737  -0.084 -0.4478  1.7647  0.4193
 4944TIP3   OH236322   1.155   0.929   0.192 -0.4837 -0.3006 -0.2486
 4944TIP3    H136323   1.158   0.845   0.147  0.5845 -0.4557  0.0693
 4944TIP3    H236324   1.220   0.983   0.146  0.2379 -0.2888  0.7268
 4945TIP3   OH236325   2.251   5.911  16.820  0.4196 -0.0047  0.2190
 4945TIP3    H136326   2.235   5.981  16.756 -0.3650  1.5115  1.9854
 4945TIP3    H236327   2.323   5.944  16.874 -0.8283  0.0804  1.9003
 4946TIP3   OH236328   2.054   6.157   2.496  0.6802  0.2205  0.2423
 4946TIP3    H136329   2.146   6.151   2.471  0.1056  0.3263 -2.1445
 4946TIP3    H236330   2.007   6.116   2.424 -1.3212  2.7180 -0.0140
 4947TIP3   OH236331   5.714   0.727  14.735  0.4901  0.3117  0.1826
 4947TIP3    H136332   5.778   0.700  14.801  0.2926 -1.1846 -0.2146
 4947TIP3    H236333   5.657   0.651  14.724 -1.0623  1.4340  0.1471
 4948TIP3   OH236334   2.889   0.780  16.231 -0.4493 -0.2990  0.1122
 4948TIP3    H136335   2.813   0.817  16.276 -0.4012 -0.1498  0.0717
 4948TIP3    H236336   2.902   0.694  16.271  0.9571  0.6985  1.9731
 4949TIP3   OH236337   6.171   2.823   1.219 -0.4630  0.1475 -0.0281
 4949TIP3    H136338   6.143   2.761   1.152 -0.1826 -0.5775  0.4975
 4949TIP3    H236339   6.251   2.862   1.184  0.1083 -0.7940  0.1971
 4950TIP3   OH236340   0.192   6.022   6.041  0.1834  0.5856 -0.0870
 4950TIP3    H136341   0.217   6.016   6.133 -0.2747  2.0669  0.1660
 4950TIP3    H236342   0.153   6.109   6.033  0.0459  0.4047 -1.6447
 4951TIP3   OH236343   3.535   4.289  17.043 -0.9341 -0.2184 -0.2795
 4951TIP3    H136344   3.467   4.320  17.103 -0.7967 -1.0655  0.3490
 4951TIP3    H236345   3.488   4.250  16.970 -1.1641 -1.1681  0.3434
 4952TIP3   OH236346   1.211   0.652   3.043  0.3289 -0.2599  0.2072
 4952TIP3    H136347   1.146   0.584   3.055 -0.2346  0.3216  0.5344
 4952TIP3    H236348   1.203   0.677   2.951 -0.1560  0.0474  0.3293
 4953TIP3   OH236349   4.426   2.737  15.273 -0.1852 -0.0788 -0.0077
 4953TIP3    H136350   4.371   2.814  15.288  0.8284  0.8140 -0.7567
 4953TIP3    H236351   4.371   2.678  15.221 -0.4542  0.7802 -0.7126
 4954TIP3   OH236352   0.473   4.453   6.135  0.1706  0.6807 -0.2634
 4954TIP3    H136353   0.508   4.364   6.127 -1.6512 -0.1595  0.4802
 4954TIP3    H236354   0.378   4.441   6.135 -0.1205  2.6950 -0.6460
 4955TIP3   OH236355   2.813   5.225  12.084  0.1073 -0.0465  0.5409
 4955TIP3    H136356   2.731   5.273  12.098  0.3523  0.6201 -0.2366
 4955TIP3    H236357   2.867   5.247  12.160  0.1951  0.8821  0.2229
 4956TIP3   OH236358   2.875   1.409  12.356  0.2958 -0.2273  0.4096
 4956TIP3    H136359   2.856   1.383  12.266 -2.0272  0.7171  0.5709
 4956TIP3    H236360   2.898   1.502  12.350  0.2004 -0.1780  0.7869
 4957TIP3   OH236361   1.693   5.516   6.153  0.1993 -0.1928 -0.0700
 4957TIP3    H136362   1.719   5.436   6.108 -0.5043 -0.2222 -0.4302
 4957TIP3    H236363   1.605   5.498   6.186  0.8023 -0.2677  1.5593
 4958TIP3   OH236364   0.128   4.641  12.571 -0.2089 -0.1920  0.2638
 4958TIP3    H136365   0.103   4.721  12.616  1.1823 -0.4271  1.5072
 4958TIP3    H236366   0.223   4.639  12.574 -0.2000 -2.7741  1.9570
 4959TIP3   OH236367   3.822   2.315  15.003 -0.3364  0.7113 -0.2592
 4959TIP3    H136368   3.830   2.355  14.916  1.0905 -0.0927 -0.5272
 4959TIP3    H236369   3.782   2.230  14.985 -0.5715  0.7800 -0.0567
 4960TIP3   OH236370   0.557   5.290   2.088 -0.3187  0.4771 -0.5476
 4960TIP3    H136371   0.652   5.288   2.092 -0.2515 -0.2342 -1.8798
 4960TIP3    H236372   0.530   5.330   2.170  1.0902 -0.0661  0.2100
 4961TIP3   OH236373   6.377   2.819  16.317  0.0412 -0.0997  0.0982
 4961TIP3    H136374   6.355   2.907  16.348  0.5377 -0.1595  0.6247
 4961TIP3    H236375   6.350   2.761  16.388 -0.7368 -0.4273 -0.4460
 4962TIP3   OH236376   6.396   3.557  12.853  0.0781  0.7694  0.2176
 4962TIP3    H136377   6.323   3.531  12.909  0.2801  0.7863  0.4896
 4962TIP3    H236378   6.389   3.652  12.846 -2.1239  0.5446 -2.7520
 4963TIP3   OH236379   6.666   5.567   5.652  0.1161  0.4224 -0.9367
 4963TIP3    H136380   6.578   5.531   5.660  0.5162 -0.4473 -0.3955
 4963TIP3    H236381   6.657   5.636   5.586 -0.8710  0.0398 -1.2195
 4964TIP3   OH236382   0.401   1.739   3.062 -0.1786  0.3332  0.4103
 4964TIP3    H136383   0.434   1.666   3.009  2.0181  1.0814  0.6356
 4964TIP3    H236384   0.392   1.811   3.000 -0.1993  0.4647  0.5665
 4965TIP3   OH236385   1.316   3.693   3.785 -0.6749  0.1395  0.1843
 4965TIP3    H136386   1.271   3.609   3.788 -2.0453  0.8186 -0.7417
 4965TIP3    H236387   1.359   3.695   3.699 -0.2607  0.2073  0.3879
 4966TIP3   OH236388   3.454   2.173   3.562 -0.7959 -0.2606 -1.2522
 4966TIP3    H136389   3.454   2.129   3.477 -4.0069 -2.5707 -0.2681
 4966TIP3    H236390   3.383   2.237   3.555  1.2994  2.2160 -1.3671
 4967TIP3   OH236391   2.362   6.078   5.729 -0.1880 -0.2268  0.0841
 4967TIP3    H136392   2.337   6.166   5.754 -2.4152 -0.8912  0.3898
 4967TIP3    H236393   2.398   6.087   5.641 -0.3677  0.9819  0.1231
 4968TIP3   OH236394   4.940   3.462  12.650  0.2828 -0.1617  0.4578
 4968TIP3    H136395   4.952   3.542  12.703  0.0404 -1.0914  1.9859
 4968TIP3    H236396   4.892   3.492  12.573  1.3610  1.3981  0.3421
 4969TIP3   OH236397   3.898   4.324   6.906 -0.2553 -0.1751  0.7196
 4969TIP3    H136398   3.991   4.341   6.915 -0.4456  1.2738  0.2437
 4969TIP3    H236399   3.893   4.248   6.848  0.6133 -0.3491  0.8556
 4970TIP3   OH236400   4.817   2.930  11.001  0.2388 -0.0275 -0.8904
 4970TIP3    H136401   4.723   2.921  11.020  0.5315  0.8299  1.3361
 4970TIP3    H236402   4.829   2.887  10.917 -2.4910  1.5206 -2.2214
 4971TIP3   OH236403   0.682   3.223  11.223 -0.2225 -0.3365  0.0453
 4971TIP3    H136404   0.677   3.231  11.128 -1.5425 -0.0858  0.1137
 4971TIP3    H236405   0.678   3.313  11.255 -0.8346 -0.4710  0.3615
 4972TIP3   OH236406   3.587   1.550   5.553 -0.0015  0.0560 -0.3249
 4972TIP3    H136407   3.610   1.480   5.491  1.1339 -1.1622  1.3926
 4972TIP3    H236408   3.515   1.597   5.510  0.8021 -0.6593 -2.5982
 4973TIP3   OH236409   4.207   1.073   1.949 -0.1605 -0.1247  0.2795
 4973TIP3    H136410   4.204   0.999   1.889  0.9506  0.5106 -0.6053
 4973TIP3    H236411   4.297   1.074   1.982 -0.0291  1.0679 -0.0591
 4974TIP3   OH236412   1.828   5.477  12.730  0.1682  0.9578  0.2504
 4974TIP3    H136413   1.914   5.490  12.768  0.1682  0.6275  0.3624
 4974TIP3    H236414   1.830   5.526  12.647  1.6232 -1.7753 -1.4668
 4975TIP3   OH236415   0.058   4.630  14.125  0.0219 -0.1965  0.1976
 4975TIP3    H136416   0.017   4.708  14.162 -1.3128  0.0385 -1.6128
 4975TIP3    H236417   0.021   4.557  14.176 -1.6286  0.1205 -0.4822
 4976TIP3   OH236418   6.154   6.640  16.686 -0.5778  0.0336 -0.1761
 4976TIP3    H136419   6.133   6.586  16.761 -0.1436 -0.2463 -0.2539
 4976TIP3    H236420   6.079   6.699  16.677 -0.0819  0.9266  1.2470
 4977TIP3   OH236421   2.628   0.235  15.058 -0.0073 -0.0996 -0.2792
 4977TIP3    H136422   2.641   0.182  14.979  0.7394 -2.5651  1.3881
 4977TIP3    H236423   2.627   0.172  15.130 -2.8873  1.7824  1.5676
 4978TIP3   OH236424   0.571   5.710  14.553 -0.5333 -0.5179 -0.2806
 4978TIP3    H136425   0.488   5.679  14.517 -1.0707  0.8251 -0.2841
 4978TIP3    H236426   0.547   5.750  14.637  0.3383 -1.3971  0.4144
 4979TIP3   OH236427   1.582   4.635   0.344  0.5675 -0.2731  0.8623
 4979TIP3    H136428   1.579   4.553   0.294  1.3510 -1.2750  2.3951
 4979TIP3    H236429   1.490   4.655   0.362  0.4256 -2.1167  2.4643
 4980TIP3   OH236430   6.172   5.277  15.947 -0.0222  0.2598  0.5280
 4980TIP3    H136431   6.252   5.226  15.936 -0.2985 -0.3801  1.3872
 4980TIP3    H236432   6.142   5.293  15.857  1.6344  1.4690  0.1330
 4981TIP3   OH236433   0.189   2.440  16.029 -0.3165 -0.7988 -0.4565
 4981TIP3    H136434   0.224   2.358  16.063  0.1095 -0.0822  0.8832
 4981TIP3    H236435   0.266   2.488  15.999  0.1947  1.3040  3.6211
 4982TIP3   OH236436   6.221   5.964   1.293 -0.1255 -0.1395  0.1672
 4982TIP3    H136437   6.152   5.977   1.228  2.0857  1.8835 -1.9639
 4982TIP3    H236438   6.269   5.886   1.263 -0.4304 -0.5342  0.6817
 4983TIP3   OH236439   3.677   3.584   1.421  0.1659 -0.1447 -0.1326
 4983TIP3    H136440   3.740   3.576   1.493  0.5579  0.6539 -0.3740
 4983TIP3    H236441   3.730   3.586   1.342 -0.0997  1.2215 -0.2987
 4984TIP3   OH236442   4.636   1.075   0.583  0.4818 -0.1277  0.1213
 4984TIP3    H136443   4.586   1.046   0.658 -0.3327 -3.1604 -1.4529
 4984TIP3    H236444   4.675   0.995   0.547  1.4083  1.2818 -2.2704
 4985TIP3   OH236445   4.978   0.996   0.356  0.3109  0.0173  0.5490
 4985TIP3    H136446   4.953   1.041   0.275  0.0624 -1.4467 -0.2128
 4985TIP3    H236447   5.069   1.021   0.369  0.7081 -0.6143 -0.8191
 4986TIP3   OH236448   4.736   5.114   0.259 -0.2135  0.2150 -0.3347
 4986TIP3    H136449   4.699   5.041   0.310 -0.6721 -0.9633 -2.2302
 4986TIP3    H236450   4.687   5.190   0.289  1.3552  0.1471  2.8542
 4987TIP3   OH236451   2.860   6.252  12.359 -0.0366  0.3862 -0.3034
 4987TIP3    H136452   2.932   6.296  12.314  1.9092 -2.0212  0.2238
 4987TIP3    H236453   2.813   6.323  12.404  2.3134  2.0180 -0.2393
 4988TIP3   OH236454   2.158   3.437  12.296  0.0103  0.5358  0.6357
 4988TIP3    H136455   2.191   3.368  12.353  1.5906 -0.3819 -1.2796
 4988TIP3    H236456   2.092   3.394  12.242  1.9959 -0.0003 -1.5566
 4989TIP3   OH236457   0.535   6.470   5.772 -0.1932  0.3275 -0.6247
 4989TIP3    H136458   0.559   6.407   5.704  1.0298  0.1916 -0.0921
 4989TIP3    H236459   0.610   6.528   5.778 -0.8842  1.2091 -0.3722
 4990TIP3   OH236460   4.775   2.745  11.510 -0.2810  0.4900 -0.5591
 4990TIP3    H136461   4.805   2.822  11.462 -0.0403  1.2201  0.7217
 4990TIP3    H236462   4.790   2.672  11.450 -0.5883  1.4342 -1.8313
 4991TIP3   OH236463   5.045   4.998  12.373  0.2874  0.2690  0.1401
 4991TIP3    H136464   5.132   5.031  12.351  0.5245 -0.5010 -0.0827
 4991TIP3    H236465   5.004   5.070  12.421  0.2306  1.5061 -1.6358
 4992TIP3   OH236466   0.419   5.098  16.773 -0.4674 -0.6481 -0.2143
 4992TIP3    H136467   0.342   5.044  16.789  0.1304 -1.0656  1.4432
 4992TIP3    H236468   0.389   5.187  16.791 -0.1060 -0.9970  2.4995
 4993TIP3   OH236469   4.991   6.389  11.145  0.6421  0.3959 -0.8056
 4993TIP3    H136470   5.002   6.410  11.237  0.7700 -1.8577 -0.2531
 4993TIP3    H236471   5.057   6.322  11.127  0.4158  0.5770 -2.4528
 4994TIP3   OH236472   5.750   0.738  12.265 -0.1634  0.0589 -0.0629
 4994TIP3    H136473   5.714   0.806  12.321  0.0216  0.0523  0.0644
 4994TIP3    H236474   5.833   0.774  12.232 -1.1724  0.8631 -1.9000
 4995TIP3   OH236475   6.281   2.955  13.678 -0.7252 -0.8255  0.0950
 4995TIP3    H136476   6.367   2.966  13.637 -0.7592 -1.2586 -0.1031
 4995TIP3    H236477   6.232   3.033  13.652 -0.3301 -0.4865  0.3680
 4996TIP3   OH236478   4.260   2.748   2.900 -0.1741  0.4220 -0.0859
 4996TIP3    H136479   4.334   2.704   2.942  0.6553  2.8865  1.2488
 4996TIP3    H236480   4.214   2.679   2.852  1.3846 -1.6948  1.3266
 4997TIP3   OH236481   4.830   4.202   4.448 -0.4441  0.5597 -0.1409
 4997TIP3    H136482   4.817   4.120   4.400  3.4742  0.6136 -1.5923
 4997TIP3    H236483   4.896   4.250   4.398  0.6016  2.6530  2.9539
 4998TIP3   OH236484   2.640   6.044  14.645 -0.2085 -0.0583 -0.1850
 4998TIP3    H136485   2.708   5.996  14.597  0.0751  0.4098 -0.2556
 4998TIP3    H236486   2.630   6.126  14.596 -2.1648 -0.8877 -1.2949
 4999TIP3   OH236487   4.683   6.254   4.705 -0.0865 -0.0092 -0.4806
 4999TIP3    H136488   4.760   6.266   4.761  0.7129 -1.6558 -1.1754
 4999TIP3    H236489   4.614   6.303   4.749  1.1156  0.7000  0.6779
 5000TIP3   OH236490   3.496   5.652   3.892 -0.2362  0.1803 -1.0701
 5000TIP3    H136491   3.454   5.568   3.877  0.9802 -1.2052  2.2565
 5000TIP3    H236492   3.433   5.701   3.946  1.5203 -1.4746  2.9575
 5001TIP3   OH236493   1.988   6.732  11.163 -0.6208 -0.0037 -0.3419
 5001TIP3    H136494   2.073   6.774  11.158 -0.5455 -0.0382  0.5980
 5001TIP3    H236495   1.926   6.804  11.175 -0.4553 -0.1598  1.6502
 5002TIP3   OH236496   5.356   1.680   2.009  1.0206  0.0816  0.5689
 5002TIP3    H136497   5.301   1.744   1.963  1.1029  0.2512  0.7067
 5002TIP3    H236498   5.313   1.596   1.993  1.4183  0.0548 -0.3766
 5003TIP3   OH236499   5.176   0.248  15.928 -0.0368  0.2361  0.8302
 5003TIP3    H136500   5.232   0.226  15.854 -0.5928  0.2311  0.4098
 5003TIP3    H236501   5.088   0.222  15.901 -0.1369 -0.4774  1.7837
 5004TIP3   OH236502   5.693   1.633  13.675  0.0014 -0.0904  0.5702
 5004TIP3    H136503   5.783   1.600  13.678 -0.5015 -1.5323  3.6128
 5004TIP3    H236504   5.687   1.692  13.750 -1.3965  0.5295 -0.0009
 5005TIP3   OH236505   4.802   5.843   1.057 -0.5358  0.0358  0.1078
 5005TIP3    H136506   4.863   5.916   1.061 -0.6699  0.2744 -1.5277
 5005TIP3    H236507   4.722   5.880   1.020 -1.5314 -0.3935  1.6853
 5006TIP3   OH236508   3.806   0.811  15.490  0.8114  0.8500  0.0570
 5006TIP3    H136509   3.830   0.868  15.417  1.4280  0.6984  0.1325
 5006TIP3    H236510   3.885   0.759  15.506 -0.4425 -1.7051 -1.5435
 5007TIP3   OH236511   2.355   0.599   0.795  0.3399  0.4158  1.0385
 5007TIP3    H136512   2.294   0.526   0.793  0.1927  0.5440 -0.6206
 5007TIP3    H236513   2.406   0.589   0.714  0.6851  1.8307  1.0628
 5008TIP3   OH236514   0.666   6.315   3.261 -0.2517 -0.7844  0.2877
 5008TIP3    H136515   0.655   6.301   3.355  0.5316 -1.1140  0.3455
 5008TIP3    H236516   0.654   6.409   3.249 -0.6949 -0.7906  0.6664
 5009TIP3   OH236517   0.226   0.268   3.247 -0.2848 -0.1620 -0.1963
 5009TIP3    H136518   0.226   0.331   3.319  1.8291 -0.7754  0.4219
 5009TIP3    H236519   0.215   0.321   3.169 -1.2710  0.6589  0.4723
 5010TIP3   OH236520   3.816   3.547  13.113  0.7237 -0.1043  0.0322
 5010TIP3    H136521   3.763   3.470  13.091  3.1112 -2.0525  0.6490
 5010TIP3    H236522   3.765   3.593  13.180  0.2005 -2.4411  1.3435
 5011TIP3   OH236523   1.915   0.797  13.476  0.2844  0.2549  0.1805
 5011TIP3    H136524   1.969   0.793  13.397 -0.4119  0.8402 -0.3471
 5011TIP3    H236525   1.931   0.714  13.521 -0.4265 -0.7625 -1.3389
 5012TIP3   OH236526   0.597   2.039  12.075  0.4889 -0.5945  0.1768
 5012TIP3    H136527   0.615   1.969  12.138  2.3390 -1.1248 -0.8595
 5012TIP3    H236528   0.653   2.018  12.000 -2.0744 -0.3701 -1.9517
 5013TIP3   OH236529   3.460   0.413  13.647 -0.0434  0.2323 -0.1422
 5013TIP3    H136530   3.499   0.401  13.734  0.7624  0.2002 -0.4960
 5013TIP3    H236531   3.402   0.337  13.636 -2.4050  1.6867  1.5170
 5014TIP3   OH236532   1.332   4.729   5.167 -0.1351 -0.0008  0.7604
 5014TIP3    H136533   1.331   4.694   5.078 -0.8835  0.3167  0.6395
 5014TIP3    H236534   1.410   4.691   5.206 -0.9386 -1.8685  0.6462
 5015TIP3   OH236535   4.030   5.407   0.794  0.5515 -0.1411  0.8339
 5015TIP3    H136536   3.942   5.440   0.811  0.5791  0.4655 -0.1125
 5015TIP3    H236537   4.071   5.400   0.880 -0.9570 -2.0213  1.4674
 5016TIP3   OH236538   0.648   6.402   4.569 -0.4148  0.3772 -0.0374
 5016TIP3    H136539   0.725   6.458   4.554 -1.6721  1.8593 -1.2199
 5016TIP3    H236540   0.631   6.360   4.485 -1.9418  1.4555 -0.2980
 5017TIP3   OH236541   6.423   0.119  17.064 -0.1257  0.2179 -0.9209
 5017TIP3    H136542   6.447   0.206  17.032  0.7941 -0.4097 -2.0142
 5017TIP3    H236543   6.345   0.095  17.013 -0.7085  0.6117 -0.2293
 5018TIP3   OH236544   2.365   0.831  13.299  0.7247  0.4976  0.4213
 5018TIP3    H136545   2.377   0.926  13.293  2.1735  0.3008 -0.1318
 5018TIP3    H236546   2.339   0.805  13.211 -2.3754  0.6733  1.1714
 5019TIP3   OH236547   6.203   2.175   2.178 -0.0966 -0.3459  0.3826
 5019TIP3    H136548   6.187   2.268   2.167  0.5869 -0.4581 -2.1390
 5019TIP3    H236549   6.131   2.132   2.131  1.5610 -0.9763 -1.7373
 5020TIP3   OH236550   4.934   5.733   0.428 -0.4624  0.2579 -0.2479
 5020TIP3    H136551   4.934   5.791   0.352 -1.3243  0.6364  0.0295
 5020TIP3    H236552   4.890   5.783   0.496 -0.3563 -0.3602  0.2834
 5021TIP3   OH236553   4.241   4.304   2.244  0.5751 -0.0151 -0.4635
 5021TIP3    H136554   4.150   4.283   2.266  0.3005  2.2463  0.9442
 5021TIP3    H236555   4.238   4.327   2.152 -0.4845  0.8315 -0.2446
 5022TIP3   OH236556   3.610   2.462  12.500  0.2584 -0.2546 -0.3282
 5022TIP3    H136557   3.531   2.472  12.447 -0.0460  0.7394  0.3130
 5022TIP3    H236558   3.677   2.433  12.437 -0.6018 -1.1375 -0.8655
 5023TIP3   OH236559   4.174   0.555  13.441 -0.1100 -0.4497 -0.0949
 5023TIP3    H136560   4.116   0.493  13.484 -1.2025  1.2057  0.9749
 5023TIP3    H236561   4.176   0.631  13.500  3.5438 -0.5611  0.1603
 5024TIP3   OH236562   3.729   3.815   4.582  0.3156  0.5452  0.0083
 5024TIP3    H136563   3.665   3.873   4.542  0.8444  0.1433 -1.5301
 5024TIP3    H236564   3.681   3.767   4.649 -1.2016 -0.3005 -1.6234
 5025TIP3   OH236565   4.139   1.236  13.340 -0.0440  0.2121 -0.1416
 5025TIP3    H136566   4.212   1.297  13.331 -1.0858  1.3892 -0.9446
 5025TIP3    H236567   4.066   1.291  13.368  0.0533 -1.3887  3.9771
 5026TIP3   OH236568   0.161   0.607   0.078 -0.2205  0.1753 -0.5923
 5026TIP3    H136569   0.142   0.700   0.063 -0.3271  0.6210  1.9122
 5026TIP3    H236570   0.145   0.593   0.171  1.6973 -1.9036 -0.4641
 5027TIP3   OH236571   1.604   5.221  13.457  0.2821  0.0334 -0.3142
 5027TIP3    H136572   1.530   5.248  13.404 -0.1701 -0.4033  0.0875
 5027TIP3    H236573   1.584   5.254  13.545  0.4994 -0.1975 -0.1755
 5028TIP3   OH236574   6.152   4.012   1.400 -0.1341  0.0923 -0.3247
 5028TIP3    H136575   6.140   4.060   1.318 -1.0714  0.7671  0.1857
 5028TIP3    H236576   6.093   3.937   1.393  0.9754 -0.7487 -0.9215
 5029TIP3   OH236577   3.048   2.445   5.442  0.6062  0.5094  0.3327
 5029TIP3    H136578   3.071   2.451   5.535  2.1099 -0.2475  0.0481
 5029TIP3    H236579   2.964   2.399   5.440  0.2589  1.0778  1.3405
 5030TIP3   OH236580   0.095   3.778  12.388  0.5387 -0.2558  0.3717
 5030TIP3    H136581   0.018   3.822  12.425  1.0141  0.9679 -0.0610
 5030TIP3    H236582   0.146   3.751  12.465  0.4358  0.3066  0.6441
 5031TIP3   OH236583   2.521   5.069  13.104 -0.9846 -0.3798  0.5985
 5031TIP3    H136584   2.458   5.060  13.033  2.0148  0.3950 -2.3958
 5031TIP3    H236585   2.529   4.981  13.140 -1.1410 -1.2783 -1.4371
 5032TIP3   OH236586   5.868   5.366  15.433  0.4655  0.2563  0.5173
 5032TIP3    H136587   5.884   5.429  15.363  1.4138 -0.2758  0.2352
 5032TIP3    H236588   5.914   5.287  15.405 -2.4424 -1.2997 -0.1615
 5033TIP3   OH236589   1.262   2.874   3.776  0.3119 -0.5412 -0.2459
 5033TIP3    H136590   1.221   2.887   3.861  0.7383 -0.6297 -0.0200
 5033TIP3    H236591   1.302   2.787   3.782 -1.2680 -1.3817 -1.2086
 5034TIP3   OH236592   1.443   6.502   0.749 -0.1732 -0.3156  0.6883
 5034TIP3    H136593   1.520   6.464   0.708  1.7030  0.9689  2.7750
 5034TIP3    H236594   1.386   6.528   0.676  1.4880 -1.0352 -0.9217
 5035TIP3   OH236595   0.938   6.501  12.446 -0.8526  0.5503 -0.3748
 5035TIP3    H136596   0.873   6.433  12.464 -0.3055  0.4566  1.4076
 5035TIP3    H236597   0.886   6.578  12.424 -1.5877  0.3834  0.6852
 5036TIP3   OH236598   1.698   4.394   4.504  0.1257  0.2896 -0.4422
 5036TIP3    H136599   1.703   4.361   4.593 -0.8706 -1.8645 -1.1132
 5036TIP3    H236600   1.723   4.486   4.511  0.7186  0.0133  1.9310
 5037TIP3   OH236601   2.720   4.560   3.388  0.1668  0.6949  0.1749
 5037TIP3    H136602   2.740   4.558   3.481 -0.6520  0.0808  0.3544
 5037TIP3    H236603   2.757   4.479   3.353 -1.3296 -0.1259  0.3881
 5038TIP3   OH236604   0.056   1.365  11.116 -0.1373  0.0475  0.0433
 5038TIP3    H136605   0.135   1.366  11.063 -0.2046  0.7565 -0.0529
 5038TIP3    H236606   0.058   1.280  11.161  0.4705 -0.0998 -0.2562
 5039TIP3   OH236607   1.319   1.177   4.844 -0.1654  0.0885 -0.4001
 5039TIP3    H136608   1.392   1.226   4.881 -0.4316  0.0750  0.1509
 5039TIP3    H236609   1.347   1.156   4.754  0.7275 -0.3788 -0.0299
 5040TIP3   OH236610   1.810   2.966  12.692  0.2731 -0.4957  0.1770
 5040TIP3    H136611   1.848   2.928  12.613  1.4584 -1.6315  1.2548
 5040TIP3    H236612   1.869   3.037  12.716 -0.2659  0.0654 -0.1069
 5041TIP3   OH236613   3.750   0.288   6.099 -0.8266  0.5346 -0.2885
 5041TIP3    H136614   3.737   0.350   6.171 -2.9973 -0.0500 -0.1075
 5041TIP3    H236615   3.685   0.314   6.034 -2.4771 -2.0974  0.1929
 5042TIP3   OH236616   5.566   4.232   6.560 -0.1336  0.0303 -0.0291
 5042TIP3    H136617   5.632   4.296   6.586  0.3166  0.0970 -1.2396
 5042TIP3    H236618   5.483   4.274   6.580  0.1768  0.4799  0.3378
 5043TIP3   OH236619   0.136   1.355  15.758  0.6369  0.0483  0.0732
 5043TIP3    H136620   0.179   1.270  15.746 -0.9414 -0.8246  0.2606
 5043TIP3    H236621   0.139   1.396  15.672 -0.6157 -1.2310 -0.6190
 5044TIP3   OH236622   2.010   6.333   1.841  0.0469 -0.0149 -0.0037
 5044TIP3    H136623   1.950   6.259   1.833 -0.1428 -0.0699  1.5993
 5044TIP3    H236624   2.059   6.315   1.922 -1.5111  2.6232  1.6662
 5045TIP3   OH236625   0.856   6.776   4.167 -0.1663  0.3566  0.0074
 5045TIP3    H136626   0.912   6.772   4.245 -2.2602  0.0480  1.5823
 5045TIP3    H236627   0.882   6.700   4.115 -2.4123 -2.9255  3.1816
 5046TIP3   OH236628   2.953   3.643   4.359  0.8277 -0.0545  0.2859
 5046TIP3    H136629   3.028   3.685   4.317 -0.3909  1.7916 -0.1360
 5046TIP3    H236630   2.878   3.695   4.332 -0.7146 -2.1835  0.2383
 5047TIP3   OH236631   1.888   0.172  16.617 -0.1285 -0.4078 -0.2984
 5047TIP3    H136632   1.794   0.189  16.621 -0.0543 -0.0189 -0.1741
 5047TIP3    H236633   1.929   0.251  16.654  0.2414 -0.6301 -0.2207
 5048TIP3   OH236634   6.316   5.564   4.570 -0.6195 -0.2956 -0.2754
 5048TIP3    H136635   6.365   5.632   4.617  0.6172  2.3617 -4.8421
 5048TIP3    H236636   6.381   5.496   4.553 -0.8431 -0.8398  0.9339
 5049TIP3   OH236637   2.833   1.545  16.385  0.0193  0.3995 -0.0963
 5049TIP3    H136638   2.775   1.615  16.354  0.0655 -0.8862 -3.5469
 5049TIP3    H236639   2.921   1.579  16.368  0.2214  0.8773  1.6873
 5050TIP3   OH236640   1.401   1.879   2.735  0.0726 -0.1553 -0.1622
 5050TIP3    H136641   1.427   1.817   2.668  0.8812  0.9956 -0.9546
 5050TIP3    H236642   1.332   1.932   2.695 -0.4165 -0.3500  0.4049
 5051TIP3   OH236643   0.342   3.381   2.167 -0.7083 -0.1955  0.3886
 5051TIP3    H136644   0.366   3.412   2.255 -0.4648 -0.2825  0.3557
 5051TIP3    H236645   0.283   3.447   2.133  1.0243  1.0502 -0.2988
 5052TIP3   OH236646   0.225   1.151  14.092 -0.4092 -0.1802  0.7579
 5052TIP3    H136647   0.279   1.227  14.068 -1.8711  0.4319 -0.7576
 5052TIP3    H236648   0.255   1.081  14.034 -2.9753  0.9114 -2.1327
 5053TIP3   OH236649   2.644   4.704  12.232 -0.0138 -0.2354 -0.1379
 5053TIP3    H136650   2.718   4.765  12.232 -1.1745  1.2079  0.6392
 5053TIP3    H236651   2.569   4.757  12.207 -1.6577 -0.5450  3.5760
 5054TIP3   OH236652   2.302   1.032  11.536  0.0468  0.4588  0.1398
 5054TIP3    H136653   2.349   1.001  11.458  1.2925  2.4292  0.0377
 5054TIP3    H236654   2.309   0.959  11.598  1.4272 -0.1168 -0.6431
 5055TIP3   OH236655   4.003   2.679   5.038  0.1441 -0.0075  1.0275
 5055TIP3    H136656   4.071   2.707   4.978  1.8181 -1.5767  2.0843
 5055TIP3    H236657   3.999   2.749   5.104 -0.3196  0.7794  0.1806
 5056TIP3   OH236658   4.547   0.824  13.076  0.1300 -0.3964  0.0052
 5056TIP3    H136659   4.630   0.872  13.078 -0.3182  0.4640 -1.2264
 5056TIP3    H236660   4.480   0.892  13.075 -0.5774 -1.0828  0.3293
 5057TIP3   OH236661   2.295   4.056   6.051  0.3306 -0.2150 -0.0718
 5057TIP3    H136662   2.217   4.080   6.101  0.2452 -2.9825  1.3392
 5057TIP3    H236663   2.367   4.061   6.114  0.9689  0.3685 -0.8317
 5058TIP3   OH236664   1.391   0.248   1.936 -0.1033  1.0128 -0.5330
 5058TIP3    H136665   1.300   0.241   1.904  0.2571 -2.9175 -1.3128
 5058TIP3    H236666   1.382   0.275   2.027 -1.9586  2.0825 -0.9808
 5059TIP3   OH236667   5.292   6.474   2.852 -0.5275 -0.1247  0.4328
 5059TIP3    H136668   5.385   6.451   2.864 -1.0576 -1.3172  2.9135
 5059TIP3    H236669   5.249   6.391   2.831 -1.2156  0.1883  0.5739
 5060TIP3   OH236670   1.893   1.691  15.148  0.2291 -0.2404 -0.1436
 5060TIP3    H136671   1.957   1.707  15.079  0.0396  1.5353  0.0583
 5060TIP3    H236672   1.946   1.677  15.227  0.4005 -0.4864 -0.3012
 5061TIP3   OH236673   3.287   5.121   5.321 -0.6037  0.1363  0.2460
 5061TIP3    H136674   3.242   5.095   5.400 -0.3615  1.8124  0.9718
 5061TIP3    H236675   3.317   5.211   5.338 -1.3032  0.8767 -2.0517
 5062TIP3   OH236676   4.707   1.807  15.426  0.0553  0.0429  0.2003
 5062TIP3    H136677   4.781   1.828  15.371 -1.9444  0.4235 -2.5610
 5062TIP3    H236678   4.675   1.891  15.458 -2.1898  0.5369 -2.9426
 5063TIP3   OH236679   4.252   3.666   1.415  0.4219 -0.1621 -0.7725
 5063TIP3    H136680   4.271   3.600   1.348  0.9529 -0.9536  0.1324
 5063TIP3    H236681   4.272   3.623   1.497 -0.8594  0.5690 -0.0457
 5064TIP3   OH236682   4.351   3.989  16.030 -0.3032 -0.1739 -0.3446
 5064TIP3    H136683   4.280   4.016  16.088 -0.7570 -1.3418 -0.3184
 5064TIP3    H236684   4.372   4.067  15.980 -0.1319  0.7751  1.1422
 5065TIP3   OH236685   6.031   4.727   6.219 -0.0094  0.3936  0.1518
 5065TIP3    H136686   6.029   4.651   6.277 -0.8664  0.7424  0.6165
 5065TIP3    H236687   5.968   4.788   6.258  2.9207  2.7424  1.6781
 5066TIP3   OH236688   3.747   5.498  11.093 -0.6791 -0.2845 -0.5750
 5066TIP3    H136689   3.738   5.422  11.035  0.2021  0.2843 -1.4873
 5066TIP3    H236690   3.770   5.570  11.034  0.1689  0.3277  0.4859
 5067TIP3   OH236691   2.232   1.155   4.752  0.1834 -0.3232 -0.2403
 5067TIP3    H136692   2.207   1.065   4.770  1.2161 -0.2937  1.5751
 5067TIP3    H236693   2.326   1.158   4.767 -0.1697  1.5642  2.1751
 5068TIP3   OH236694   3.572   4.957   2.191  0.4966  0.1882  0.0928
 5068TIP3    H136695   3.486   4.978   2.154  1.3729  1.1303 -1.5575
 5068TIP3    H236696   3.553   4.921   2.277 -1.5752 -0.0596 -0.4019
 5069TIP3   OH236697   1.973   5.203   1.740 -0.3373 -0.5546  0.0121
 5069TIP3    H136698   2.043   5.150   1.779 -0.2742  0.0507  0.7573
 5069TIP3    H236699   2.016   5.284   1.714 -0.4856 -0.7463 -0.8738
 5070TIP3   OH236700   4.060   2.561   4.540  0.1759 -0.2472  0.2055
 5070TIP3    H136701   4.028   2.484   4.586  0.9449  0.3807  1.8509
 5070TIP3    H236702   4.155   2.556   4.547  0.2852  0.2718 -0.6800
 5071TIP3   OH236703   0.427   0.155   2.430  0.3346 -0.2159  0.4717
 5071TIP3    H136704   0.486   0.113   2.492 -0.3090  0.3014  1.4729
 5071TIP3    H236705   0.458   0.246   2.426 -0.0348 -0.0816  0.5753
 5072TIP3   OH236706   2.931   0.943  16.809  0.4160 -0.2217  0.3283
 5072TIP3    H136707   2.888   0.929  16.724  0.3137 -0.3226  0.3967
 5072TIP3    H236708   2.888   0.881  16.868  0.4200 -0.0822  0.4769
 5073TIP3   OH236709   6.161   3.477  14.262  0.3987  0.4520 -0.2531
 5073TIP3    H136710   6.226   3.497  14.195  1.1066 -1.1010 -0.0629
 5073TIP3    H236711   6.099   3.550  14.257  1.5845  1.4501 -1.1279
 5074TIP3   OH236712   2.184   0.277  10.626  0.0129  0.2875 -0.8289
 5074TIP3    H136713   2.198   0.265  10.720  0.0462  2.3620 -0.5186
 5074TIP3    H236714   2.202   0.191  10.588  2.1549 -0.0796  0.8089
 5075TIP3   OH236715   3.743   5.565   1.921 -0.3047  0.2505 -0.0660
 5075TIP3    H136716   3.796   5.513   1.980 -0.2002 -0.5464 -0.8368
 5075TIP3    H236717   3.661   5.516   1.911 -0.2743  0.3061 -0.6626
 5076TIP3   OH236718   1.140   4.450  11.904  0.9637 -0.1446  0.1285
 5076TIP3    H136719   1.153   4.490  11.990 -0.7429 -0.3036  0.4850
 5076TIP3    H236720   1.192   4.370  11.907  0.2921 -0.5574  1.3187
 5077TIP3   OH236721   3.558   6.288  12.027 -0.6956 -0.5636  0.3297
 5077TIP3    H136722   3.518   6.358  11.977  0.4014  0.0043  0.2079
 5077TIP3    H236723   3.561   6.214  11.966  2.3701  0.6557 -1.2579
 5078TIP3   OH236724   2.954   1.281   1.235  0.9121  0.0894  0.8569
 5078TIP3    H136725   2.859   1.285   1.225  1.1934  1.4538 -2.7908
 5078TIP3    H236726   2.972   1.192   1.263 -1.3662 -0.5667  0.4269
 5079TIP3   OH236727   1.348   5.875   5.545  0.2087  0.3265 -0.5948
 5079TIP3    H136728   1.289   5.830   5.484 -0.3339  1.3494 -0.8416
 5079TIP3    H236729   1.298   5.950   5.577  0.7669  0.2582  0.5178
 5080TIP3   OH236730   1.983   0.227  13.075  0.0549  0.0522 -0.0242
 5080TIP3    H136731   1.946   0.267  12.996 -2.3272  0.1889  1.0857
 5080TIP3    H236732   1.962   0.134  13.067  0.3970 -0.0380  0.1314
 5081TIP3   OH236733   6.231   0.513   3.833  0.2745 -0.2148 -0.1746
 5081TIP3    H136734   6.212   0.454   3.906 -0.0367 -0.8600 -0.7679
 5081TIP3    H236735   6.325   0.532   3.841 -0.0333  0.8976  1.2350
 5082TIP3   OH236736   4.739   3.770  14.958  0.4939 -0.3208 -0.0714
 5082TIP3    H136737   4.674   3.828  14.999 -0.0344 -0.5352 -0.5988
 5082TIP3    H236738   4.816   3.778  15.014  0.4345  0.9091 -0.1489
 5083TIP3   OH236739   2.205   4.053   1.315  0.6059 -0.6951  0.4334
 5083TIP3    H136740   2.141   4.041   1.244  2.2376  0.5689 -1.3862
 5083TIP3    H236741   2.153   4.073   1.392 -1.3682 -4.0884  0.1510
 5084TIP3   OH236742   4.294   5.583   3.029  0.1039  0.2536 -0.1114
 5084TIP3    H136743   4.302   5.655   3.091  0.0541  0.1161  0.0542
 5084TIP3    H236744   4.204   5.553   3.039 -0.0475  0.5320 -0.5804
 5085TIP3   OH236745   0.028   2.555  16.509  0.0942  0.3473  0.7843
 5085TIP3    H136746   0.122   2.539  16.518  0.5048  1.1399 -1.5704
 5085TIP3    H236747  -0.008   2.470  16.484  0.7059  0.6796 -1.4038
 5086TIP3   OH236748   0.300   2.286   1.165  0.2868 -0.0201 -0.5499
 5086TIP3    H136749   0.221   2.249   1.206  0.6270  0.9739  1.0913
 5086TIP3    H236750   0.285   2.276   1.071 -1.7298 -0.0128 -0.2731
 5087TIP3   OH236751   0.303   0.956  13.911  0.2100 -0.3775 -0.0379
 5087TIP3    H136752   0.296   1.005  13.829 -0.7766 -0.0604  0.2315
 5087TIP3    H236753   0.275   0.867  13.888  0.3503 -0.3953 -0.1405
 5088TIP3   OH236754   5.402   6.470  12.256 -0.1379 -0.2824  0.3528
 5088TIP3    H136755   5.363   6.536  12.199 -0.5044  0.4975  1.4555
 5088TIP3    H236756   5.348   6.392  12.242 -0.3221 -0.0551 -0.2302
 5089TIP3   OH236757   0.770   4.347   4.286 -0.1647  0.5775  0.0869
 5089TIP3    H136758   0.797   4.314   4.201  0.7699  1.3362  0.0646
 5089TIP3    H236759   0.679   4.320   4.295  0.1164 -0.6369 -0.5761
 5090TIP3   OH236760   6.580   4.801  15.722 -0.3368  0.3385  0.1225
 5090TIP3    H136761   6.641   4.735  15.690 -0.2967  0.4966 -0.1346
 5090TIP3    H236762   6.626   4.845  15.793  0.3621  1.3137 -0.8970
 5091TIP3   OH236763   3.424   5.673  16.285 -0.5070  0.2708 -0.3421
 5091TIP3    H136764   3.336   5.709  16.279 -0.2428  0.8294 -0.9457
 5091TIP3    H236765   3.443   5.671  16.379 -0.6170  1.4750 -0.2882
 5092TIP3   OH236766   4.825   3.419   0.773 -0.2368 -0.3173  0.0688
 5092TIP3    H136767   4.803   3.512   0.767 -0.4611 -0.2961  1.0935
 5092TIP3    H236768   4.834   3.391   0.682 -0.0365  0.7322 -0.2470
 5093TIP3   OH236769   1.959   5.139   1.332 -0.1534  0.4681 -0.0079
 5093TIP3    H136770   1.931   5.167   1.245 -0.3652  0.3793  0.0305
 5093TIP3    H236771   1.998   5.053   1.319 -2.2104 -0.5746  0.2874
 5094TIP3   OH236772   5.417   2.084  17.242 -0.1699  0.7669  0.3742
 5094TIP3    H136773   5.492   2.113  17.294  0.9618  0.7710 -1.1903
 5094TIP3    H236774   5.441   1.997  17.211 -0.0706  1.4139 -1.4805
 5095TIP3   OH236775   0.058   4.475  13.517  0.0747  0.7073  0.5808
 5095TIP3    H136776  -0.032   4.483  13.489 -0.1283  0.4453  1.1327
 5095TIP3    H236777   0.063   4.388  13.557  0.5745  0.7060  0.5210
 5096TIP3   OH236778   5.399   4.053   5.375  0.7265  0.3481 -0.2085
 5096TIP3    H136779   5.421   3.968   5.338  1.9333 -0.1844  1.5828
 5096TIP3    H236780   5.340   4.033   5.447  0.3537  1.1112 -0.2945
 5097TIP3   OH236781   5.173   2.715   5.548  0.1888 -0.7154 -0.4889
 5097TIP3    H136782   5.099   2.712   5.487 -1.5414  0.6307  1.4042
 5097TIP3    H236783   5.181   2.625   5.580  0.0397 -1.0786 -1.4439
 5098TIP3   OH236784   0.171   2.441  11.773 -0.1170  0.1459 -0.4430
 5098TIP3    H136785   0.216   2.470  11.852 -3.2629  1.8726  0.8832
 5098TIP3    H236786   0.166   2.345  11.782  3.1043 -0.1307 -0.6905
 5099TIP3   OH236787   4.210   1.949  17.239  0.1685 -0.3980 -0.1603
 5099TIP3    H136788   4.154   1.987  17.306  0.1978  0.2573 -0.5040
 5099TIP3    H236789   4.263   1.884  17.285 -1.1956 -1.3749  0.0978
 5100TIP3   OH236790   5.748   5.208   4.967  0.3964 -0.1998 -0.5156
 5100TIP3    H136791   5.728   5.147   5.038  2.0470 -0.9767 -0.6809
 5100TIP3    H236792   5.749   5.294   5.009 -1.5150 -0.2798 -0.2007
 5101TIP3   OH236793   1.092   1.184  15.690 -0.2669 -0.6473  0.2423
 5101TIP3    H136794   1.008   1.225  15.668  0.8393  3.0573  1.9998
 5101TIP3    H236795   1.122   1.145  15.608 -2.1482  0.9671 -1.3238
 5102TIP3   OH236796   5.910   4.275  16.215 -0.3185 -0.3335 -0.2693
 5102TIP3    H136797   5.973   4.205  16.202 -1.3356 -1.4448  0.5675
 5102TIP3    H236798   5.903   4.318  16.130  0.9611 -0.6825 -0.5661
 5103TIP3   OH236799   5.352   1.821   5.865 -0.6320  0.4336 -0.5480
 5103TIP3    H136800   5.272   1.873   5.865  0.1030  1.5898 -0.4490
 5103TIP3    H236801   5.402   1.853   5.940 -0.4719 -0.9278 -0.0385
 5104TIP3   OH236802   2.927   0.395   6.515  0.2506 -0.0067 -0.2972
 5104TIP3    H136803   2.866   0.440   6.457  0.9968  1.7567  0.2084
 5104TIP3    H236804   2.894   0.412   6.603  0.7151 -0.1928 -0.0837
 5105TIP3   OH236805   5.710   2.183  17.296  0.6787 -0.8688 -0.2756
 5105TIP3    H136806   5.759   2.203  17.376 -0.9905  1.1039  0.3283
 5105TIP3    H236807   5.703   2.267  17.251 -1.6888 -1.1682 -0.5887
 5106TIP3   OH236808   0.401   4.617  11.459 -0.5378  0.1583 -0.4506
 5106TIP3    H136809   0.421   4.533  11.418  0.2088  1.2721 -2.4991
 5106TIP3    H236810   0.467   4.626  11.528  1.8026  0.6520 -2.6138
 5107TIP3   OH236811   0.475   0.283   2.093  0.4642 -0.2413 -0.2604
 5107TIP3    H136812   0.441   0.197   2.118 -0.0668  0.1079  0.2818
 5107TIP3    H236813   0.570   0.275   2.101  0.3580 -0.3887  1.1627
 5108TIP3   OH236814   4.150   6.238   4.238  0.3383 -0.0673  0.2927
 5108TIP3    H136815   4.130   6.185   4.161  1.2154  0.4771 -0.3241
 5108TIP3    H236816   4.070   6.236   4.290 -0.8772  1.0109 -1.4597
 5109TIP3   OH236817   6.210   4.535  13.510 -0.1572 -0.2153  0.1003
 5109TIP3    H136818   6.163   4.584  13.577 -0.3572 -0.6951  0.3142
 5109TIP3    H236819   6.168   4.561  13.428 -0.6820 -0.4950  0.2698
 5110TIP3   OH236820   0.016   6.576   2.126 -0.3803  0.1380 -0.4441
 5110TIP3    H136821  -0.044   6.620   2.065  0.7213 -0.4535 -2.0028
 5110TIP3    H236822   0.027   6.489   2.089  1.9815  0.4536 -0.5935
 5111TIP3   OH236823   5.005   1.438  17.302 -0.1502  0.5201 -0.1368
 5111TIP3    H136824   5.039   1.470  17.219  0.1232  4.0852  1.2120
 5111TIP3    H236825   4.916   1.474  17.308 -0.0186  0.6778  1.2713
 5112TIP3   OH236826   4.167   0.256   3.483 -0.4177 -0.4624  0.3949
 5112TIP3    H136827   4.182   0.344   3.517 -0.4429  0.6615 -2.2231
 5112TIP3    H236828   4.254   0.222   3.463 -0.4946 -0.1447 -0.5424
 5113TIP3   OH236829   1.121   0.339  11.718  0.1577 -0.4809  0.1315
 5113TIP3    H136830   1.171   0.407  11.675 -0.9869  0.1103 -0.3099
 5113TIP3    H236831   1.030   0.363  11.703 -0.3449  0.2301  3.5841
 5114TIP3   OH236832   2.445   0.532  12.378  0.5494 -0.0515  0.1752
 5114TIP3    H136833   2.440   0.533  12.282 -0.5747  2.0428  0.1907
 5114TIP3    H236834   2.402   0.450  12.403  0.1080 -0.2348 -1.0949
 5115TIP3   OH236835   0.518   2.101   3.207  0.4429  0.0961 -0.2146
 5115TIP3    H136836   0.428   2.077   3.230  1.0557 -0.8717  1.3480
 5115TIP3    H236837   0.518   2.108   3.112 -1.5268  1.1912 -0.1813
 5116TIP3   OH236838   3.944   6.094  13.756  0.5943 -0.5446  0.3171
 5116TIP3    H136839   3.897   6.036  13.817  2.2172 -3.0421 -0.6694
 5116TIP3    H236840   3.944   6.179  13.800 -2.4691 -1.0377  1.5433
 5117TIP3   OH236841   2.242   1.876  15.372  0.1008  0.7330  0.0086
 5117TIP3    H136842   2.170   1.926  15.409 -0.3332  0.4921 -0.5033
 5117TIP3    H236843   2.305   1.942  15.343  1.5320  0.9401  3.1954
 5118TIP3   OH236844   5.228   5.486  15.004 -0.5879 -0.3041  0.1251
 5118TIP3    H136845   5.313   5.486  14.960 -1.2060 -1.4681 -1.1180
 5118TIP3    H236846   5.241   5.427  15.079  0.0127  0.4304  0.6173
 5119TIP3   OH236847   6.753   3.917  13.294 -1.0627  0.2013  0.1292
 5119TIP3    H136848   6.847   3.917  13.278 -0.8659  1.1007  1.1376
 5119TIP3    H236849   6.723   4.003  13.265 -1.1762  0.7514  1.7318
 5120TIP3   OH236850   1.217   4.255  16.100 -1.1496 -0.2444  0.0534
 5120TIP3    H136851   1.180   4.342  16.092  1.8653  1.2619  0.9142
 5120TIP3    H236852   1.178   4.219  16.180 -2.4751  0.2398 -0.3490
 5121TIP3   OH236853   2.909   0.409  17.273  0.5340 -0.0787  0.0963
 5121TIP3    H136854   2.979   0.432  17.333  0.0449  0.4085  0.4903
 5121TIP3    H236855   2.877   0.325  17.305 -0.4386  0.6771  1.1958
 5122TIP3   OH236856   1.687   2.857   3.219  0.0721  0.4052 -1.1539
 5122TIP3    H136857   1.695   2.762   3.226  0.3559  0.2840 -2.7833
 5122TIP3    H236858   1.778   2.888   3.220 -0.0361  0.8616  1.1413
 5123TIP3   OH236859   3.514   1.515   0.159  0.0473 -0.2332 -0.4556
 5123TIP3    H136860   3.431   1.477   0.132 -0.4967  0.0174  0.7856
 5123TIP3    H236861   3.554   1.449   0.216 -0.8997  0.9289  1.7106
 5124TIP3   OH236862   3.322   5.231   6.210  0.5017  0.9374  0.0524
 5124TIP3    H136863   3.391   5.205   6.271 -1.7742  0.6875  2.7333
 5124TIP3    H236864   3.265   5.155   6.204 -0.1206  1.4773 -1.2233
 5125TIP3   OH236865   0.307   4.133   1.676 -0.1222 -0.9707  0.3142
 5125TIP3    H136866   0.243   4.168   1.615  0.5665 -1.1078 -0.5073
 5125TIP3    H236867   0.385   4.186   1.663 -0.7238  0.7768  2.9961
 5126TIP3   OH236868   5.332   6.540  14.583 -0.3976  0.5743 -0.1282
 5126TIP3    H136869   5.319   6.515  14.491 -1.3354  1.1783 -0.1757
 5126TIP3    H236870   5.425   6.564  14.588 -0.4942  1.2340 -1.1042
 5127TIP3   OH236871   4.434   2.792  11.468  0.3572  0.1346  0.0354
 5127TIP3    H136872   4.386   2.811  11.549 -0.5199 -1.1750 -0.1412
 5127TIP3    H236873   4.526   2.793  11.494  0.2254  1.8091  0.5746
 5128TIP3   OH236874   1.379   3.875  16.241  0.4763  0.6114 -0.0043
 5128TIP3    H136875   1.339   3.844  16.323 -1.4738  1.7780 -0.4475
 5128TIP3    H236876   1.317   3.849  16.173  0.5291  2.3049 -0.7526
 5129TIP3   OH236877   2.106   5.520  15.909 -0.3907  0.4134  0.4355
 5129TIP3    H136878   2.147   5.594  15.864 -0.8981  1.5123  1.7261
 5129TIP3    H236879   2.066   5.469  15.838  0.9646  0.7090 -0.5842
 5130TIP3   OH236880   2.151   2.794  12.841  0.0169 -0.1089 -0.4749
 5130TIP3    H136881   2.082   2.783  12.906  0.1787  1.6354  0.0321
 5130TIP3    H236882   2.218   2.731  12.867 -0.4673 -0.3178  0.2989
 5131TIP3   OH236883   4.529   3.262  11.960  0.1376  0.0237  0.2000
 5131TIP3    H136884   4.545   3.191  11.898 -0.0769 -0.5927  0.8356
 5131TIP3    H236885   4.594   3.249  12.029  0.2311  0.5739  0.2220
 5132TIP3   OH236886   3.995   1.494  15.010 -0.1379  0.6592 -0.6527
 5132TIP3    H136887   4.090   1.498  14.996 -0.2590  1.9762 -1.2573
 5132TIP3    H236888   3.974   1.401  15.004  1.4114  0.0499  1.7452
 5133TIP3   OH236889   0.597   0.934   5.560 -0.0861  0.8326  0.0117
 5133TIP3    H136890   0.502   0.938   5.569 -0.1201  0.8189 -0.3268
 5133TIP3    H236891   0.611   0.882   5.481  0.2191 -0.0224  0.6215
 5134TIP3   OH236892   5.312   1.527  17.097 -0.9652  0.2766 -0.2995
 5134TIP3    H136893   5.315   1.593  17.166 -1.4054 -0.1483  0.1354
 5134TIP3    H236894   5.321   1.576  17.015  0.4152  0.7126  0.0902
 5135TIP3   OH236895   1.900   4.597   0.095 -0.0022  0.7674  0.2648
 5135TIP3    H136896   1.902   4.636   0.182  1.6972  0.0965  0.5644
 5135TIP3    H236897   1.992   4.578   0.074 -0.4601 -0.0010 -1.2541
 5136TIP3   OH236898   4.371   3.292   0.350  1.2080 -0.7665 -0.1378
 5136TIP3    H136899   4.379   3.387   0.338  0.3491 -0.9256 -2.2221
 5136TIP3    H236900   4.462   3.260   0.348  1.6140  0.0921  1.8870
 5137TIP3   OH236901   2.280   6.049  12.419  0.1591  0.7341 -0.1945
 5137TIP3    H136902   2.329   6.110  12.365 -0.1859 -1.3684 -3.0795
 5137TIP3    H236903   2.190   6.081  12.415  0.4011  1.5879  0.7016
 5138TIP3   OH236904   6.729   4.243  14.701  0.3346 -0.0652 -0.3216
 5138TIP3    H136905   6.777   4.184  14.643 -0.6631 -1.6630  0.3947
 5138TIP3    H236906   6.652   4.269  14.650 -2.0725 -3.7102  1.0129
 5139TIP3   OH236907   5.790   3.495  11.049 -0.0282 -0.1860 -0.1352
 5139TIP3    H136908   5.721   3.560  11.035  1.4962  1.1330 -2.0312
 5139TIP3    H236909   5.853   3.511  10.979  2.1968 -1.3868  1.4501
 5140TIP3   OH236910   4.551   0.481  16.321  0.2553  0.1940  0.0465
 5140TIP3    H136911   4.562   0.541  16.247 -1.2970  1.2614  0.6240
 5140TIP3    H236912   4.499   0.531  16.384  1.9378 -0.4935  2.0870
 5141TIP3   OH236913   2.066   6.279   0.044 -0.5974  0.9625 -0.1135
 5141TIP3    H136914   1.998   6.282  -0.023 -0.4036  1.6752 -0.2825
 5141TIP3    H236915   2.061   6.364   0.088 -0.0787  0.8657  0.1386
 5142TIP3   OH236916   6.232   5.496  11.456  0.1867 -0.0161  0.2270
 5142TIP3    H136917   6.250   5.489  11.363 -0.3170  0.2736  0.0978
 5142TIP3    H236918   6.241   5.589  11.475 -0.4297  0.0378  0.3009
 5143TIP3   OH236919   5.023   4.690   2.744 -0.0998 -0.2757  0.3495
 5143TIP3    H136920   5.116   4.666   2.748  0.2814  1.0158 -0.1635
 5143TIP3    H236921   5.002   4.719   2.833 -0.5648 -2.3325  0.9783
 5144TIP3   OH236922   3.646   3.338  11.252 -0.7642  0.2877  0.1236
 5144TIP3    H136923   3.690   3.359  11.169 -1.3453 -2.2159 -0.8787
 5144TIP3    H236924   3.708   3.283  11.299 -1.3085 -0.0846  0.4130
 5145TIP3   OH236925   5.470   0.452  13.555  0.2422 -0.0835 -0.0407
 5145TIP3    H136926   5.550   0.501  13.574 -0.2547  0.2658  1.2794
 5145TIP3    H236927   5.469   0.442  13.460  1.2406  0.9576 -0.1749
 5146TIP3   OH236928   3.845   5.438   2.148  0.4573 -0.0296 -0.1263
 5146TIP3    H136929   3.938   5.449   2.167  0.2183  0.1669  0.9937
 5146TIP3    H236930   3.820   5.359   2.195 -0.8003  2.0310  2.9827
 5147TIP3   OH236931   1.127   5.997  11.828  0.0158 -0.0179 -0.0271
 5147TIP3    H136932   1.191   6.018  11.760  1.0512  0.4099  1.0543
 5147TIP3    H236933   1.114   6.079  11.876  0.8408 -0.7444  1.5349
 5148TIP3   OH236934   5.560   2.315  14.595  0.8236 -0.3500  0.2405
 5148TIP3    H136935   5.506   2.383  14.554  2.6697  0.1920 -1.4227
 5148TIP3    H236936   5.581   2.350  14.682  0.6724  0.5988 -0.0926
 5149TIP3   OH236937   2.063   2.649  15.495  0.6773 -0.1939 -0.0591
 5149TIP3    H136938   2.139   2.604  15.458 -0.0491 -1.8639  0.3697
 5149TIP3    H236939   1.988   2.611  15.448 -0.1718 -1.4725  2.1383
 5150TIP3   OH236940   2.204   0.906  13.904 -0.4064  0.0364 -0.2225
 5150TIP3    H136941   2.129   0.884  13.960 -0.9667 -0.6144 -1.1877
 5150TIP3    H236942   2.208   0.834  13.841 -0.7575  1.4873 -1.9767
 5151TIP3   OH236943   1.612   0.130   5.289 -0.7333 -0.2129  0.4936
 5151TIP3    H136944   1.704   0.136   5.263 -0.8214 -1.0600 -0.0457
 5151TIP3    H236945   1.573   0.213   5.260 -0.4788 -0.4945 -0.7363
 5152TIP3   OH236946   0.083   6.483  11.836  0.3283  0.0639  0.2186
 5152TIP3    H136947  -0.008   6.469  11.860 -0.0316  1.5052 -0.2569
 5152TIP3    H236948   0.133   6.429  11.898 -0.8240 -0.7345  0.4807
 5153TIP3   OH236949   1.210   2.270  16.267  0.5022  0.5269 -0.0707
 5153TIP3    H136950   1.211   2.361  16.239 -0.8190  0.3578 -0.7536
 5153TIP3    H236951   1.122   2.256  16.302  1.1948 -0.0689  1.5301
 5154TIP3   OH236952   2.934   0.968  15.458  0.1643  0.1336 -0.1676
 5154TIP3    H136953   3.023   0.942  15.434  0.8367  1.2778  1.0284
 5154TIP3    H236954   2.943   1.016  15.539 -1.3590  1.7057 -0.8604
 5155TIP3   OH236955   0.394   5.503  12.399 -0.1641  0.1806  0.3360
 5155TIP3    H136956   0.374   5.409  12.404  0.5285  0.0728  1.6355
 5155TIP3    H236957   0.327   5.539  12.342 -2.5468 -0.5434  2.5093
 5156TIP3   OH236958   0.437   2.215   4.002 -0.2863 -0.1500  0.0276
 5156TIP3    H136959   0.392   2.243   4.082  0.7137 -0.2382  0.6283
 5156TIP3    H236960   0.381   2.247   3.931  0.4841  2.8641  0.6758
 5157TIP3   OH236961   2.248   2.337  16.970  0.2703 -0.3738  0.2755
 5157TIP3    H136962   2.190   2.269  17.003 -1.7636  0.7204 -0.8292
 5157TIP3    H236963   2.250   2.323  16.875  1.3052  0.0065  0.2319
 5158TIP3   OH236964   2.127   1.860   4.066  0.1542  0.2255  0.2890
 5158TIP3    H136965   2.187   1.935   4.058  0.5957 -0.0842  0.6669
 5158TIP3    H236966   2.162   1.809   4.139  0.6995 -1.1113 -0.8667
 5159TIP3   OH236967   6.598   3.122  12.922 -0.1805 -0.3607  0.1584
 5159TIP3    H136968   6.592   3.205  12.873 -0.3927 -0.9718 -0.8700
 5159TIP3    H236969   6.581   3.054  12.857 -3.4709 -1.1254  1.5938
 5160TIP3   OH236970   5.572   2.037   0.467  0.5361  0.2650  0.4851
 5160TIP3    H136971   5.590   2.125   0.434  1.2211  0.8959  2.4408
 5160TIP3    H236972   5.495   2.047   0.523 -1.8219 -1.1340 -2.1956
 5161TIP3   OH236973   5.778   2.042   1.320  0.0105  0.0169 -0.1605
 5161TIP3    H136974   5.754   1.950   1.303  1.2401 -0.4126  0.3340
 5161TIP3    H236975   5.780   2.049   1.415 -2.0739  1.1291 -0.1405
 5162TIP3   OH236976   2.222   5.228  10.574 -0.0372 -0.1769 -0.2538
 5162TIP3    H136977   2.242   5.174  10.650  0.8220  1.2383  0.5639
 5162TIP3    H236978   2.140   5.192  10.539  0.3086 -1.7533  0.4554
 5163TIP3   OH236979   2.980   1.066   5.017  0.5294  0.1391 -0.5374
 5163TIP3    H136980   3.068   1.101   5.003  2.1230 -1.9204  3.0102
 5163TIP3    H236981   2.966   1.074   5.111 -2.1433 -1.6688 -0.6901
 5164TIP3   OH236982   1.785   2.883   0.514 -0.1529 -0.2522  0.3613
 5164TIP3    H136983   1.825   2.967   0.492 -0.6686  0.4196  1.8355
 5164TIP3    H236984   1.816   2.864   0.602  1.4123 -2.5611 -0.5938
 5165TIP3   OH236985   5.851   1.774   1.858  0.1309  0.0069  1.0069
 5165TIP3    H136986   5.910   1.745   1.927  1.0593  0.6721  0.5055
 5165TIP3    H236987   5.797   1.697   1.839  1.3822 -0.8739  0.9056
 5166TIP3   OH236988   4.870   4.569   3.689 -0.3087 -0.0522  0.3726
 5166TIP3    H136989   4.846   4.657   3.661  0.2511 -0.5724 -1.9973
 5166TIP3    H236990   4.946   4.581   3.746 -0.5434  1.0217  0.4674
 5167TIP3   OH236991   6.251   2.217   2.750  0.0250 -0.9631 -0.2676
 5167TIP3    H136992   6.198   2.235   2.672  0.4424 -0.9179 -0.5417
 5167TIP3    H236993   6.247   2.122   2.759 -1.3425 -0.8473  0.5929
 5168TIP3   OH236994   0.562   6.335  12.371  0.2392  0.0497  0.2121
 5168TIP3    H136995   0.579   6.421  12.407  3.1013 -1.1999  2.1428
 5168TIP3    H236996   0.533   6.283  12.446 -0.3270 -0.9653 -0.6845
 5169TIP3   OH236997   4.735   3.288  11.680  0.5149 -0.4776  0.4352
 5169TIP3    H136998   4.782   3.369  11.700 -0.4557  0.1190  0.3806
 5169TIP3    H236999   4.643   3.310  11.695  0.1227 -1.2139 -0.7350
 5170TIP3   OH237000   2.608   3.489  16.943 -0.5640 -0.0584 -0.3220
 5170TIP3    H137001   2.582   3.398  16.926  0.3402 -0.2831 -0.6138
 5170TIP3    H237002   2.581   3.506  17.033  0.0566 -0.9297  0.0469
 5171TIP3   OH237003   5.868   3.331   5.409  0.6382  0.3366 -0.0893
 5171TIP3    H137004   5.906   3.323   5.496  2.7737  1.4912 -0.8381
 5171TIP3    H237005   5.920   3.399   5.366 -2.1152  1.8098 -1.3549
 5172TIP3   OH237006   3.628   4.968   0.856  0.7987 -0.7290 -0.3057
 5172TIP3    H137007   3.685   4.946   0.783  0.4762 -0.7142 -0.5669
 5172TIP3    H237008   3.643   4.900   0.920  0.6656 -1.0613 -0.6235
 5173TIP3   OH237009   4.233   4.084   5.963 -0.1035 -0.1050 -0.0925
 5173TIP3    H137010   4.324   4.058   5.946  0.9843  0.9236  3.3438
 5173TIP3    H237011   4.187   4.062   5.882  3.0330 -1.3181 -1.7483
 5174TIP3   OH237012   3.579   2.879  11.299  0.8073  0.1898  0.9480
 5174TIP3    H137013   3.573   2.877  11.394 -0.4441 -0.2311  0.8823
 5174TIP3    H237014   3.520   2.950  11.273 -0.7984 -1.2726  0.3980
 5175TIP3   OH237015   0.307   6.730  14.307  0.4189 -0.4890 -0.2266
 5175TIP3    H137016   0.240   6.718  14.374  0.1224 -0.6849 -0.5546
 5175TIP3    H237017   0.363   6.654  14.314  0.3402 -0.5500 -0.2494
 5176TIP3   OH237018   0.636   1.406  14.219 -0.6660  0.9621 -0.6608
 5176TIP3    H137019   0.557   1.454  14.244 -0.8838  0.4706 -0.3978
 5176TIP3    H237020   0.616   1.372  14.132 -0.1420  2.1526 -1.2715
 5177TIP3   OH237021   1.191   4.571  11.666  0.2221 -0.0495  0.2669
 5177TIP3    H137022   1.188   4.548  11.759  1.1033 -0.7249  0.1378
 5177TIP3    H237023   1.263   4.519  11.631  1.0054  1.4506 -0.4440
 5178TIP3   OH237024   3.511   4.750   5.844 -0.4534 -0.0434  0.1749
 5178TIP3    H137025   3.561   4.804   5.783 -1.1432 -0.2435 -0.5801
 5178TIP3    H237026   3.577   4.716   5.905  0.0477  1.2904  0.4142
 5179TIP3   OH237027   5.361   2.519   0.402  0.0847 -0.1075 -0.3266
 5179TIP3    H137028   5.440   2.526   0.348  0.6999  0.8516  0.6530
 5179TIP3    H237029   5.344   2.609   0.431 -1.4260 -0.2851 -0.5863
 5180TIP3   OH237030   5.316   3.006   0.638  0.0744 -0.6758 -0.4756
 5180TIP3    H137031   5.285   2.959   0.715  0.1823 -0.0303 -0.0320
 5180TIP3    H237032   5.328   3.096   0.668 -1.6857  0.0331 -1.6911
 5181TIP3   OH237033   3.789   0.018  12.685  0.3758  0.3499 -0.1825
 5181TIP3    H137034   3.698   0.007  12.714  0.4090  1.0421  0.2071
 5181TIP3    H237035   3.813  -0.067  12.650 -0.2105 -0.0305  0.3165
 5182TIP3   OH237036   5.887   6.482  15.116  0.6480  0.2234  0.4229
 5182TIP3    H137037   5.858   6.573  15.117 -0.3716 -0.0929  0.8619
 5182TIP3    H237038   5.867   6.450  15.204  0.7791 -0.4949  0.1958
 5183TIP3   OH237039   2.279   4.070  17.253  0.1964  0.2572  0.0669
 5183TIP3    H137040   2.194   4.071  17.207 -0.5585 -2.5131  1.2174
 5183TIP3    H237041   2.316   3.984  17.233  1.0383 -0.0101  2.4993
 5184TIP3   OH237042   2.525   5.319   3.823  0.5517  0.1885  0.2110
 5184TIP3    H137043   2.510   5.234   3.781 -0.2016  0.4895 -0.1543
 5184TIP3    H237044   2.513   5.383   3.753 -0.5024  0.6884  0.8127
 5185TIP3   OH237045   5.073   5.088   5.271 -0.0327 -0.4876  0.3289
 5185TIP3    H137046   5.168   5.096   5.286 -0.2380 -1.3979  2.7307
 5185TIP3    H237047   5.042   5.178   5.263  0.8720 -0.0963  0.9673
 5186TIP3   OH237048   2.857   0.524  13.691  0.3799 -0.2238  0.4494
 5186TIP3    H137049   2.833   0.593  13.629 -1.6509  0.1611  1.5639
 5186TIP3    H237050   2.950   0.538  13.708  0.6099  0.6309 -1.2985
 5187TIP3   OH237051   4.395   2.117   5.268  0.2568 -0.0018  0.9535
 5187TIP3    H137052   4.402   2.040   5.324 -2.4848 -0.8308  0.2882
 5187TIP3    H237053   4.374   2.188   5.328 -1.1216 -0.5733  1.1665
 5188TIP3   OH237054   5.656   5.911  16.992 -0.2800 -0.4366  0.0710
 5188TIP3    H137055   5.674   5.995  17.033 -0.9209 -0.2613  0.0110
 5188TIP3    H237056   5.560   5.905  16.992 -0.2197 -1.4893  0.7249
 5189TIP3   OH237057   4.160   6.081   6.706  0.0659 -0.6094  0.0152
 5189TIP3    H137058   4.077   6.044   6.676 -0.6924  1.9373 -1.2352
 5189TIP3    H237059   4.210   6.097   6.626  0.1056  1.5367  0.4115
 5190TIP3   OH237060   1.582   5.562  12.833 -0.5395  0.1372  0.8732
 5190TIP3    H137061   1.533   5.598  12.760  0.7766  0.2065 -0.0191
 5190TIP3    H237062   1.660   5.523  12.793 -0.5228 -1.1734  2.0901
 5191TIP3   OH237063   6.662   3.715  14.138 -0.0717  0.0665 -0.3769
 5191TIP3    H137064   6.642   3.742  14.228  0.3468  2.0577 -0.8248
 5191TIP3    H237065   6.676   3.621  14.144 -1.5893 -0.1218  1.3536
 5192TIP3   OH237066   5.197   3.067  14.183  0.1381  0.2557  0.7129
 5192TIP3    H137067   5.150   3.150  14.188  1.5899  1.0433  2.0624
 5192TIP3    H237068   5.288   3.091  14.166  0.4690 -1.1134  0.3559
 5193TIP3   OH237069   2.159   1.628   4.248  0.2737  0.3998 -0.0008
 5193TIP3    H137070   2.121   1.665   4.328 -1.7882 -1.2515 -0.1179
 5193TIP3    H237071   2.228   1.569   4.278 -0.2708  0.0397  0.5628
 5194TIP3   OH237072   0.991   1.526   1.773 -0.1173  0.2788  0.6810
 5194TIP3    H137073   1.057   1.467   1.737  0.5402  0.4679  1.5319
 5194TIP3    H237074   1.028   1.614   1.759 -0.2337  0.3915  1.0664
 5195TIP3   OH237075   6.686   5.463   4.913 -0.4539 -0.4696 -0.6326
 5195TIP3    H137076   6.711   5.474   4.822 -0.7968 -1.1792 -0.8167
 5195TIP3    H237077   6.763   5.425   4.955  0.2926  1.3639 -0.2580
 5196TIP3   OH237078   5.381   1.032   2.228  0.3541 -0.3610 -0.0911
 5196TIP3    H137079   5.314   1.023   2.296  1.0895 -0.5353  0.6185
 5196TIP3    H237080   5.463   1.045   2.275  0.9950 -1.2188 -0.9256
 5197TIP3   OH237081   2.771   0.376  12.188  0.3351 -0.3165 -0.1815
 5197TIP3    H137082   2.705   0.366  12.258  0.4137  0.2308 -0.0284
 5197TIP3    H237083   2.757   0.464  12.154  0.0342 -0.7231 -1.1411
 5198TIP3   OH237084   1.018   1.891  16.940  0.2440  0.0625  0.1783
 5198TIP3    H137085   0.954   1.911  17.009  1.6004  1.6745  1.0317
 5198TIP3    H237086   1.009   1.797  16.925 -0.2091 -0.3018  2.4435
 5199TIP3   OH237087   6.090   0.467   1.286  0.3481  0.8587 -0.8204
 5199TIP3    H137088   6.004   0.434   1.260 -0.7472  1.4799  1.7103
 5199TIP3    H237089   6.071   0.525   1.360  3.2580 -2.1509  2.6288
 5200TIP3   OH237090   5.256   3.602  12.784  0.8888 -0.1148 -0.3689
 5200TIP3    H137091   5.276   3.520  12.739 -1.4325  0.0444 -1.8814
 5200TIP3    H237092   5.301   3.595  12.868  1.5482 -2.4879 -0.8405
 5201TIP3   OH237093   6.595   4.457   0.719 -0.0800  0.3188  0.3764
 5201TIP3    H137094   6.551   4.431   0.639  1.3676  0.6811 -0.5713
 5201TIP3    H237095   6.688   4.459   0.696  0.3572  0.5909  2.0169
 5202TIP3   OH237096   6.282   4.405   5.678  0.2013  0.2920 -0.1133
 5202TIP3    H137097   6.187   4.411   5.673  0.1735  1.3642  1.1212
 5202TIP3    H237098   6.313   4.484   5.635  0.3804  1.6880  2.3891
 5203TIP3   OH237099   5.564   0.284   4.325  0.8333 -0.3737  0.3635
 5203TIP3    H137100   5.540   0.361   4.376  3.0370  0.1015  0.7851
 5203TIP3    H237101   5.549   0.210   4.385 -3.6859 -0.7041 -0.8335
 5204TIP3   OH237102   2.101   4.733   0.296 -0.1548 -0.5265  0.3352
 5204TIP3    H137103   2.071   4.788   0.223 -2.5151 -3.5340 -1.1745
 5204TIP3    H237104   2.042   4.755   0.369  0.6097  0.7263  0.6013
 5205TIP3   OH237105   1.423   3.731  11.980  0.4124  0.2760 -0.2243
 5205TIP3    H137106   1.518   3.735  11.984  0.5256 -2.2014  1.0538
 5205TIP3    H237107   1.404   3.672  11.906 -0.2608  2.2503 -1.7299
 5206TIP3   OH237108   5.502   2.373   2.535  0.4711  0.0225 -0.3277
 5206TIP3    H137109   5.480   2.323   2.613  2.0550  0.7522  0.6303
 5206TIP3    H237110   5.597   2.364   2.526  0.8068  2.6735 -0.2080
 5207TIP3   OH237111   3.370   0.228   4.119  0.6973  0.3352  0.2969
 5207TIP3    H137112   3.428   0.274   4.058 -0.8169 -0.5397 -1.9118
 5207TIP3    H237113   3.424   0.158   4.155  1.0800 -0.4864 -1.7359
 5208TIP3   OH237114   0.263   2.387  16.478  0.0455  0.4867 -0.0545
 5208TIP3    H137115   0.265   2.328  16.554  0.1520 -0.7532 -0.9984
 5208TIP3    H237116   0.202   2.345  16.417  1.7922  0.1467 -1.6712
 5209TIP3   OH237117   5.263   4.035  13.352  0.0929  0.1185 -0.3008
 5209TIP3    H137118   5.277   4.121  13.314  0.9163 -0.3744 -1.1801
 5209TIP3    H237119   5.173   4.036  13.384 -0.0132  1.1787 -0.6049
 5210TIP3   OH237120   0.292   3.683   5.737  0.1728  0.5205 -0.2105
 5210TIP3    H137121   0.347   3.611   5.767 -0.8747 -0.0835  0.3152
 5210TIP3    H237122   0.277   3.665   5.644 -1.0010 -0.5814  0.1689
 5211TIP3   OH237123   3.532   4.066   2.924  0.2413  0.5691  0.2461
 5211TIP3    H137124   3.556   4.019   3.004 -3.6887  0.8738  1.8633
 5211TIP3    H237125   3.507   3.998   2.862  0.7708  0.3721  0.2509
 5212TIP3   OH237126   4.229   5.479  12.367 -0.2543  0.0132 -0.1845
 5212TIP3    H137127   4.309   5.435  12.337 -0.5799 -1.6156  1.1559
 5212TIP3    H237128   4.260   5.553  12.419  0.3411  0.3264 -0.9648
 5213TIP3   OH237129   0.651   4.249   3.752  0.2983  0.2768 -0.4117
 5213TIP3    H137130   0.646   4.251   3.848  0.8841 -1.3978 -0.3101
 5213TIP3    H237131   0.739   4.280   3.732  0.5668 -0.4352 -0.3400
 5214TIP3   OH237132   1.272   4.197  11.894  0.3670 -0.2450 -0.0812
 5214TIP3    H137133   1.262   4.102  11.902 -3.2420 -0.1032 -1.2590
 5214TIP3    H237134   1.364   4.209  11.869  0.7089 -3.4964 -0.8750
 5215TIP3   OH237135   0.901   1.719   3.704  0.2527  0.0628 -0.1766
 5215TIP3    H137136   0.840   1.742   3.773 -0.8478 -0.8369 -0.8178
 5215TIP3    H237137   0.851   1.727   3.623  1.8045  2.1290 -1.0285
 5216TIP3   OH237138   5.290   4.332  11.431 -0.1950 -0.0385  0.4196
 5216TIP3    H137139   5.363   4.280  11.396  0.7971  2.6300 -1.8848
 5216TIP3    H237140   5.332   4.394  11.492 -0.9311 -0.0967  0.9990
 5217TIP3   OH237141   2.769   4.421   4.458 -0.8983  0.5790  0.1512
 5217TIP3    H137142   2.745   4.387   4.372 -1.5900  0.2854  0.4547
 5217TIP3    H237143   2.801   4.346   4.507 -1.1450  0.6147  0.3723
 5218TIP3   OH237144   2.456   5.043   3.280  0.2158  1.1595  0.4269
 5218TIP3    H137145   2.371   5.009   3.253 -0.1928  1.5315  1.1957
 5218TIP3    H237146   2.510   4.964   3.291 -0.7928  0.6741  2.4406
 5219TIP3   OH237147   2.320   0.584   5.538  0.7357 -0.1280 -0.2928
 5219TIP3    H137148   2.396   0.642   5.549  0.5959  0.3104 -1.5753
 5219TIP3    H237149   2.357   0.503   5.504  0.5132  0.5099 -2.1308
 5220TIP3   OH237150   5.470   2.299  15.307 -0.0164 -0.2219  0.2014
 5220TIP3    H137151   5.464   2.205  15.286 -1.5137  0.5192 -3.5527
 5220TIP3    H237152   5.553   2.308  15.353  0.4080 -3.3269  0.2536
 5221TIP3   OH237153   2.360   6.609   2.080  0.1309  0.4616  0.7446
 5221TIP3    H137154   2.452   6.633   2.066 -0.2907  1.1708 -1.1801
 5221TIP3    H237155   2.316   6.635   1.999 -1.4051 -1.8515  0.7370
 5222TIP3   OH237156   5.873   5.262  11.146  0.5467 -0.2361 -0.1467
 5222TIP3    H137157   5.900   5.263  11.238 -1.7006  1.7100  0.6146
 5222TIP3    H237158   5.935   5.319  11.102  1.8447 -1.4462  0.0572
 5223TIP3   OH237159   5.255   4.239  17.259  0.0741  0.3110  0.0164
 5223TIP3    H137160   5.170   4.211  17.291  0.6695 -0.0139  1.3893
 5223TIP3    H237161   5.250   4.228  17.164 -2.7045  3.8552 -0.4715
 5224TIP3   OH237162   1.119   6.145  12.922  0.1996 -0.3622  0.3251
 5224TIP3    H137163   1.027   6.168  12.931  0.3157 -0.0368  0.7184
 5224TIP3    H237164   1.152   6.142  13.012  0.8443  0.6832  0.1504
 5225TIP3   OH237165   3.347   1.005  15.488  0.6473  0.1880 -0.1912
 5225TIP3    H137166   3.338   1.043  15.401 -3.0264 -0.4673 -0.2443
 5225TIP3    H237167   3.289   0.929  15.488  1.0955 -0.2816  2.6143
 5226TIP3   OH237168   5.610   3.422  11.273 -0.9921 -0.2928  0.2484
 5226TIP3    H137169   5.692   3.411  11.226  0.3180  0.2883  2.2897
 5226TIP3    H237170   5.542   3.411  11.206  0.7239 -0.7148 -1.4966
 5227TIP3   OH237171   4.661   0.567   3.729 -0.4217  0.3126 -0.1478
 5227TIP3    H137172   4.666   0.543   3.822  1.6002  0.4376 -0.1865
 5227TIP3    H237173   4.657   0.663   3.730  0.5252  0.3583 -0.1978
 5228TIP3   OH237174   3.439   2.021  16.054  0.1127  0.9386 -0.3169
 5228TIP3    H137175   3.503   2.037  15.985  0.9697 -0.8063  0.0273
 5228TIP3    H237176   3.490   1.986  16.127 -1.0354  0.9185  0.5068
 5229TIP3   OH237177   2.481   0.719  13.866  0.3518 -0.0730  0.3981
 5229TIP3    H137178   2.434   0.667  13.932 -0.1448  0.0457  0.1456
 5229TIP3    H237179   2.461   0.675  13.783  0.1939  0.3359  0.2196
 5230TIP3   OH237180   2.462   5.092   0.643 -0.0023  0.1434  0.2807
 5230TIP3    H137181   2.483   5.055   0.557  1.0621  1.1580  0.0813
 5230TIP3    H237182   2.540   5.076   0.696 -0.1613  0.6486  0.6744
 5231TIP3   OH237183   5.397   1.876  14.792  0.3611  0.2595  0.0436
 5231TIP3    H137184   5.370   1.864  14.701 -1.3244 -0.5836  0.6185
 5231TIP3    H237185   5.417   1.970  14.798  1.1967  0.1949 -1.3547
 5232TIP3   OH237186   5.276   4.071  15.488  0.4542  0.5327 -0.6145
 5232TIP3    H137187   5.349   4.026  15.445 -0.7570 -2.5103  0.2654
 5232TIP3    H237188   5.214   4.001  15.510 -1.0633  2.5174  1.9498
 5233TIP3   OH237189   4.485   1.141   2.551 -0.1299 -0.2727  0.6615
 5233TIP3    H137190   4.393   1.166   2.552 -0.1289 -0.2035 -0.1021
 5233TIP3    H237191   4.488   1.058   2.599 -0.2811  0.6594  2.3518
 5234TIP3   OH237192   6.475   5.813   4.285  0.9003  0.1840 -0.0980
 5234TIP3    H137193   6.385   5.843   4.300  1.1982  0.6354  0.8557
 5234TIP3    H237194   6.529   5.869   4.341  1.5153 -1.7679  1.3812
 5235TIP3   OH237195   4.929   2.773   2.053  0.0311 -0.3977  0.0563
 5235TIP3    H137196   4.973   2.689   2.044 -0.8259 -0.9795  1.0232
 5235TIP3    H237197   4.850   2.754   2.104  0.3647  1.1622  1.2548
 5236TIP3   OH237198   5.003   5.198   0.414 -0.0196 -0.7355 -0.6338
 5236TIP3    H137199   5.074   5.149   0.373 -0.1741 -0.0022 -1.8207
 5236TIP3    H237200   4.924   5.167   0.371 -0.2511 -0.3420 -0.4993
 5237TIP3   OH237201   5.266   0.753   1.599 -0.3457  0.5380  0.0834
 5237TIP3    H137202   5.204   0.769   1.670 -1.5032 -0.5965 -0.6264
 5237TIP3    H237203   5.318   0.833   1.593 -0.7678  0.9556  1.6558
 5238TIP3   OH237204   3.141   2.638  14.283  0.2952  0.2301 -0.2876
 5238TIP3    H137205   3.232   2.661  14.266  0.2729  0.7853  0.3150
 5238TIP3    H237206   3.090   2.707  14.241  0.1612 -0.0092 -0.5147
 5239TIP3   OH237207   2.038   6.551  15.340 -0.2347  0.5101  0.3248
 5239TIP3    H137208   2.072   6.629  15.295 -0.4772  0.2840 -0.2497
 5239TIP3    H237209   2.116   6.503  15.366 -0.0127 -1.2430 -3.0954
 5240TIP3   OH237210   5.297   1.436  12.226  0.3289 -0.0061 -0.2517
 5240TIP3    H137211   5.298   1.340  12.234 -1.9677 -0.0768 -0.0728
 5240TIP3    H237212   5.295   1.467  12.317  0.1146  0.1622 -0.3135
 5241TIP3   OH237213   2.344   1.475   1.855 -0.7999  0.3798  0.0214
 5241TIP3    H137214   2.358   1.380   1.857 -1.5151  0.2795  0.3664
 5241TIP3    H237215   2.279   1.492   1.923 -2.0602  0.8893 -1.2500
 5242TIP3   OH237216   0.671   4.893  11.715  0.1668  0.3218 -0.3979
 5242TIP3    H137217   0.730   4.923  11.784  1.0368 -0.7389 -0.6521
 5242TIP3    H237218   0.585   4.922  11.743  0.6043  0.5296  0.7819
 5243TIP3   OH237219   3.281   6.307   4.272 -0.4534  0.5204  0.3689
 5243TIP3    H137220   3.289   6.304   4.176  0.3336  0.1983  0.4395
 5243TIP3    H237221   3.191   6.279   4.289 -0.1048 -1.0379 -0.1973
 5244TIP3   OH237222   5.628   3.620   3.102 -0.7549 -0.6518  0.3351
 5244TIP3    H137223   5.715   3.636   3.065 -0.1077 -0.3571  1.9005
 5244TIP3    H237224   5.613   3.696   3.158 -1.2116 -1.6000  1.5175
 5245TIP3   OH237225   0.232   5.424  15.004 -0.3345  0.0539  0.1553
 5245TIP3    H137226   0.145   5.422  14.964 -1.0478  0.0868  1.6413
 5245TIP3    H237227   0.244   5.515  15.031 -0.3824 -0.2173  1.1004
 5246TIP3   OH237228   2.929   1.943  14.080 -0.2548 -0.1323  0.1752
 5246TIP3    H137229   2.996   1.973  14.140  2.3844 -2.5581 -1.2883
 5246TIP3    H237230   2.883   2.023  14.053  3.3612  2.0427 -0.2259
 5247TIP3   OH237231   2.572   3.186   5.714  0.3688  0.0110 -0.4160
 5247TIP3    H137232   2.571   3.278   5.742  0.0502 -0.0042 -0.3802
 5247TIP3    H237233   2.550   3.190   5.621  0.9831  0.0225 -0.5702
 5248TIP3   OH237234   4.672   0.292   3.223 -0.0198  0.1144  0.2465
 5248TIP3    H137235   4.607   0.260   3.285  0.5938  1.3216  1.5895
 5248TIP3    H237236   4.754   0.294   3.273  0.9676 -0.9075 -1.2492
 5249TIP3   OH237237   6.797   1.402  16.903 -0.2381  0.4017  0.2744
 5249TIP3    H137238   6.855   1.429  16.832 -0.0922  0.2344  0.3291
 5249TIP3    H237239   6.856   1.384  16.977 -0.4711  1.6785  0.7899
 5250TIP3   OH237240   2.792   3.892   5.189 -0.2790  0.2068  0.6336
 5250TIP3    H137241   2.715   3.886   5.245  0.9174 -0.4647  2.2787
 5250TIP3    H237242   2.824   3.802   5.182  1.7687  0.7320  2.1266
 5251TIP3   OH237243   5.261   3.881   1.154  0.1560 -0.2419  0.7369
 5251TIP3    H137244   5.291   3.819   1.087  0.3527  0.4006  0.2263
 5251TIP3    H237245   5.257   3.828   1.234 -0.0622 -1.0146  0.2312
 5252TIP3   OH237246   0.226   0.432   0.802 -0.4731 -0.1105 -0.0510
 5252TIP3    H137247   0.317   0.408   0.819 -0.5212 -0.6620 -0.5272
 5252TIP3    H237248   0.232   0.511   0.747 -0.2424 -0.8924 -1.1935
 5253TIP3   OH237249   4.435   4.242   3.903 -0.3273 -0.1977  0.3831
 5253TIP3    H137250   4.377   4.255   3.828 -0.1028 -0.5742  0.1324
 5253TIP3    H237251   4.392   4.174   3.955  0.3108 -1.1430 -0.2787
 5254TIP3   OH237252   1.423   2.286   2.338  0.3563  0.3382 -0.1938
 5254TIP3    H137253   1.481   2.211   2.321  0.6606  0.4614  0.2903
 5254TIP3    H237254   1.482   2.360   2.352  0.0421  0.9788 -2.0187
 5255TIP3   OH237255   6.180   2.258   4.292 -0.8338 -0.1823 -0.3705
 5255TIP3    H137256   6.224   2.283   4.211  1.3012  0.4317  0.9057
 5255TIP3    H237257   6.214   2.320   4.357 -1.1913 -1.7202  1.3358
 5256TIP3   OH237258   4.060   3.223   4.446  0.7830  0.4769  0.4377
 5256TIP3    H137259   4.095   3.147   4.492 -1.5622 -0.6958  0.4183
 5256TIP3    H237260   4.025   3.279   4.515  1.0944  0.7848  0.3471
 5257TIP3   OH237261   4.456   0.771  16.805 -0.1838  0.1454 -0.3715
 5257TIP3    H137262   4.373   0.801  16.768 -0.9990 -1.1230  0.3197
 5257TIP3    H237263   4.511   0.849  16.808 -1.5064  1.1205 -0.4176
 5258TIP3   OH237264   3.077   1.119   2.405 -0.2594  0.0676 -0.2730
 5258TIP3    H137265   3.058   1.097   2.313  1.1326 -1.2156 -0.2842
 5258TIP3    H237266   3.012   1.068   2.455  0.9398 -1.7380 -0.4498
 5259TIP3   OH237267   3.553   6.465  12.872  0.3976 -0.0561 -0.1756
 5259TIP3    H137268   3.550   6.550  12.917 -0.8703  0.2033 -0.6987
 5259TIP3    H237269   3.549   6.400  12.942  0.1015  0.3344  0.1764
 5260TIP3   OH237270   1.503   6.520  13.134  0.0730 -0.0347  0.1086
 5260TIP3    H137271   1.547   6.590  13.085 -1.8920  1.4316  0.3364
 5260TIP3    H237272   1.430   6.494  13.078  0.7988 -2.0010  0.0103
 5261TIP3   OH237273   1.016   3.733   1.568 -0.1705  0.6078 -0.8252
 5261TIP3    H137274   1.107   3.758   1.579 -0.4120  1.3882 -0.5003
 5261TIP3    H237275   0.982   3.724   1.658 -0.7598  1.6957 -0.9186
 5262TIP3   OH237276   5.965   3.197  12.075 -0.2237 -0.5705  0.3385
 5262TIP3    H137277   5.949   3.130  12.142 -0.2213 -0.1742  0.7402
 5262TIP3    H237278   5.882   3.245  12.070 -0.3448 -0.8282 -0.2084
 5263TIP3   OH237279   6.576   5.588  11.634  0.1498 -0.1058 -0.5662
 5263TIP3    H137280   6.552   5.504  11.673  1.4495 -0.5218 -0.5991
 5263TIP3    H237281   6.502   5.645  11.651  0.3025 -0.5144  1.7563
 5264TIP3   OH237282   2.459   5.376   2.351 -0.5429 -0.1800 -0.1399
 5264TIP3    H137283   2.465   5.328   2.268  1.6989 -0.1028 -0.0879
 5264TIP3    H237284   2.509   5.456   2.335 -1.8867  0.8554  0.6562
 5265TIP3   OH237285   5.429   4.744  16.234 -0.2195  0.1527  0.2429
 5265TIP3    H137286   5.398   4.765  16.322 -0.3197  2.1119 -0.2289
 5265TIP3    H237287   5.492   4.673  16.248 -0.8509 -0.1523  1.7937
 5266TIP3   OH237288   3.427   2.588   4.825 -0.0974  0.2520 -0.5628
 5266TIP3    H137289   3.471   2.580   4.910  0.5443  1.0985 -0.7906
 5266TIP3    H237290   3.334   2.578   4.845  0.0077  0.8225  0.3092
 5267TIP3   OH237291   3.999   2.900  16.795 -0.6110 -0.2857  0.4700
 5267TIP3    H137292   3.991   2.819  16.845  2.4113  0.4094  2.3616
 5267TIP3    H237293   3.961   2.967  16.852  2.6488  0.4812  1.9251
 5268TIP3   OH237294   6.139   1.199  15.373 -0.2818  0.7320  0.3079
 5268TIP3    H137295   6.083   1.135  15.330 -0.0540  1.7332 -1.5867
 5268TIP3    H237296   6.116   1.192  15.466  0.1668 -2.4622  0.3005
 5269TIP3   OH237297   1.371   6.527  15.312 -0.1988 -0.2428  0.2768
 5269TIP3    H137298   1.422   6.572  15.380  1.2533 -1.2540 -0.0998
 5269TIP3    H237299   1.435   6.504  15.245 -1.5663  0.5952 -1.4075
 5270TIP3   OH237300   1.908   1.897  12.302  0.2363 -0.7238 -0.5016
 5270TIP3    H137301   1.886   1.947  12.380  1.5448  0.5127 -0.9020
 5270TIP3    H237302   1.976   1.836  12.330 -0.7239 -1.7053 -0.2283
 5271TIP3   OH237303   4.218   1.337   4.737 -0.1260 -0.0626 -0.3971
 5271TIP3    H137304   4.199   1.430   4.736 -0.4160 -0.0494  1.9124
 5271TIP3    H237305   4.280   1.326   4.808 -0.4036 -1.6957 -0.3693
 5272TIP3   OH237306   4.683   4.309   4.099  0.1515  0.0274  0.3253
 5272TIP3    H137307   4.706   4.320   4.007  0.3671 -1.9425  0.0861
 5272TIP3    H237308   4.625   4.233   4.100 -1.4316  1.1951  1.6278
 5273TIP3   OH237309   4.897   0.948   1.962 -0.1881 -0.3669 -0.0809
 5273TIP3    H137310   4.854   0.875   2.005 -1.7515  0.1828 -0.6502
 5273TIP3    H237311   4.826   0.999   1.924  1.0065  0.1283 -1.7846
 5274TIP3   OH237312   3.729   4.818  12.522  0.0477  0.0250 -0.5350
 5274TIP3    H137313   3.765   4.764  12.592  1.7584 -0.1210 -1.4713
 5274TIP3    H237314   3.668   4.878  12.566  2.3159  1.0838  1.3560
 5275TIP3   OH237315   1.865   4.543   5.196  0.0779  0.2697 -0.7011
 5275TIP3    H137316   1.863   4.568   5.288  1.2034 -1.5409 -0.1162
 5275TIP3    H237317   1.957   4.519   5.180 -0.2902 -0.3477 -2.0201
 5276TIP3   OH237318   4.940   2.604   3.348 -0.2278 -0.3812 -0.7098
 5276TIP3    H137319   4.854   2.598   3.307 -1.1111 -0.1057  1.0026
 5276TIP3    H237320   5.000   2.617   3.276 -1.6265 -0.5293 -1.9514
 5277TIP3   OH237321   1.960   4.393   4.823  0.4888 -0.4359 -0.1057
 5277TIP3    H137322   1.872   4.416   4.852 -0.4742 -0.9577 -2.4106
 5277TIP3    H237323   2.011   4.473   4.838 -0.5973  0.1812  0.4253
 5278TIP3   OH237324   6.504   2.050   1.687  0.8132  0.3096  0.1642
 5278TIP3    H137325   6.493   2.135   1.647 -0.9480  0.4487  0.8621
 5278TIP3    H237326   6.435   1.996   1.649 -0.0051  0.0618  1.9127
 5279TIP3   OH237327   3.720   6.816  16.095  0.2674  0.2445 -0.0494
 5279TIP3    H137328   3.747   6.908  16.101  0.7785  0.0999 -0.1015
 5279TIP3    H237329   3.648   6.816  16.032  1.7565  0.2993 -1.8447
 5280TIP3   OH237330   1.991   4.546  11.033  0.1654  0.0510  0.5924
 5280TIP3    H137331   1.911   4.596  11.015 -0.1504  0.1268  2.0975
 5280TIP3    H237332   1.998   4.485  10.959 -0.8485  0.5828  0.0387
 5281TIP3   OH237333   5.617   0.683   4.190  0.5849  0.0765  0.2363
 5281TIP3    H137334   5.627   0.760   4.135  0.5307 -0.2719 -0.2694
 5281TIP3    H237335   5.645   0.610   4.135 -1.9339 -0.5994 -0.2730
 5282TIP3   OH237336   4.670   1.646  13.508 -0.7933 -0.2854 -0.2607
 5282TIP3    H137337   4.650   1.566  13.557  1.0107 -0.7978 -0.2994
 5282TIP3    H237338   4.733   1.693  13.562 -0.5989  0.3128 -0.9910
 5283TIP3   OH237339   0.428   2.673  12.647 -0.2603  0.1979 -0.4923
 5283TIP3    H137340   0.450   2.591  12.604 -0.4265 -0.6657  1.0102
 5283TIP3    H237341   0.512   2.711  12.671 -0.2089  0.0573 -0.4508
 5284TIP3   OH237342   3.952   0.834  14.399 -0.0089  0.3868  0.3715
 5284TIP3    H137343   3.918   0.791  14.321  0.4106 -1.6316  1.2115
 5284TIP3    H237344   3.876   0.846  14.455  0.0865 -1.0316  0.8679
 5285TIP3   OH237345   3.002   4.926  13.144 -0.0704  0.2002  0.0112
 5285TIP3    H137346   3.041   4.899  13.227  0.2479  0.3272 -0.0933
 5285TIP3    H237347   3.068   4.901  13.078 -1.2621 -2.0004 -0.4505
 5286TIP3   OH237348   5.648   1.944   2.015  0.5326  0.2154 -0.0447
 5286TIP3    H137349   5.712   1.892   1.966 -0.8511 -0.7961 -0.8793
 5286TIP3    H237350   5.674   2.035   2.001  1.7220 -0.1642 -0.4254
 5287TIP3   OH237351   5.618   4.410  15.501  0.5589  0.6560  0.9091
 5287TIP3    H137352   5.631   4.495  15.543  1.8130  0.8160  0.2499
 5287TIP3    H237353   5.620   4.347  15.573 -0.0092  1.1509  1.3650
 5288TIP3   OH237354   0.459   2.629  13.940 -0.7858  0.5865  0.0094
 5288TIP3    H137355   0.543   2.660  13.973 -0.5468 -1.2903  1.2767
 5288TIP3    H237356   0.482   2.562  13.875 -1.2908  0.1220  0.3011
 5289TIP3   OH237357   6.306   2.336   4.082 -0.5722 -0.4531  0.0910
 5289TIP3    H137358   6.294   2.326   3.987 -0.3497 -0.5251  0.0687
 5289TIP3    H237359   6.393   2.376   4.091  0.7122 -3.0923  0.3585
 5290TIP3   OH237360   2.306   1.268  16.013  0.5133  0.8758 -0.1383
 5290TIP3    H137361   2.387   1.221  15.997 -0.1282  0.4018 -2.4256
 5290TIP3    H237362   2.320   1.354  15.973 -0.2703  0.5893 -1.0696
 5291TIP3   OH237363   0.467   3.435   0.277  0.4548 -0.6238 -0.5103
 5291TIP3    H137364   0.541   3.488   0.247  0.8622 -1.0409 -0.2384
 5291TIP3    H237365   0.504   3.376   0.342 -0.0718 -1.0001 -0.5475
 5292TIP3   OH237366   1.527   1.131   1.968 -0.2030  0.4699  0.5923
 5292TIP3    H137367   1.564   1.177   1.893  0.4811 -0.5728  0.2556
 5292TIP3    H237368   1.435   1.117   1.946 -0.1813  0.8103  0.2821
 5293TIP3   OH237369   1.832   5.809  11.615  0.7119 -0.1965 -0.1498
 5293TIP3    H137370   1.743   5.774  11.604  0.4852  0.6911 -1.3369
 5293TIP3    H237371   1.862   5.772  11.698 -1.4641  0.9444  1.2271
 5294TIP3   OH237372   5.494   0.737  13.286  0.4048  0.0672 -0.1791
 5294TIP3    H137373   5.582   0.732  13.249 -0.2110 -0.9156 -1.6217
 5294TIP3    H237374   5.492   0.666  13.351 -0.2000 -1.9603 -2.2797
 5295TIP3   OH237375   0.185   2.830   3.882 -0.5991  0.0299 -0.2748
 5295TIP3    H137376   0.115   2.893   3.896  1.4987  2.3476  0.4799
 5295TIP3    H237377   0.196   2.787   3.966 -0.5331  0.3182 -0.1340
 5296TIP3   OH237378   5.976   5.657   6.109  0.1398  0.1072  0.3642
 5296TIP3    H137379   5.976   5.568   6.076  0.2910 -0.1466  1.0345
 5296TIP3    H237380   5.884   5.682   6.114  0.0663 -0.2298  0.7447
 5297TIP3   OH237381   1.445   0.805   4.167  0.0776  0.5107 -0.1967
 5297TIP3    H137382   1.483   0.717   4.172 -0.6279  0.2265  0.5708
 5297TIP3    H237383   1.511   0.862   4.205  1.0281  0.5077 -1.7435
 5298TIP3   OH237384   3.226   1.071  15.028 -0.2424 -0.2490 -0.4985
 5298TIP3    H137385   3.230   0.989  15.078  2.2999  0.1094  0.0144
 5298TIP3    H237386   3.281   1.053  14.951 -0.1973  0.7514 -0.7013
 5299TIP3   OH237387   3.306   4.059   5.570 -0.8183  0.1558  0.3816
 5299TIP3    H137388   3.243   4.009   5.623  0.5082  0.8376  2.7422
 5299TIP3    H237389   3.350   3.993   5.517 -0.9586 -0.8529  1.4725
 5300TIP3   OH237390   4.025   4.879  12.830  0.2523  0.3673 -0.0497
 5300TIP3    H137391   3.991   4.940  12.895  1.3005  0.4256  0.4614
 5300TIP3    H237392   4.039   4.933  12.752 -0.5804  0.3918 -0.1838
 5301TIP3   OH237393   6.269   6.357   1.234 -0.2164 -0.3007  0.2757
 5301TIP3    H137394   6.208   6.287   1.214  1.0516 -1.2381 -0.4358
 5301TIP3    H237395   6.293   6.342   1.326 -0.7830 -0.1259  0.4567
 5302TIP3   OH237396   5.785   2.777  16.532  0.3966  0.4606 -0.1082
 5302TIP3    H137397   5.742   2.830  16.600  1.1052  1.5624 -0.4950
 5302TIP3    H237398   5.878   2.795  16.543  0.7214 -1.2656  0.1911
 5303TIP3   OH237399   0.475   1.380  13.768  0.8660  0.6408 -0.2650
 5303TIP3    H137400   0.400   1.415  13.720 -0.8501 -1.7553  0.4806
 5303TIP3    H237401   0.519   1.323  13.705  1.8885  1.7076 -0.5658
 5304TIP3   OH237402   2.867   2.193  14.861  0.7702  0.1663 -0.1681
 5304TIP3    H137403   2.840   2.176  14.770  2.1072 -0.6437 -0.4479
 5304TIP3    H237404   2.933   2.127  14.878  1.6729  1.2962  0.8745
 5305TIP3   OH237405   4.768   5.808  14.137 -0.6911 -0.0453 -0.1010
 5305TIP3    H137406   4.837   5.873  14.136 -0.4030 -0.3498 -0.2020
 5305TIP3    H237407   4.787   5.751  14.063  0.0057 -1.2214  0.9516
 5306TIP3   OH237408   4.297   5.147  11.823  0.4197 -0.0063  0.0299
 5306TIP3    H137409   4.357   5.218  11.846  1.0740 -0.3458 -0.5616
 5306TIP3    H237410   4.230   5.187  11.768  1.3099  0.0045 -1.0937
 5307TIP3   OH237411   5.415   3.818   1.694  0.2075  0.2098  0.2597
 5307TIP3    H137412   5.433   3.748   1.631  0.3576  0.7747 -0.3404
 5307TIP3    H237413   5.468   3.795   1.770 -0.0361 -0.5263  0.2131
 5308TIP3   OH237414   6.548   1.271  11.867 -0.6044  0.1866 -0.2330
 5308TIP3    H137415   6.638   1.292  11.891 -0.6478 -1.1604  1.2857
 5308TIP3    H237416   6.521   1.342  11.809  1.5129  0.4760 -0.9610
 5309TIP3   OH237417   1.744   4.703   4.483 -0.4253  0.2382 -0.3698
 5309TIP3    H137418   1.730   4.780   4.538 -1.0190  1.0249 -1.6020
 5309TIP3    H237419   1.717   4.730   4.396  1.5852 -0.6076 -1.3152
 5310TIP3   OH237420   6.723   3.934  12.535  0.1545 -0.2507  0.0953
 5310TIP3    H137421   6.665   3.878  12.586  1.5362  0.2880  2.3847
 5310TIP3    H237422   6.749   4.004  12.595  0.0802  1.7556 -2.0681
 5311TIP3   OH237423   4.154   5.944   1.682  0.1116  0.4794  0.6546
 5311TIP3    H137424   4.132   5.906   1.597 -1.2249 -0.1360  1.2607
 5311TIP3    H237425   4.175   6.035   1.662 -0.1791  0.3424 -0.3309
 5312TIP3   OH237426   6.462   0.761   4.451  0.5850 -0.3968  0.9560
 5312TIP3    H137427   6.476   0.700   4.524  1.4643 -0.0416  1.0936
 5312TIP3    H237428   6.527   0.735   4.385 -0.4973 -1.0015  0.0894
 5313TIP3   OH237429   1.092   0.119  15.254  0.2887 -0.0237 -0.3686
 5313TIP3    H137430   1.046   0.158  15.329  1.7904 -1.3054  1.3079
 5313TIP3    H237431   1.168   0.176  15.242 -0.9402  1.3362 -2.2916
 5314TIP3   OH237432   3.996   0.106   3.761  0.2235  0.4487  0.4170
 5314TIP3    H137433   3.973   0.024   3.804  1.0035 -0.2453 -0.4412
 5314TIP3    H237434   3.981   0.089   3.668 -1.0145  1.7744  0.3538
 5315TIP3   OH237435   0.225   3.227   1.437 -0.5982 -0.0971  0.2797
 5315TIP3    H137436   0.142   3.186   1.412  0.5600 -1.9690 -0.6832
 5315TIP3    H237437   0.219   3.235   1.533 -2.4550  1.2211  0.1207
 5316TIP3   OH237438   5.252   5.729   0.658  0.2148  0.1324  0.3450
 5316TIP3    H137439   5.178   5.686   0.614  1.1479 -0.9864 -0.1817
 5316TIP3    H237440   5.281   5.796   0.596  1.1752 -1.0723 -0.5627
 5317TIP3   OH237441   4.246   3.759   5.687 -0.4941 -0.2177  0.2818
 5317TIP3    H137442   4.198   3.677   5.697  0.0940 -0.7675 -1.2917
 5317TIP3    H237443   4.274   3.761   5.596  1.2460  0.7719  0.7806
 5318TIP3   OH237444   1.942   0.396  13.302  0.2320  0.2167  0.4686
 5318TIP3    H137445   1.849   0.411  13.312  0.1482  1.9675 -1.9056
 5318TIP3    H237446   1.950   0.343  13.222  1.2649  4.3030 -2.4831
 5319TIP3   OH237447   5.781   3.569  16.430 -0.3129  0.2618  0.2932
 5319TIP3    H137448   5.802   3.543  16.520  0.1754 -0.8662 -0.1268
 5319TIP3    H237449   5.744   3.490  16.390  0.5373  0.3960 -0.8115
 5320TIP3   OH237450   4.870   6.733  13.243 -0.1567  0.3187  0.2734
 5320TIP3    H137451   4.829   6.646  13.251  2.8714 -1.3499 -0.6903
 5320TIP3    H237452   4.878   6.763  13.333 -0.4243 -0.8640  0.7178
 5321TIP3   OH237453   6.253   5.997  15.231 -0.5387  0.0285 -0.5823
 5321TIP3    H137454   6.326   6.043  15.273 -0.9727 -0.1242  0.3819
 5321TIP3    H237455   6.232   6.051  15.155  1.0577 -0.3407 -1.3214
 5322TIP3   OH237456   3.160   0.710   3.120  0.0185  0.7222 -0.4269
 5322TIP3    H137457   3.246   0.740   3.151 -0.6844  0.1371  2.3762
 5322TIP3    H237458   3.148   0.625   3.161 -1.6739  0.5433 -1.1995
 5323TIP3   OH237459   4.434   4.557  14.055 -1.0423 -0.3979 -0.5725
 5323TIP3    H137460   4.368   4.567  13.986  0.4679 -1.3968 -2.2695
 5323TIP3    H237461   4.513   4.597  14.017  0.1574 -2.0909  0.0493
 5324TIP3   OH237462   3.327   4.665   2.722 -0.2007  0.0919  0.6919
 5324TIP3    H137463   3.351   4.581   2.684 -0.2692  1.1115 -1.7447
 5324TIP3    H237464   3.244   4.648   2.767 -1.0400 -0.8155 -1.1094
 5325TIP3   OH237465   1.242   5.268  15.651 -0.8636 -0.4307 -0.5865
 5325TIP3    H137466   1.316   5.221  15.613 -0.0959  0.7682 -0.6498
 5325TIP3    H237467   1.282   5.341  15.699 -2.0071  0.5815 -1.0956
 5326TIP3   OH237468   6.697   2.681  15.005  0.1107 -0.4340 -0.1842
 5326TIP3    H137469   6.649   2.763  15.012 -0.0326 -0.6064  1.0025
 5326TIP3    H237470   6.645   2.617  15.055  0.6644 -1.0357 -0.3580
 5327TIP3   OH237471   6.624   5.391  17.294  0.2345  0.0664  0.1651
 5327TIP3    H137472   6.535   5.357  17.300  0.0782  0.3096 -0.6863
 5327TIP3    H237473   6.679   5.317  17.321 -0.2110 -0.1742  0.4251
 5328TIP3   OH237474   2.660   5.955   1.254  0.1500  0.0902  0.3089
 5328TIP3    H137475   2.657   6.035   1.202 -0.2112 -0.0886  0.0554
 5328TIP3    H237476   2.695   5.889   1.194  1.7355  0.3404  0.8937
 5329TIP3   OH237477   4.870   3.709  16.437  0.8514  0.4252 -0.1055
 5329TIP3    H137478   4.921   3.788  16.423  0.9122  0.9148  2.3856
 5329TIP3    H237479   4.858   3.705  16.532 -0.6377 -1.6284 -0.3140
 5330TIP3   OH237480   6.434   2.940  17.218  0.1615  0.1310  0.4606
 5330TIP3    H137481   6.456   3.019  17.169 -0.6223  1.4545  2.1342
 5330TIP3    H237482   6.339   2.936  17.217  0.1951 -1.2120 -0.1750
 5331TIP3   OH237483   3.297   2.428  16.438 -0.0642  0.2951 -0.0276
 5331TIP3    H137484   3.286   2.341  16.399  1.0521  1.1514 -2.4104
 5331TIP3    H237485   3.383   2.457  16.408 -0.1293  1.9730  1.2641
 5332TIP3   OH237486   0.137   5.337   0.959  0.1185  0.0890 -0.2695
 5332TIP3    H137487   0.075   5.379   1.018  0.2038 -0.0555 -0.0756
 5332TIP3    H237488   0.206   5.303   1.016  1.3460  1.8379 -0.6172
 5333TIP3   OH237489   1.654   2.966   3.798  0.0890 -0.0783  0.1271
 5333TIP3    H137490   1.581   3.005   3.750 -0.2253 -0.3570  0.3737
 5333TIP3    H237491   1.731   2.992   3.749 -0.2144 -0.1937 -0.4237
 5334TIP3   OH237492   5.962   6.296  14.050  0.1379  0.5209  0.4852
 5334TIP3    H137493   5.915   6.300  14.134 -2.9151 -0.6884 -1.0159
 5334TIP3    H237494   5.907   6.344  13.989  1.1593 -0.4366 -1.2876
 5335TIP3   OH237495   4.891   2.173  17.066  0.0357  0.6434 -0.1659
 5335TIP3    H137496   4.954   2.114  17.108  0.0783  1.0657  0.3746
 5335TIP3    H237497   4.901   2.157  16.972  1.1339  0.8857 -0.1028
 5336TIP3   OH237498   6.386   2.595  14.353 -0.1055 -0.3964  0.6359
 5336TIP3    H137499   6.347   2.683  14.359  1.9406  0.5756  0.4626
 5336TIP3    H237500   6.336   2.552  14.283  0.7927  1.7565 -1.4717
 5337TIP3   OH237501   4.067   1.743   2.310  0.0185 -0.2440 -0.0358
 5337TIP3    H137502   4.011   1.757   2.234  0.1849 -2.8585 -0.7185
 5337TIP3    H237503   4.104   1.830   2.328 -2.8219  1.2078 -0.6063
 5338TIP3   OH237504   5.017   5.462  12.877 -0.0691  0.5044  0.2768
 5338TIP3    H137505   5.074   5.532  12.844 -1.1839  1.0428 -0.5465
 5338TIP3    H237506   5.070   5.419  12.945  0.7128  2.0066  0.6705
 5339TIP3   OH237507   0.604   0.107   0.307 -0.1587  0.4497 -0.3141
 5339TIP3    H137508   0.637   0.139   0.391 -0.4714 -1.2530  0.4922
 5339TIP3    H237509   0.513   0.135   0.304 -1.0294 -1.9022  1.3018
 5340TIP3   OH237510   1.996   6.786  16.472 -0.1323  0.4999 -0.4153
 5340TIP3    H137511   1.922   6.788  16.411 -1.5004  1.4055  1.1969
 5340TIP3    H237512   1.975   6.852  16.538  1.3975 -0.2811  0.9290
 5341TIP3   OH237513   6.771   3.547  13.217  0.8814  0.1873 -0.2822
 5341TIP3    H137514   6.800   3.633  13.245  0.1462  0.7377 -1.1706
 5341TIP3    H237515   6.686   3.535  13.259 -0.4997  1.2544 -2.5764
 5342TIP3   OH237516   3.722   2.663  10.791  0.2976  0.2553 -0.1777
 5342TIP3    H137517   3.662   2.594  10.817  2.4194 -0.7347  2.5938
 5342TIP3    H237518   3.696   2.739  10.843  0.0107  0.5650 -0.7591
 5343TIP3   OH237519   3.374   5.598   2.202  0.1121 -0.6187  0.0731
 5343TIP3    H137520   3.382   5.654   2.279 -2.3296 -1.0378  0.7062
 5343TIP3    H237521   3.398   5.511   2.232 -1.7983 -0.9746  0.6912
 5344TIP3   OH237522   6.634   1.479  17.173 -0.3247  0.1134  0.2359
 5344TIP3    H137523   6.541   1.469  17.191 -0.0883  1.7717  3.0773
 5344TIP3    H237524   6.644   1.571  17.148  0.6859  0.4546  1.7400
 5345TIP3   OH237525   2.569   3.012  10.981  0.2972  0.5867 -0.1500
 5345TIP3    H137526   2.571   2.937  11.041  1.2253 -0.1517 -1.0661
 5345TIP3    H237527   2.477   3.021  10.956  0.2641 -0.6706 -0.5336
 5346TIP3   OH237528   1.137   6.225   3.199  0.2672  0.2666 -0.1348
 5346TIP3    H137529   1.224   6.190   3.182  0.6500  0.7028  0.8417
 5346TIP3    H237530   1.152   6.316   3.227 -0.4128  0.0926  0.8839
 5347TIP3   OH237531   4.601   1.907   5.015  0.2373 -0.6072 -0.6386
 5347TIP3    H137532   4.688   1.887   4.981  0.4014 -2.0517  0.4981
 5347TIP3    H237533   4.598   2.002   5.021  2.3824 -0.5591  0.7914
 5348TIP3   OH237534   5.542   6.658   3.925  0.0689  0.2762 -0.5173
 5348TIP3    H137535   5.584   6.699   3.849  2.9399  0.9297  1.2881
 5348TIP3    H237536   5.496   6.730   3.968  2.2675  1.0279  0.7642
 5349TIP3   OH237537   3.666   5.046  11.963 -0.3888  0.6258 -0.1367
 5349TIP3    H137538   3.698   5.130  11.929  0.3440  0.0712 -0.8669
 5349TIP3    H237539   3.704   4.981  11.904 -1.1558 -0.2072  0.2653
 5350TIP3   OH237540   4.309   6.565   1.799  0.0009 -0.0217 -0.2723
 5350TIP3    H137541   4.265   6.494   1.751 -0.0254 -1.2555  1.4780
 5350TIP3    H237542   4.401   6.557   1.775  0.2792 -1.7671  1.1166
 5351TIP3   OH237543   1.586   2.010  15.870  0.5203  0.2269  0.0620
 5351TIP3    H137544   1.587   1.940  15.806  1.6879 -1.1236  1.4785
 5351TIP3    H237545   1.545   1.971  15.948  1.2504  1.0709  0.9065
 5352TIP3   OH237546   1.181   4.798  15.432  0.9378 -0.0762 -0.1315
 5352TIP3    H137547   1.190   4.832  15.521 -0.2624  0.3848 -0.1619
 5352TIP3    H237548   1.103   4.742  15.437  2.1629 -1.8877 -0.3658
 5353TIP3   OH237549   1.150   6.081   5.593  0.6574 -0.4007 -0.2913
 5353TIP3    H137550   1.101   6.029   5.529 -0.7973  1.4370 -0.7538
 5353TIP3    H237551   1.102   6.070   5.675  0.8543 -0.4407 -0.1782
 5354TIP3   OH237552   0.997   3.929   5.818 -0.3312 -0.3394  0.4917
 5354TIP3    H137553   0.942   3.974   5.752  0.9741  1.2079  0.3892
 5354TIP3    H237554   0.973   3.837   5.810 -0.7991 -0.0935 -1.5976
 5355TIP3   OH237555   5.337   0.762   5.682 -0.0645  0.7332 -0.0085
 5355TIP3    H137556   5.368   0.779   5.771 -0.9397  1.7771  0.1176
 5355TIP3    H237557   5.334   0.848   5.641 -0.2077  0.3233 -0.8724
 5356TIP3   OH237558   6.509   2.308  16.869 -0.3378  0.0737  0.1849
 5356TIP3    H137559   6.422   2.341  16.891 -0.6703  0.2414 -1.2608
 5356TIP3    H237560   6.570   2.360  16.922 -1.1224 -0.3839  1.5900
 5357TIP3   OH237561   2.525   1.881   6.218  0.2967 -0.1566 -0.2554
 5357TIP3    H137562   2.497   1.831   6.294 -2.3163  0.5201 -0.6420
 5357TIP3    H237563   2.484   1.836   6.144  1.9961 -0.2498 -1.1711
 5358TIP3   OH237564   6.135   0.777  12.985 -0.2182 -0.1391  0.3694
 5358TIP3    H137565   6.192   0.707  13.015 -0.2224 -0.1868  0.2673
 5358TIP3    H237566   6.192   0.854  12.980  0.6691 -0.8480 -2.8233
 5359TIP3   OH237567   1.112   1.653   2.036  0.6261 -0.3979  0.0872
 5359TIP3    H137568   1.172   1.579   2.034  1.6621  0.3702  1.2626
 5359TIP3    H237569   1.077   1.654   2.125  0.1954  0.1831 -0.0836
 5360TIP3   OH237570   4.540   2.228  16.745  0.0134  0.2683 -0.2203
 5360TIP3    H137571   4.551   2.135  16.764  0.8043  0.3639 -0.1953
 5360TIP3    H237572   4.615   2.270  16.786 -1.5515  1.2244  1.8802
 5361TIP3   OH237573   6.492   6.504  16.585  0.4169 -0.8106 -0.4778
 5361TIP3    H137574   6.503   6.496  16.490 -0.5128 -0.5571 -0.6252
 5361TIP3    H237575   6.442   6.585  16.596  0.3812 -0.9221  0.2153
 5362TIP3   OH237576   2.325   2.694  11.480 -0.0408 -0.3093 -0.1603
 5362TIP3    H137577   2.407   2.712  11.526  0.1902  3.4331 -1.7023
 5362TIP3    H237578   2.258   2.697  11.548  0.8182 -0.6933  0.7296
 5363TIP3   OH237579   2.055   2.370   6.193 -0.1980  0.3075 -0.0111
 5363TIP3    H137580   2.132   2.407   6.236 -0.0747  0.5065 -0.4012
 5363TIP3    H237581   1.981   2.404   6.243 -0.0151 -0.6302  0.9488
 5364TIP3   OH237582   1.492   3.882  13.249  0.1858  0.8704 -0.2745
 5364TIP3    H137583   1.517   3.828  13.324 -0.1008  0.0846 -0.7332
 5364TIP3    H237584   1.474   3.819  13.179  0.0562  1.5744 -0.8865
 5365TIP3   OH237585   1.926   3.700   0.146  0.1607  0.0486  0.2892
 5365TIP3    H137586   1.867   3.662   0.211  0.2968 -0.4649  0.1230
 5365TIP3    H237587   1.894   3.667   0.062  0.9152 -0.5795  0.2287
 5366TIP3   OH237588   3.538   2.042   0.940 -0.2462 -0.5313 -0.0936
 5366TIP3    H137589   3.533   1.998   0.856  0.2845  1.4743 -1.2512
 5366TIP3    H237590   3.630   2.067   0.949 -0.7483  1.5523 -0.2039
 5367TIP3   OH237591   5.237   2.665   5.910 -0.0277 -0.2928  0.1681
 5367TIP3    H137592   5.208   2.707   5.829  0.9527 -0.8499 -0.4860
 5367TIP3    H237593   5.238   2.736   5.974 -0.5935  0.1977 -0.3483
 5368TIP3   OH237594   1.767   4.008   4.709  0.6269 -0.6083  0.0764
 5368TIP3    H137595   1.732   3.924   4.740 -0.9267 -0.4429 -1.1116
 5368TIP3    H237596   1.704   4.073   4.738  0.6199 -0.1274 -0.9766
 5369TIP3   OH237597   1.737   2.245   4.687 -0.3301  0.7756 -0.4241
 5369TIP3    H137598   1.764   2.228   4.597  0.0525 -0.1232 -0.1460
 5369TIP3    H237599   1.817   2.233   4.739 -0.8824 -0.2417  0.2143
 5370TIP3   OH237600   6.188   4.044   5.979 -0.2233 -1.0362 -0.0574
 5370TIP3    H137601   6.147   4.130   5.974  0.3662 -0.6993  0.8337
 5370TIP3    H237602   6.116   3.984   5.999 -0.5593 -0.6990 -0.2474
 5371TIP3   OH237603   5.174   2.411   6.337  0.2637 -0.2382  0.4113
 5371TIP3    H137604   5.189   2.317   6.337  0.6298 -0.2458 -2.0758
 5371TIP3    H237605   5.164   2.434   6.245  0.8942  2.2713  0.8886
 5372TIP3   OH237606   2.067   4.160   5.661 -0.2580 -0.8797  0.3368
 5372TIP3    H137607   2.158   4.179   5.641 -0.3299 -2.3320 -1.6469
 5372TIP3    H237608   2.059   4.175   5.756  1.3078  1.8775  0.1205
 5373TIP3   OH237609   0.353   1.141  15.735 -0.1493  0.3819 -0.3114
 5373TIP3    H137610   0.404   1.090  15.671  0.6354 -0.2026  0.7550
 5373TIP3    H237611   0.365   1.095  15.818 -1.2798  1.0409  0.2491
 5374TIP3   OH237612   0.143   2.696   0.686  0.3088 -1.2345  0.0545
 5374TIP3    H137613   0.118   2.771   0.632  1.8293 -0.3035  0.5754
 5374TIP3    H237614   0.072   2.688   0.750  0.5539  0.3866  0.5771
 5375TIP3   OH237615   6.052   4.147   1.178 -0.2087  0.1974  1.2001
 5375TIP3    H137616   6.002   4.228   1.175 -1.7883 -0.7583  0.1943
 5375TIP3    H237617   6.111   4.153   1.103 -1.1242 -0.0423  0.4387
 5376TIP3   OH237618   2.582   3.552  11.792 -0.5160  0.0395 -0.5081
 5376TIP3    H137619   2.540   3.534  11.708  1.8812  0.6443 -1.9249
 5376TIP3    H237620   2.564   3.644  11.809 -1.0226 -0.0899 -0.3293
 5377TIP3   OH237621   3.441   0.858  15.867  0.3204 -0.2246 -0.7489
 5377TIP3    H137622   3.490   0.855  15.785  0.7663 -1.0238 -0.4727
 5377TIP3    H237623   3.505   0.890  15.931  0.1286 -0.1204 -0.6093
 5378TIP3   OH237624   5.753   3.658  11.523 -0.1608 -0.6311  0.1405
 5378TIP3    H137625   5.786   3.677  11.435  0.3515  1.6562  0.7589
 5378TIP3    H237626   5.820   3.695  11.581 -1.7046  0.2010  1.4517
 5379TIP3   OH237627   1.147   5.622  12.492 -0.2641  0.1454 -0.4244
 5379TIP3    H137628   1.169   5.716  12.494  0.4526 -0.0216  0.7676
 5379TIP3    H237629   1.054   5.620  12.470 -0.6761  1.2372  1.0479
 5380TIP3   OH237630   2.856   2.074   0.073 -0.2508  0.0506 -0.6711
 5380TIP3    H137631   2.934   2.039   0.030 -1.9310 -1.6762 -2.5550
 5380TIP3    H237632   2.816   1.998   0.115  0.2637  1.3418  2.3756
 5381TIP3   OH237633   6.297   3.836   5.322 -0.2354  0.2061 -0.3866
 5381TIP3    H137634   6.341   3.830   5.407 -0.4315  2.6095 -0.0451
 5381TIP3    H237635   6.308   3.927   5.296 -0.0706 -0.5042 -3.0508
 5382TIP3   OH237636   4.719   1.410   1.175  0.4316 -0.1702 -0.1492
 5382TIP3    H137637   4.801   1.373   1.144  0.6502  1.0367 -1.0841
 5382TIP3    H237638   4.737   1.431   1.267  0.5202 -1.6632  0.2048
 5383TIP3   OH237639   1.453   5.187   0.587  0.0499  0.6516  0.3956
 5383TIP3    H137640   1.375   5.184   0.642 -0.6548  0.1303 -0.6202
 5383TIP3    H237641   1.523   5.153   0.644 -0.9742 -1.4439  0.4958
 5384TIP3   OH237642   3.908   2.843  15.374  0.7229 -0.1758  0.5551
 5384TIP3    H137643   3.899   2.810  15.285 -1.1321 -0.8811  0.9601
 5384TIP3    H237644   3.884   2.770  15.430 -1.2080  1.0970  1.5280
 5385TIP3   OH237645   4.676   4.111   0.501 -0.2251 -0.0500  0.7303
 5385TIP3    H137646   4.611   4.055   0.543 -0.1478 -0.2824  0.5362
 5385TIP3    H237647   4.760   4.078   0.532  0.0035 -1.9351 -1.6392
 5386TIP3   OH237648   1.482   0.865   2.774 -0.2638 -0.2463  0.4900
 5386TIP3    H137649   1.506   0.776   2.748  0.2929  0.5494 -1.9375
 5386TIP3    H237650   1.559   0.918   2.753 -1.3595  1.1399 -0.1716
 5387TIP3   OH237651   0.202   4.829   4.377  0.0296 -0.4113 -0.1386
 5387TIP3    H137652   0.133   4.764   4.365  0.3823 -0.6425 -1.0107
 5387TIP3    H237653   0.243   4.837   4.290 -0.0300  0.9978 -0.0691
 5388TIP3   OH237654   4.702   6.205  16.384  0.5467  0.7793  0.1193
 5388TIP3    H137655   4.778   6.245  16.427 -0.1823  2.6651 -0.2522
 5388TIP3    H237656   4.739   6.156  16.310  1.4357  1.3034  0.2036
 5389TIP3   OH237657   5.701   0.630  11.825 -0.6013 -0.3854  0.2100
 5389TIP3    H137658   5.707   0.724  11.844  0.0230 -0.4368  0.2595
 5389TIP3    H237659   5.773   0.613  11.765 -0.5698 -0.8835  0.3910
 5390TIP3   OH237660   0.794   3.406  13.404 -0.0802  0.5931  0.3356
 5390TIP3    H137661   0.861   3.338  13.407  0.9840  1.6234  0.6357
 5390TIP3    H237662   0.842   3.488  13.393 -1.1829  1.5110  1.7742
 5391TIP3   OH237663   6.805   1.597   2.082  0.6755 -0.6365 -0.5354
 5391TIP3    H137664   6.763   1.625   2.163  1.4374 -2.1049  0.4165
 5391TIP3    H237665   6.883   1.652   2.076  0.5819 -0.4764 -0.3132
 5392TIP3   OH237666   1.946   4.378  14.534  0.1951 -0.3730  0.2714
 5392TIP3    H137667   1.973   4.470  14.536 -3.4587  0.9181 -1.3333
 5392TIP3    H237668   1.866   4.375  14.587 -1.6802 -1.7838 -2.3941
 5393TIP3   OH237669   5.658   3.385  16.287  0.1991 -0.4596 -0.3456
 5393TIP3    H137670   5.596   3.312  16.280 -1.9815  1.2637 -0.2907
 5393TIP3    H237671   5.657   3.425  16.200  0.2480  0.3377  0.0116
 5394TIP3   OH237672   6.660   5.669  17.267 -0.2881  0.0262  0.4668
 5394TIP3    H137673   6.575   5.708  17.285 -1.0979 -1.3017 -0.3541
 5394TIP3    H237674   6.645   5.575  17.272  0.9734 -0.2429 -0.3273
 5395TIP3   OH237675   6.315   3.207   5.746 -0.4172 -0.3628 -0.1398
 5395TIP3    H137676   6.277   3.223   5.833 -1.8445 -1.0574 -0.6145
 5395TIP3    H237677   6.402   3.172   5.764 -1.9012 -3.7575  1.1400
 5396TIP3   OH237678   2.168   6.648  11.924  0.1664  0.2306  0.6875
 5396TIP3    H137679   2.137   6.558  11.933 -1.6059  0.8850  1.4591
 5396TIP3    H237680   2.249   6.651  11.975 -0.0958 -0.7650  1.1748
 5397TIP3   OH237681   6.139   0.491  17.062  0.3467 -0.3673  0.0008
 5397TIP3    H137682   6.107   0.402  17.081 -0.4178 -0.7737 -2.7581
 5397TIP3    H237683   6.061   0.546  17.067  0.9357  0.3871  2.4365
 5398TIP3   OH237684   4.073   0.611  12.963  0.0670 -0.5155  0.1273
 5398TIP3    H137685   4.106   0.653  13.043  0.8227 -1.2344  0.2111
 5398TIP3    H237686   4.147   0.559  12.931 -0.6405 -1.2924 -0.3044
 5399TIP3   OH237687   3.183   0.802  10.652 -0.0392  0.4727  0.3653
 5399TIP3    H137688   3.098   0.799  10.609  1.1764 -0.4555 -2.1785
 5399TIP3    H237689   3.241   0.754  10.593  2.5205  2.0993  1.4160
 5400TIP3   OH237690   5.405   3.697  13.779  0.2050 -0.1335  0.1359
 5400TIP3    H137691   5.419   3.775  13.834 -0.6996 -1.1255  1.8837
 5400TIP3    H237692   5.427   3.726  13.691  0.8181  1.8331  0.8639
 5401TIP3   OH237693   0.736   4.845  12.673 -0.0035  0.7240  0.3050
 5401TIP3    H137694   0.733   4.934  12.707  0.3566 -0.1037  2.7147
 5401TIP3    H237695   0.829   4.822  12.675  0.0754  0.7378 -1.6495
 5402TIP3   OH237696   3.371   4.228   2.360 -0.7368  0.1305  0.5358
 5402TIP3    H137697   3.369   4.280   2.279 -0.6433  0.2862  0.6334
 5402TIP3    H237698   3.361   4.138   2.331  0.8938  0.0209  0.2059
 5403TIP3   OH237699   4.563   2.940  14.181 -0.0645 -0.0186 -0.0940
 5403TIP3    H137700   4.490   2.878  14.188 -0.4958  0.4631 -0.2674
 5403TIP3    H237701   4.591   2.954  14.272 -1.9227  1.8301  0.2533
 5404TIP3   OH237702   2.967   0.498   1.194  0.0559  0.4940  0.1878
 5404TIP3    H137703   2.872   0.502   1.203 -0.2118 -0.6095 -1.6713
 5404TIP3    H237704   2.982   0.433   1.126  2.1586  0.6573  0.4332
 5405TIP3   OH237705   5.613   5.064  14.326 -0.2905  0.1162 -0.6535
 5405TIP3    H137706   5.523   5.074  14.295 -0.7208  1.5396  0.9290
 5405TIP3    H237707   5.604   5.037  14.417  0.9338 -1.4595 -0.9497
 5406TIP3   OH237708   4.203   1.731  17.048 -0.4758 -0.3231 -0.0592
 5406TIP3    H137709   4.190   1.812  16.999 -1.2580 -0.1177  0.4685
 5406TIP3    H237710   4.263   1.754  17.119  0.2381 -0.4954 -0.5989
 5407TIP3   OH237711   5.325   6.426  15.996  0.4039 -0.7051 -0.1290
 5407TIP3    H137712   5.244   6.474  15.980  0.2087 -1.2916 -0.9632
 5407TIP3    H237713   5.296   6.336  16.012  0.9200 -0.9951 -0.8288
 5408TIP3   OH237714   0.426   2.917  16.002  0.5789 -0.6115 -0.8175
 5408TIP3    H137715   0.483   2.847  16.033  1.4565  0.2511 -0.4782
 5408TIP3    H237716   0.479   2.996  16.004 -0.8137  0.3530  0.1537
 5409TIP3   OH237717   2.346   1.998  16.949  0.3242  0.1860 -0.0801
 5409TIP3    H137718   2.271   1.955  16.908  0.1610  1.0285 -0.6858
 5409TIP3    H237719   2.388   2.046  16.877  0.5924  0.9070  0.5478
 5410TIP3   OH237720   5.225   2.661  12.553  0.9674 -0.1950 -0.4012
 5410TIP3    H137721   5.298   2.676  12.493  0.2986  1.4814 -0.8461
 5410TIP3    H237722   5.239   2.722  12.625  1.3191 -1.6180  0.7877
 5411TIP3   OH237723   6.479   6.819  15.561  0.5472  0.2543  0.0569
 5411TIP3    H137724   6.454   6.733  15.527 -0.3811  0.7342 -0.5200
 5411TIP3    H237725   6.463   6.813  15.655  0.5921 -0.2436  0.0356
 5412TIP3   OH237726   4.853   0.517   3.069 -0.2358 -0.2698 -0.0890
 5412TIP3    H137727   4.880   0.589   3.013  0.0207  0.7718  1.3224
 5412TIP3    H237728   4.841   0.557   3.155 -0.1438 -1.9054  0.7143
 5413TIP3   OH237729   2.466   0.812  12.082  0.2598  0.2409 -0.0745
 5413TIP3    H137730   2.516   0.893  12.066 -0.0889  0.3416 -0.6936
 5413TIP3    H237731   2.381   0.843  12.111  0.0303  0.1019 -0.5945
 5414TIP3   OH237732   2.652   6.470   3.492 -0.2696 -0.8974  0.8798
 5414TIP3    H137733   2.577   6.470   3.552 -1.2606  0.8118 -0.2376
 5414TIP3    H237734   2.729   6.463   3.548 -1.2283 -1.1830  2.1922
 5415TIP3   OH237735   0.568   3.128   5.726 -0.1474  0.1762 -0.5033
 5415TIP3    H137736   0.514   3.062   5.768 -0.1446 -0.2995 -1.2328
 5415TIP3    H237737   0.632   3.153   5.793  0.6038 -1.4305 -0.5861
 5416TIP3   OH237738   6.687   0.447  16.219 -0.4900  0.4007 -0.5369
 5416TIP3    H137739   6.757   0.502  16.254 -1.6454  0.5229  1.8500
 5416TIP3    H237740   6.612   0.506  16.212 -0.4678  0.2142 -2.7968
 5417TIP3   OH237741   2.733   5.847  17.117 -0.2245  0.1928  0.0235
 5417TIP3    H137742   2.775   5.761  17.114 -1.4129 -0.3938 -0.9306
 5417TIP3    H237743   2.802   5.909  17.092  0.8306 -0.3813  1.4154
 5418TIP3   OH237744   2.743   1.087   4.893 -0.1864  0.2044 -0.1216
 5418TIP3    H137745   2.714   1.065   4.981 -1.0164 -4.6191 -1.2538
 5418TIP3    H237746   2.838   1.099   4.900  0.0241 -1.7912  1.3068
 5419TIP3   OH237747   5.724   3.830  14.598  0.2054  0.3501  0.7655
 5419TIP3    H137748   5.723   3.750  14.545 -0.1034  0.3610  0.7492
 5419TIP3    H237749   5.777   3.808  14.675 -0.0285  0.0717  0.8496
 5420TIP3   OH237750   2.672   4.641   1.179 -0.1414  0.1363 -0.7505
 5420TIP3    H137751   2.644   4.725   1.216 -0.7600 -1.2858  2.2503
 5420TIP3    H237752   2.590   4.594   1.163  0.2542 -0.9958  0.4344
 5421TIP3   OH237753   0.812   2.256  12.566  0.1635 -0.3550  0.2374
 5421TIP3    H137754   0.760   2.227  12.491 -0.4291 -0.0376  0.5206
 5421TIP3    H237755   0.784   2.198  12.637 -0.6794  0.5752  0.6896
 5422TIP3   OH237756   2.025   0.251   1.908 -0.1030 -0.3123 -0.0018
 5422TIP3    H137757   2.080   0.312   1.858  1.1613  0.3537  2.0815
 5422TIP3    H237758   1.989   0.192   1.841  2.1183  0.0167 -1.6286
 5423TIP3   OH237759   6.409   1.757   4.162 -0.3135 -0.1353  0.0230
 5423TIP3    H137760   6.456   1.775   4.243 -0.1871  1.5839 -0.3929
 5423TIP3    H237761   6.321   1.791   4.178  0.0259  1.2707 -0.9126
 5424TIP3   OH237762   0.898   5.422   1.708 -0.0515  0.7432  0.3939
 5424TIP3    H137763   0.908   5.347   1.767 -1.2719  0.5395  0.3581
 5424TIP3    H237764   0.983   5.467   1.711  0.4883 -0.2895  0.8904
 5425TIP3   OH237765   4.957   1.968   0.848 -0.3044 -0.7426 -0.1687
 5425TIP3    H137766   4.871   1.995   0.883  0.2614  1.1673 -0.1249
 5425TIP3    H237767   4.936   1.908   0.777 -1.7839  1.0487 -1.3381
 5426TIP3   OH237768   2.433   3.547  12.959 -0.0385  0.1558  0.1913
 5426TIP3    H137769   2.440   3.638  12.931 -1.2333 -0.1055 -1.0816
 5426TIP3    H237770   2.458   3.495  12.883 -0.5563 -0.5829  0.5042
 5427TIP3   OH237771   0.050   5.344   2.518  0.2014 -0.6543 -0.6290
 5427TIP3    H137772   0.031   5.269   2.574 -0.8609  0.5588  0.7158
 5427TIP3    H237773   0.143   5.360   2.531  0.0291 -0.5597  0.6199
 5428TIP3   OH237774   6.233   0.152  11.027 -0.0759  0.8768  0.2362
 5428TIP3    H137775   6.161   0.156  11.091 -0.5456  1.3927 -0.3131
 5428TIP3    H237776   6.311   0.135  11.080 -0.4910  1.0694  0.9246
 5429TIP3   OH237777   2.388   6.371   3.042 -0.5109  0.4248 -0.4539
 5429TIP3    H137778   2.368   6.417   3.124 -0.0148  2.7329 -1.5272
 5429TIP3    H237779   2.365   6.434   2.974  1.1663 -0.5482 -2.0041
 5430TIP3   OH237780   0.143   6.180  12.342 -0.1373  0.1518 -0.2644
 5430TIP3    H137781   0.063   6.171  12.290  0.5053 -0.4763 -1.1659
 5430TIP3    H237782   0.159   6.092  12.376 -0.4344  0.5138  0.8451
 5431TIP3   OH237783   6.503   0.870   5.153  0.5228  0.6663  0.0256
 5431TIP3    H137784   6.591   0.831   5.160  0.3086 -0.6830 -2.9021
 5431TIP3    H237785   6.520   0.964   5.145  1.6121  0.5506  0.7243
 5432TIP3   OH237786   2.353   5.176  16.879  0.0624  0.0798  0.2685
 5432TIP3    H137787   2.423   5.194  16.942  0.1408  0.1901  0.1482
 5432TIP3    H237788   2.273   5.185  16.931  0.0123  2.1959 -0.1095
 5433TIP3   OH237789   3.284   5.438   5.641 -0.0322  0.5354  0.5182
 5433TIP3    H137790   3.352   5.379   5.676 -0.9599 -0.6081  0.4678
 5433TIP3    H237791   3.331   5.498   5.584  0.9119 -0.3653  0.3214
 5434TIP3   OH237792   3.575   2.782   1.206 -0.2404  0.3483  0.4855
 5434TIP3    H137793   3.510   2.852   1.194 -0.4971 -0.1807 -1.5449
 5434TIP3    H237794   3.579   2.739   1.121 -0.4202 -2.4181  1.7901
 5435TIP3   OH237795   1.897   0.043   3.733 -0.9541 -0.3940  0.2169
 5435TIP3    H137796   1.868   0.101   3.663 -0.5151  0.2595  0.5657
 5435TIP3    H237797   1.850  -0.039   3.717 -1.3889 -0.0302 -0.4308
 5436TIP3   OH237798   0.064   6.750  12.065  0.3984  0.3198  0.8167
 5436TIP3    H137799   0.132   6.699  12.110  0.7266 -0.1342 -0.1733
 5436TIP3    H237800   0.001   6.685  12.034 -1.4561  0.8306  3.1765
 5437TIP3   OH237801   4.781   0.629   0.663 -0.2325 -0.4681 -0.4817
 5437TIP3    H137802   4.733   0.560   0.616  0.5911 -1.3039 -0.1262
 5437TIP3    H237803   4.862   0.587   0.691  0.5589  0.8259 -0.7675
 5438TIP3   OH237804   5.448   3.410   4.236 -0.1910 -0.1450 -0.4417
 5438TIP3    H137805   5.394   3.467   4.182 -0.3489 -0.3715 -0.5255
 5438TIP3    H237806   5.395   3.331   4.247 -0.2141 -0.0517  0.1490
 5439TIP3   OH237807   3.409   4.088  13.770  0.3303  0.2378 -0.1016
 5439TIP3    H137808   3.393   4.149  13.699 -0.0745 -0.6644 -0.8083
 5439TIP3    H237809   3.384   4.135  13.849  1.2453  1.4264 -0.4943
 5440TIP3   OH237810   4.219   0.314   5.982  0.1443 -0.1477  0.4146
 5440TIP3    H137811   4.283   0.252   5.948  1.0012  0.2026  1.3408
 5440TIP3    H237812   4.141   0.262   5.997  0.3859 -0.6998 -0.1877
 5441TIP3   OH237813   6.473   0.995   0.271 -1.0125  0.3410  0.8208
 5441TIP3    H137814   6.485   0.925   0.335 -0.2493  0.7738  1.1707
 5441TIP3    H237815   6.561   1.011   0.237 -1.3446  0.4134 -0.0175
 5442TIP3   OH237816   5.635   4.353  16.516 -0.4260 -0.0023  0.0559
 5442TIP3    H137817   5.656   4.442  16.545  0.3415  0.5843 -2.1572
 5442TIP3    H237818   5.539   4.351  16.516 -0.4550  0.9008 -0.1087
 5443TIP3   OH237819   5.216   0.467  12.971  0.1148 -0.5801  0.6521
 5443TIP3    H137820   5.229   0.444  13.063 -0.9476 -0.7541  0.7664
 5443TIP3    H237821   5.129   0.507  12.968  1.3298  2.3351  0.2520
 5444TIP3   OH237822   2.115   1.278  14.028  0.5195 -0.2119 -0.5087
 5444TIP3    H137823   2.108   1.213  13.959  2.0848  0.2620 -1.1575
 5444TIP3    H237824   2.157   1.232  14.101 -2.6007 -1.1898  0.8728
 5445TIP3   OH237825   2.111   5.059  16.138 -0.1487 -0.6232  0.1457
 5445TIP3    H137826   2.083   5.130  16.081 -0.4168  0.1406  1.2022
 5445TIP3    H237827   2.088   4.979  16.090  1.5000 -0.0664 -1.7348
 5446TIP3   OH237828   3.396   1.838   2.731  0.1634  0.1524  0.1110
 5446TIP3    H137829   3.483   1.866   2.701 -0.7967 -0.4878 -3.7588
 5446TIP3    H237830   3.370   1.770   2.670 -2.6771 -0.4147  1.7827
 5447TIP3   OH237831   6.037   5.135   1.219  0.0079 -0.5585  0.1260
 5447TIP3    H137832   6.027   5.059   1.275  1.1761 -0.4267  0.5409
 5447TIP3    H237833   5.986   5.204   1.261  0.8200 -0.4789  1.0140
 5448TIP3   OH237834   4.593   3.791   3.917 -0.6509 -0.3960 -0.0739
 5448TIP3    H137835   4.622   3.861   3.859  0.5829 -1.2194 -0.5103
 5448TIP3    H237836   4.570   3.719   3.858 -1.4881 -0.5077  0.3802
 5449TIP3   OH237837   6.245   3.790   0.812  0.2361  0.5502 -0.0538
 5449TIP3    H137838   6.156   3.755   0.800 -0.5317  2.2610  0.3089
 5449TIP3    H237839   6.283   3.787   0.724 -0.0822 -0.4163 -0.1733
 5450TIP3   OH237840   3.850   4.177  13.089  0.1056 -0.3472 -0.1900
 5450TIP3    H137841   3.821   4.090  13.062 -0.8911  0.1499 -0.7598
 5450TIP3    H237842   3.771   4.230  13.090  0.6917  0.5552  0.1906
 5451TIP3   OH237843   0.240   6.656  11.213 -0.2474 -0.2728  0.1258
 5451TIP3    H137844   0.299   6.654  11.288  0.1898 -1.3346 -0.2233
 5451TIP3    H237845   0.294   6.689  11.141 -0.7584  1.0828  0.3255
 5452TIP3   OH237846   0.030   1.703  11.130  0.3522  0.1405  0.0806
 5452TIP3    H137847   0.036   1.610  11.155  3.4371 -0.1295 -1.2375
 5452TIP3    H237848   0.077   1.749  11.200 -1.1850  0.7794  0.7390
 5453TIP3   OH237849   6.105   5.709   1.026  0.4340 -0.0070  0.3610
 5453TIP3    H137850   6.032   5.648   1.022 -0.3847  0.8632  1.5139
 5453TIP3    H237851   6.067   5.795   1.007  1.3612  0.3238 -0.1099
 5454TIP3   OH237852   1.938   3.825  15.792  0.2919  0.6246  0.2288
 5454TIP3    H137853   1.949   3.844  15.886 -1.6591 -0.3505  0.6966
 5454TIP3    H237854   2.027   3.805  15.762  1.0050  1.2453  1.7873
 5455TIP3   OH237855   2.528   5.167  11.461 -0.3351 -0.2349 -0.2241
 5455TIP3    H137856   2.614   5.178  11.501 -0.2951  0.5702 -0.5115
 5455TIP3    H237857   2.523   5.075  11.439  1.3414  0.0882 -2.1672
 5456TIP3   OH237858   1.076   4.978  12.953 -0.5271 -0.2304 -0.0236
 5456TIP3    H137859   1.025   4.928  12.889 -0.8683 -1.3191  1.0498
 5456TIP3    H237860   1.050   4.941  13.038  1.5527 -0.3636  0.6113
 5457TIP3   OH237861   5.958   5.171   3.834  0.2156 -0.3704  0.1018
 5457TIP3    H137862   5.951   5.156   3.740  0.5421 -0.0149  0.0200
 5457TIP3    H237863   6.015   5.247   3.842 -1.0154  0.5310  0.5287
 5458TIP3   OH237864   0.510   0.293  13.643 -0.7081  0.1934  0.4807
 5458TIP3    H137865   0.463   0.374  13.664 -1.0924 -0.3007  1.5413
 5458TIP3    H237866   0.473   0.227  13.701 -0.1387 -0.6785 -0.1185
 5459TIP3   OH237867   4.040   0.250  11.821 -0.1762 -0.0649  0.0895
 5459TIP3    H137868   4.013   0.263  11.911  0.1112  0.8414  0.0526
 5459TIP3    H237869   4.064   0.337  11.790  1.0538 -0.5682 -0.4315
 5460TIP3   OH237870   1.232   3.146  13.672  0.1847 -0.3879  0.4013
 5460TIP3    H137871   1.155   3.097  13.702  0.1765 -0.5301  0.1529
 5460TIP3    H237872   1.277   3.171  13.752 -1.4024  1.8239  0.6929
 5461TIP3   OH237873   3.531   6.083  12.602  0.4899  0.1494 -0.3948
 5461TIP3    H137874   3.473   6.011  12.628 -1.1750  0.9422 -1.7161
 5461TIP3    H237875   3.520   6.089  12.507  0.8613  1.9296 -0.3428
 5462TIP3   OH237876   2.864   5.008   6.274 -0.2533  0.5127  0.5919
 5462TIP3    H137877   2.868   5.086   6.218 -0.3845 -0.7067 -1.1753
 5462TIP3    H237878   2.798   5.029   6.339 -0.3609  1.8405  0.0903
 5463TIP3   OH237879   0.243   3.965  15.120  0.9696 -0.6412  0.0449
 5463TIP3    H137880   0.258   3.885  15.070 -1.3526 -1.5812  0.6963
 5463TIP3    H237881   0.268   3.943  15.210  0.8437 -0.4681  0.1238
 5464TIP3   OH237882   4.181   5.930  15.197  0.4474 -0.2565  0.6996
 5464TIP3    H137883   4.204   5.862  15.261 -0.0875 -1.5372 -0.4080
 5464TIP3    H237884   4.146   6.002  15.250  0.8793 -0.9012  1.9092
 5465TIP3   OH237885   3.229   5.579   0.789 -0.0772  0.0852 -0.4094
 5465TIP3    H137886   3.201   5.614   0.874 -2.1740 -1.1348 -0.5060
 5465TIP3    H237887   3.209   5.649   0.727  0.9766  0.7862  0.0170
 5466TIP3   OH237888   0.755   3.929  16.234  0.1541 -0.0886 -0.3933
 5466TIP3    H137889   0.839   3.886  16.221 -0.8459 -1.5669 -2.7435
 5466TIP3    H237890   0.744   3.932  16.329  1.7563 -2.1047 -0.0620
 5467TIP3   OH237891   0.821   6.458   4.848  0.5616  0.5087 -0.2873
 5467TIP3    H137892   0.839   6.541   4.892 -2.1182  0.7513  0.4840
 5467TIP3    H237893   0.767   6.482   4.772 -0.2935 -0.5097 -0.0257
 5468TIP3   OH237894   5.305   1.143   6.391 -0.7752  0.0875  0.5705
 5468TIP3    H137895   5.298   1.235   6.363  0.6402  0.7785  2.2995
 5468TIP3    H237896   5.223   1.103   6.362 -0.5676  1.3363 -2.1156
 5469TIP3   OH237897   0.168   0.211  15.288 -0.2841  0.0469 -0.1469
 5469TIP3    H137898   0.210   0.247  15.210  0.2610 -1.6096 -0.6479
 5469TIP3    H237899   0.176   0.116  15.279 -1.8807 -0.2405  1.0178
 5470TIP3   OH237900   2.191   1.347  15.345 -0.4867  0.2413 -0.0351
 5470TIP3    H137901   2.130   1.291  15.299  0.0178  1.5495 -2.4664
 5470TIP3    H237902   2.276   1.330  15.303  0.5710 -0.3657  2.1759
 5471TIP3   OH237903   3.795   0.978   5.004 -0.4237 -0.1838 -0.0710
 5471TIP3    H137904   3.784   0.883   5.009  1.8760 -0.6428 -1.8714
 5471TIP3    H237905   3.740   1.005   4.931  0.6529 -0.5400 -1.0462
 5472TIP3   OH237906   5.116   4.053   4.605 -0.1723  0.7416 -0.3200
 5472TIP3    H137907   5.052   4.122   4.591 -1.7760 -0.3175  1.2683
 5472TIP3    H237908   5.113   4.036   4.699  1.3625 -0.3782 -0.4318
 5473TIP3   OH237909   4.511   1.635   2.174  0.5547 -0.3687  0.2182
 5473TIP3    H137910   4.588   1.595   2.215 -0.1793 -2.7294 -0.5577
 5473TIP3    H237911   4.464   1.562   2.135 -0.6155  1.3511 -1.7904
 5474TIP3   OH237912   4.278   0.528   2.467 -0.4088  1.0052  0.4084
 5474TIP3    H137913   4.322   0.530   2.383  0.8076  1.6310  1.0279
 5474TIP3    H237914   4.219   0.453   2.463  0.9560 -0.0434 -0.3439
 5475TIP3   OH237915   4.518   1.204   1.277  0.2595  1.3202 -0.3696
 5475TIP3    H137916   4.598   1.157   1.304  0.5463  0.7065 -2.1278
 5475TIP3    H237917   4.548   1.261   1.206 -0.7088  1.7482 -0.4359
 5476TIP3   OH237918   0.599   5.701   3.135 -0.2617 -0.1796  0.3596
 5476TIP3    H137919   0.604   5.705   3.039 -0.5705 -1.0807  0.2924
 5476TIP3    H237920   0.543   5.775   3.158  1.5348  1.3669  0.0443
 5477TIP3   OH237921   3.166   5.220  14.405 -0.2994 -0.3653  0.0745
 5477TIP3    H137922   3.242   5.278  14.401  0.4282 -1.3394 -0.8829
 5477TIP3    H237923   3.100   5.263  14.350 -0.1072  0.0293  0.1531
 5478TIP3   OH237924   5.602   3.999  15.016  0.3792  0.2490  0.4433
 5478TIP3    H137925   5.514   4.038  15.018 -1.9099 -4.1728  2.9996
 5478TIP3    H237926   5.638   4.016  15.103 -0.0572 -1.7322  1.0809
 5479TIP3   OH237927   3.676   3.971  12.206 -0.5494 -0.4679 -0.0743
 5479TIP3    H137928   3.645   4.021  12.132  1.4964 -0.0470 -0.6952
 5479TIP3    H237929   3.598   3.958  12.261 -1.4971  1.7725 -0.7927
 5480TIP3   OH237930   4.214   4.909   4.223  0.2669 -0.1957  0.6270
 5480TIP3    H137931   4.203   4.825   4.179  0.7101  0.5121 -0.9082
 5480TIP3    H237932   4.154   4.906   4.297 -1.6524 -0.8715 -0.8882
 5481TIP3   OH237933   4.730   2.108  15.407  0.9150  0.4838 -0.4033
 5481TIP3    H137934   4.807   2.113  15.465 -0.4361 -0.3313  1.5677
 5481TIP3    H237935   4.686   2.192  15.419  0.2293  0.0294  0.4068
 5482TIP3   OH237936   3.750   6.622   2.049  0.3304 -0.0015 -0.5677
 5482TIP3    H137937   3.806   6.686   2.094 -1.3174 -0.7520  2.9020
 5482TIP3    H237938   3.687   6.675   2.000 -1.3348  1.2300  2.6477
 5483TIP3   OH237939   4.122   2.209  14.306 -0.0513 -0.1294  0.4002
 5483TIP3    H137940   4.159   2.276  14.363 -1.0768  0.0287  0.9150
 5483TIP3    H237941   4.027   2.217  14.318 -0.2229 -1.1978 -0.0716
 5484TIP3   OH237942   2.498   5.488   4.022 -0.2909  0.2688 -0.4678
 5484TIP3    H137943   2.483   5.434   3.945 -0.0417  0.2646 -0.5140
 5484TIP3    H237944   2.592   5.505   4.021 -0.1948 -0.2204  0.1638
 5485TIP3   OH237945   5.996   6.396  16.804 -0.3874  0.3611  0.5995
 5485TIP3    H137946   5.947   6.385  16.885 -0.2294  3.4829  1.2335
 5485TIP3    H237947   6.087   6.380  16.830 -0.5899 -1.6210  0.2753
 5486TIP3   OH237948   5.310   6.126  16.340  0.2852  0.8261 -0.3491
 5486TIP3    H137949   5.338   6.141  16.430 -2.1160 -0.7256  0.7452
 5486TIP3    H237950   5.352   6.043  16.316 -2.0090 -0.7434  0.7726
 5487TIP3   OH237951   0.561   4.358   0.937  0.2496  0.1500  0.1702
 5487TIP3    H137952   0.610   4.436   0.912  0.8052 -0.4419 -0.6537
 5487TIP3    H237953   0.475   4.370   0.896  1.2472 -0.9590 -2.5103
 5488TIP3   OH237954   4.648   4.065   3.840  0.2948 -0.0020  0.5079
 5488TIP3    H137955   4.594   4.131   3.884 -1.4226 -0.9561 -0.0414
 5488TIP3    H237956   4.645   4.090   3.748 -0.3571 -0.7888  0.2969
 5489TIP3   OH237957   5.242   3.466  12.116 -0.1497  0.7070 -0.4212
 5489TIP3    H137958   5.244   3.474  12.211 -1.8642 -1.4382 -0.1136
 5489TIP3    H237959   5.200   3.547  12.085 -0.1235  1.1554  0.6911
 5490TIP3   OH237960   4.336   1.216  16.044 -0.0565  0.3093  0.0352
 5490TIP3    H137961   4.363   1.293  16.095 -1.6919  0.1467  1.2474
 5490TIP3    H237962   4.275   1.170  16.102 -1.1201 -0.5123 -1.6535
 5491TIP3   OH237963   4.993   4.570  12.010 -0.0208 -0.7438  0.3962
 5491TIP3    H137964   5.054   4.533  11.946 -0.1326  0.0106 -0.1701
 5491TIP3    H237965   4.925   4.612  11.956  0.8197  1.4761  0.9558
 5492TIP3   OH237966   5.467   4.260   2.146 -0.3346  0.5620  0.4818
 5492TIP3    H137967   5.508   4.304   2.221 -0.8786 -1.2330  1.8921
 5492TIP3    H237968   5.510   4.175   2.142 -1.4112  0.0436 -0.2756
 5493TIP3   OH237969   1.227   2.771  12.029 -0.0421 -0.0925 -0.8528
 5493TIP3    H137970   1.155   2.816  11.986 -0.5998 -1.2206 -1.1458
 5493TIP3    H237971   1.189   2.688  12.058  0.5468  0.2506  1.0504
 5494TIP3   OH237972   6.033   6.562  11.088 -0.8084 -0.2266  0.3917
 5494TIP3    H137973   6.049   6.479  11.042  1.5274 -1.0699  2.4757
 5494TIP3    H237974   6.045   6.629  11.021 -2.3729 -1.5074 -1.2743
 5495TIP3   OH237975   5.144   2.155  14.358  0.1126  0.6444 -0.0861
 5495TIP3    H137976   5.192   2.223  14.311 -0.2655  1.6952  1.0031
 5495TIP3    H237977   5.086   2.203  14.416  1.0183 -0.5923  1.9363
 5496TIP3   OH237978   1.925   2.828  17.062  0.5269 -0.2859 -0.1899
 5496TIP3    H137979   1.830   2.834  17.051  0.4569  0.6092  0.8330
 5496TIP3    H237980   1.941   2.736  17.085 -0.2246 -0.1636  0.8446
 5497TIP3   OH237981   3.522   5.424  16.866 -0.0219 -0.3692  0.1149
 5497TIP3    H137982   3.583   5.455  16.799 -1.6988 -0.2147 -1.4216
 5497TIP3    H237983   3.574   5.419  16.946  1.1912  3.1939 -0.2882
 5498TIP3   OH237984   6.707   5.735   5.454  0.4551 -0.0605  0.0604
 5498TIP3    H137985   6.702   5.748   5.360 -1.0831 -1.2019 -0.0517
 5498TIP3    H237986   6.801   5.741   5.474  0.8098  0.1162 -1.5451
 5499TIP3   OH237987   3.946   6.048  12.808 -0.0886  0.3136 -0.1418
 5499TIP3    H137988   3.993   6.078  12.730  0.8660 -0.8749 -0.0671
 5499TIP3    H237989   3.897   5.971  12.779 -0.1774  0.2015  0.2906
 5500TIP3   OH237990   5.566   2.862  13.741  0.1294 -0.0658 -0.1949
 5500TIP3    H137991   5.501   2.799  13.709 -0.8282 -0.1000  1.6627
 5500TIP3    H237992   5.516   2.943  13.751  0.7385  0.3078 -0.1923
 5501TIP3   OH237993   1.366   1.722   1.339 -0.4677  0.3516  0.8228
 5501TIP3    H137994   1.434   1.763   1.285 -0.2499 -0.6529  0.3099
 5501TIP3    H237995   1.285   1.765   1.311 -0.2215  0.5729  0.4353
 5502TIP3   OH237996   0.592   6.602   0.794  0.2081  0.7465 -0.3294
 5502TIP3    H137997   0.540   6.571   0.720 -0.4192  0.6120  0.1582
 5502TIP3    H237998   0.538   6.583   0.870  1.1391  0.2416  0.2259
 5503TIP3   OH237999   6.021   1.242  13.884 -0.3213 -0.4568 -0.2000
 5503TIP3    H138000   6.048   1.288  13.805 -1.8784 -2.7488 -2.2284
 5503TIP3    H238001   6.094   1.253  13.945 -0.4916  4.3888 -0.4649
 5504TIP3   OH238002   6.127   1.408   4.160 -0.5626  0.6878 -0.0293
 5504TIP3    H138003   6.140   1.460   4.240  0.9717  0.1592  0.0955
 5504TIP3    H238004   6.159   1.464   4.090  0.7337  0.1038  0.0640
 5505TIP3   OH238005   6.051   3.624   5.022  0.2776  0.3913 -0.5004
 5505TIP3    H138006   6.005   3.584   4.948  0.1127 -0.5786  0.1109
 5505TIP3    H238007   6.043   3.718   5.007  1.0595  0.2253 -2.2156
 5506TIP3   OH238008   0.963   4.594  17.022  0.0227 -0.4912  0.3859
 5506TIP3    H138009   1.054   4.583  16.995 -0.3011 -0.7213 -0.6593
 5506TIP3    H238010   0.912   4.548  16.955 -0.8536 -0.5765  1.0884
 5507TIP3   OH238011   3.700   4.682  12.191  0.2836 -0.1065 -0.1682
 5507TIP3    H138012   3.679   4.774  12.180  0.2343 -0.1967 -0.8816
 5507TIP3    H238013   3.648   4.637  12.124 -0.9295 -0.8224  1.1750
 5508TIP3   OH238014   2.713   5.246  16.587  0.4852 -0.3930  0.1648
 5508TIP3    H138015   2.628   5.290  16.599  1.0836  0.5925  0.9559
 5508TIP3    H238016   2.757   5.298  16.520  1.0640  0.0478  0.8652
 5509TIP3   OH238017   4.499   6.051   2.350 -0.0749 -0.0701 -0.3851
 5509TIP3    H138018   4.409   6.034   2.321 -0.2630  0.7428 -0.3159
 5509TIP3    H238019   4.496   6.141   2.382  0.8107  0.0113 -0.5266
 5510TIP3   OH238020   5.582   4.605  14.633 -0.0397  0.3348 -0.0932
 5510TIP3    H138021   5.566   4.659  14.711 -0.2521  0.9888 -0.5743
 5510TIP3    H238022   5.513   4.539  14.635  0.1417  0.1581  0.4369
 5511TIP3   OH238023   1.561   5.339   3.174  0.3713 -0.2037  0.1618
 5511TIP3    H138024   1.487   5.399   3.166 -0.6339 -1.4091  0.0847
 5511TIP3    H238025   1.633   5.386   3.132 -0.5652  0.6422 -0.5863
 5512TIP3   OH238026   6.055   0.323  14.646 -0.2759  0.0204 -0.0336
 5512TIP3    H138027   6.135   0.342  14.694 -0.3121  0.4163 -0.1247
 5512TIP3    H238028   6.083   0.310  14.556 -0.4237  1.1937 -0.2667
 5513TIP3   OH238029   5.731   1.195   1.989 -0.3561 -0.0748 -0.1499
 5513TIP3    H138030   5.768   1.183   1.902 -0.0301 -1.3574  0.1355
 5513TIP3    H238031   5.648   1.242   1.974  0.1308  0.5311 -1.0433
 5514TIP3   OH238032   0.730   0.954   3.765  0.0183  0.0268 -0.1138
 5514TIP3    H138033   0.761   1.005   3.840  0.6719 -0.0265 -0.3368
 5514TIP3    H238034   0.657   1.005   3.730  0.6965  0.8682 -0.3687
 5515TIP3   OH238035   0.603   4.091   1.630 -0.2173 -0.1251 -0.2043
 5515TIP3    H138036   0.652   4.035   1.570 -3.2671 -0.6525 -2.4503
 5515TIP3    H238037   0.623   4.180   1.601  0.2243 -0.2813 -0.3913
 5516TIP3   OH238038   2.018   4.472  12.462 -0.3246  0.0795  0.0174
 5516TIP3    H138039   2.017   4.528  12.384  0.9184  0.0365 -0.0430
 5516TIP3    H238040   2.000   4.384  12.429 -1.1343  0.2493 -0.0302
 5517TIP3   OH238041   2.716   1.354   5.406  0.0944  0.3818 -0.0943
 5517TIP3    H138042   2.734   1.261   5.392  0.2991  0.6623 -2.0177
 5517TIP3    H238043   2.626   1.366   5.376  0.5143  1.0242 -1.1582
 5518TIP3   OH238044   4.592   1.089   4.544 -0.2823 -0.4356 -0.1402
 5518TIP3    H138045   4.510   1.041   4.531 -0.8399  0.5799 -0.4851
 5518TIP3    H238046   4.649   1.060   4.472  0.0005 -1.7850  0.5845
 5519TIP3   OH238047   5.359   2.526  14.597 -0.1215 -0.5121 -0.0148
 5519TIP3    H138048   5.284   2.516  14.655  1.0424 -0.1612  1.6377
 5519TIP3    H238049   5.364   2.620  14.579  0.1599 -0.4792  0.2247
 5520TIP3   OH238050   4.689   5.978   4.570 -0.7087  0.3567 -0.4352
 5520TIP3    H138051   4.660   6.045   4.632  0.5128  0.4944  0.0225
 5520TIP3    H238052   4.717   6.027   4.493  0.0211  0.3794 -0.1664
 5521TIP3   OH238053   0.960   1.634  12.741 -0.0304  0.8337  0.0263
 5521TIP3    H138054   0.992   1.724  12.751  0.5205  0.5219  1.2317
 5521TIP3    H238055   1.040   1.582  12.729 -0.2181  0.3104  0.9587
 5522TIP3   OH238056   0.257   3.351  13.546  0.3952  0.9797 -0.1326
 5522TIP3    H138057   0.244   3.411  13.473  0.9433  1.0852 -0.1443
 5522TIP3    H238058   0.351   3.337  13.551  0.3592  0.8947  0.4897
 5523TIP3   OH238059   3.501   2.733   0.025  0.5501  0.3519 -0.4050
 5523TIP3    H138060   3.471   2.803  -0.032 -1.7054  0.8493  1.2449
 5523TIP3    H238061   3.514   2.775   0.110  0.7586 -0.9282  0.2252
 5524TIP3   OH238062   1.801   5.503   3.809 -0.5051 -0.3456 -0.1553
 5524TIP3    H138063   1.754   5.564   3.752  2.4007  1.0303 -1.2726
 5524TIP3    H238064   1.794   5.542   3.896 -0.5603  0.3840 -0.4750
 5525TIP3   OH238065   5.968   4.051  12.181 -0.1557  0.1382  0.0328
 5525TIP3    H138066   5.931   4.105  12.251 -0.2821 -0.4541  0.4301
 5525TIP3    H238067   6.057   4.083  12.171 -0.4334  0.8728 -0.2072
 5526TIP3   OH238068   5.881   6.068   2.866  0.5012 -0.1431 -0.4805
 5526TIP3    H138069   5.920   6.079   2.779  0.9148 -0.4569 -0.3353
 5526TIP3    H238070   5.955   6.053   2.924  0.0879 -2.7570 -0.5081
 5527TIP3   OH238071   0.940   4.346   3.249 -0.5705 -0.6139 -0.0130
 5527TIP3    H138072   0.998   4.405   3.297  0.2595  1.5434 -3.3087
 5527TIP3    H238073   0.852   4.370   3.276 -0.2747  2.4765 -1.3779
 5528TIP3   OH238074   0.571   1.908  16.885  0.0512  0.1974  0.4792
 5528TIP3    H138075   0.639   1.928  16.820 -0.3637 -0.8265 -0.2838
 5528TIP3    H238076   0.560   1.990  16.933 -0.8426  1.5324 -1.8564
 5529TIP3   OH238077   2.310   6.012  17.195 -0.7800 -0.5873 -0.2220
 5529TIP3    H138078   2.242   6.015  17.127 -2.3608 -0.6456  1.2706
 5529TIP3    H238079   2.264   5.982  17.273  0.5557  1.1678  1.3307
 5530TIP3   OH238080   6.170   0.951  11.175  0.1564 -0.2147  0.2518
 5530TIP3    H138081   6.128   0.923  11.256 -0.8953 -1.2563 -0.6209
 5530TIP3    H238082   6.189   0.869  11.128  3.1587  0.1989  0.5755
 5531TIP3   OH238083   6.104   4.062  11.686  0.7422 -0.0216  0.1029
 5531TIP3    H138084   6.145   4.148  11.697 -0.0365  0.6999 -2.2026
 5531TIP3    H238085   6.097   4.028  11.775  1.3947  2.1298  1.0493
 5532TIP3   OH238086   0.034   1.491  13.451 -0.1742 -0.6289 -0.0722
 5532TIP3    H138087  -0.021   1.437  13.508  0.2649  0.3815  1.3710
 5532TIP3    H238088   0.060   1.433  13.380 -0.2001 -2.1450  1.1187
 5533TIP3   OH238089   4.813   4.530  14.240 -0.0708 -0.4001 -0.0829
 5533TIP3    H138090   4.760   4.464  14.285 -1.0835  0.1228 -0.4707
 5533TIP3    H238091   4.891   4.483  14.211 -0.7342 -1.4184 -0.2706
 5534TIP3   OH238092   2.011   0.105   2.484  0.2896 -0.9550  0.1880
 5534TIP3    H138093   2.085   0.048   2.505  0.3538 -0.8520  0.2467
 5534TIP3    H238094   2.038   0.152   2.405  0.5733 -0.4172  0.5941
 5535TIP3   OH238095   0.128   3.187   2.904 -0.4633 -0.4393 -0.1235
 5535TIP3    H138096   0.210   3.230   2.928 -0.2456 -0.9694  0.0920
 5535TIP3    H238097   0.063   3.257   2.905 -0.2649 -0.2638  0.9992
 5536TIP3   OH238098   1.049   0.516   5.567 -0.7547 -0.2926  0.1978
 5536TIP3    H138099   1.079   0.516   5.476 -0.1797  0.8443  0.3574
 5536TIP3    H238100   1.009   0.431   5.579  0.6097 -1.1018 -0.6549
 5537TIP3   OH238101   2.134   0.791   5.552 -0.3643  0.0170  0.2008
 5537TIP3    H138102   2.081   0.776   5.474  0.6334  2.4593 -1.0500
 5537TIP3    H238103   2.208   0.730   5.543  0.0328  0.6500 -1.0974
 5538TIP3   OH238104   1.387   1.577   1.723 -0.1495 -0.1927 -0.5463
 5538TIP3    H138105   1.356   1.667   1.734 -1.2144 -0.6179  0.0861
 5538TIP3    H238106   1.479   1.580   1.749 -0.4447  0.5143  0.4948
 5539TIP3   OH238107   1.641   3.990   1.910  0.1961 -0.0414 -0.5529
 5539TIP3    H138108   1.578   4.042   1.959  0.4456 -0.1128 -0.1559
 5539TIP3    H238109   1.601   3.904   1.902  0.2543 -0.0925 -0.2817
 5540TIP3   OH238110   2.191   4.200  15.693 -0.1141 -0.2135  0.6531
 5540TIP3    H138111   2.268   4.207  15.637 -0.1816 -3.2921  0.0132
 5540TIP3    H238112   2.220   4.147  15.767 -0.8969  1.0512  1.9203
 5541TIP3   OH238113   5.520   5.542   1.953  0.2399  0.4216  0.6156
 5541TIP3    H138114   5.505   5.505   1.866  1.7561  1.5477 -0.1768
 5541TIP3    H238115   5.446   5.512   2.005  0.1198 -1.6137 -0.6245
 5542TIP3   OH238116   2.500   6.363  11.101  0.0883 -0.4525  0.0793
 5542TIP3    H138117   2.482   6.431  11.037  0.9922 -0.5169 -0.2568
 5542TIP3    H238118   2.558   6.302  11.056 -0.0537 -1.0145  0.6403
 5543TIP3   OH238119   4.671   3.196  12.987 -0.0188  0.0305 -0.0074
 5543TIP3    H138120   4.704   3.175  12.900  1.9844 -3.3931  1.3812
 5543TIP3    H238121   4.730   3.264  13.019  2.1873 -1.9039  0.2523
 5544TIP3   OH238122   0.409   3.330  16.915 -0.0748 -0.4911 -0.0179
 5544TIP3    H138123   0.447   3.303  16.831 -0.5642 -1.8629  0.1712
 5544TIP3    H238124   0.342   3.394  16.891  1.7222  1.3381 -0.4191
 5545TIP3   OH238125   0.926   3.777  16.876  0.0941 -0.0660 -0.9091
 5545TIP3    H138126   0.912   3.712  16.807 -1.1501  0.2197 -0.9461
 5545TIP3    H238127   0.849   3.834  16.872 -0.0634 -0.1022  0.7633
 5546TIP3   OH238128   5.753   3.407  12.941 -0.4264 -0.0560  0.1651
 5546TIP3    H138129   5.802   3.332  12.910 -0.4375  0.0817 -0.1847
 5546TIP3    H238130   5.810   3.449  13.005  0.4590  0.8353 -1.1552
 5547TIP3   OH238131   1.604   3.188   6.340  0.6549  0.2914  0.1838
 5547TIP3    H138132   1.533   3.183   6.276 -0.1837  2.3302  0.8705
 5547TIP3    H238133   1.560   3.197   6.424  1.7284  0.5893  0.7360
 5548TIP3   OH238134   2.615   5.381   4.420 -0.2212 -0.0132 -0.0625
 5548TIP3    H138135   2.527   5.364   4.386 -0.5063  0.3874  0.4565
 5548TIP3    H238136   2.606   5.370   4.515  0.3935 -0.4085 -0.0425
 5549TIP3   OH238137   3.484   2.358  14.861  0.4485 -0.4414 -0.1386
 5549TIP3    H138138   3.444   2.410  14.791  0.8750 -0.2420 -0.2389
 5549TIP3    H238139   3.520   2.424  14.921  1.4215 -0.6130 -0.5152
 5550TIP3   OH238140   6.810   0.788   1.589 -1.2078  0.5375  0.4395
 5550TIP3    H138141   6.893   0.749   1.615 -1.3676  0.8255  1.4264
 5550TIP3    H238142   6.818   0.880   1.614 -2.1974  0.3573  1.4682
 5551TIP3   OH238143   2.634   3.347   0.742  0.6749 -0.1341  0.0575
 5551TIP3    H138144   2.624   3.438   0.714 -0.8364  0.1213  1.3054
 5551TIP3    H238145   2.688   3.352   0.821  0.2440 -0.2574  0.3647
 5552TIP3   OH238146   3.003   2.338  16.591 -0.0795  0.2037  0.2407
 5552TIP3    H138147   2.985   2.310  16.681  0.7868 -0.9786  0.0666
 5552TIP3    H238148   3.094   2.313  16.575 -0.7949 -1.4910 -1.6190
 5553TIP3   OH238149   3.342   0.827   1.763 -0.3394  0.3985  0.2984
 5553TIP3    H138150   3.312   0.753   1.710  0.1344  0.5597 -0.1944
 5553TIP3    H238151   3.347   0.791   1.852 -0.1574 -0.1531  0.0727
 5554TIP3   OH238152   4.517   3.458  16.438  0.3772  0.6080 -0.1931
 5554TIP3    H138153   4.581   3.478  16.506 -0.3081  0.2080  0.5864
 5554TIP3    H238154   4.449   3.525  16.448 -1.4766 -1.3963  1.8470
 5555TIP3   OH238155   6.000   4.311  13.796 -0.0808 -0.2813 -0.3099
 5555TIP3    H138156   6.044   4.234  13.832  0.8909  0.7121  0.7094
 5555TIP3    H238157   5.974   4.361  13.873  1.6066  1.6505 -0.9204
 5556TIP3   OH238158   1.240   4.165  12.793 -0.1430  0.0976  0.3193
 5556TIP3    H138159   1.278   4.078  12.804 -0.5948 -0.3427 -1.2657
 5556TIP3    H238160   1.148   4.149  12.772  0.1542  0.8008 -1.8524
 5557TIP3   OH238161   3.623   2.596   2.073 -0.1832 -0.2052 -0.4115
 5557TIP3    H138162   3.651   2.680   2.110  0.0795  0.7549 -2.6309
 5557TIP3    H238163   3.692   2.573   2.011 -1.0239 -1.2776 -0.9795
 5558TIP3   OH238164   4.019   6.092  14.656 -0.1841 -0.0172 -0.2684
 5558TIP3    H138165   4.011   6.161  14.590 -3.6066 -0.4373 -0.4422
 5558TIP3    H238166   4.063   6.020  14.610  2.5930  1.6022 -0.3474
 5559TIP3   OH238167   3.807   4.016  12.742  0.4048 -0.3144 -0.0423
 5559TIP3    H138168   3.743   3.976  12.801  0.6918 -0.4357  0.1896
 5559TIP3    H238169   3.881   3.955  12.742  0.3817 -0.3505 -0.5853
 5560TIP3   OH238170   5.924   3.488   1.737  0.0971 -0.2268  0.1056
 5560TIP3    H138171   5.956   3.448   1.817  0.1600 -0.2538  0.0667
 5560TIP3    H238172   5.946   3.426   1.668 -1.3271 -0.9423  0.2492
 5561TIP3   OH238173   5.378   6.263   4.097 -0.2001 -0.1646 -0.1220
 5561TIP3    H138174   5.351   6.244   4.007 -0.7809 -1.1733  0.2487
 5561TIP3    H238175   5.301   6.242   4.150  0.6111 -1.0230  0.7545
 5562TIP3   OH238176   1.505   1.599   5.145 -0.5358  0.3919 -0.0118
 5562TIP3    H138177   1.540   1.634   5.227  1.3345  0.8859 -0.9476
 5562TIP3    H238178   1.477   1.677   5.096 -1.2881  0.1297 -0.0094
 5563TIP3   OH238179   6.505   6.535   2.164 -0.1118 -0.0767 -0.2795
 5563TIP3    H138180   6.568   6.545   2.235  0.4708  1.0680 -0.9253
 5563TIP3    H238181   6.542   6.467   2.108 -0.4062 -0.7434  0.3226
 5564TIP3   OH238182   5.503   2.585   1.721  0.2506  0.2417  0.4815
 5564TIP3    H138183   5.585   2.608   1.766  0.0466  0.4414  0.7558
 5564TIP3    H238184   5.439   2.578   1.792 -0.0043  0.2474  0.2509
 5565TIP3   OH238185   2.016   4.056   1.107  0.4591  0.1143  0.7748
 5565TIP3    H138186   1.986   3.968   1.130  1.3031 -0.4685 -0.2406
 5565TIP3    H238187   1.945   4.092   1.054  0.3841 -0.2101  0.6491
 5566TIP3   OH238188   0.629   4.483   3.985  0.4908 -0.2792  0.3571
 5566TIP3    H138189   0.661   4.555   3.931  0.2329 -0.5502 -0.1644
 5566TIP3    H238190   0.652   4.508   4.075 -1.3221  1.3960  0.4182
 5567TIP3   OH238191   6.667   2.946   1.740 -0.3389  0.2823  0.2781
 5567TIP3    H138192   6.602   2.983   1.680 -1.0197  0.7918  1.3007
 5567TIP3    H238193   6.633   2.859   1.761 -0.0715  0.0817 -0.1082
 5568TIP3   OH238194   3.367   1.843   4.448  0.4119 -0.2830  0.5786
 5568TIP3    H138195   3.424   1.851   4.525  1.6636  2.3111 -0.4715
 5568TIP3    H238196   3.336   1.932   4.432  0.4520 -0.6679 -2.0942
 5569TIP3   OH238197   0.099   3.547   0.010  0.1469 -0.2469 -0.1203
 5569TIP3    H138198   0.007   3.535  -0.014  0.1755 -3.2675  0.8976
 5569TIP3    H238199   0.097   3.614   0.078 -1.0018  1.2764 -1.5676
 5570TIP3   OH238200   4.383   1.351  11.676 -0.0714  0.0043 -0.1877
 5570TIP3    H138201   4.449   1.365  11.744 -0.8683 -0.3497  0.6842
 5570TIP3    H238202   4.377   1.256  11.668  0.3146  0.0429 -1.0688
 5571TIP3   OH238203   1.716   0.715   1.287  0.0586  0.2172 -0.3047
 5571TIP3    H138204   1.780   0.646   1.273  1.0119  0.6860  1.4400
 5571TIP3    H238205   1.732   0.778   1.216  0.7489 -0.2278 -0.5534
 5572TIP3   OH238206   3.988   3.990  13.961  0.3009 -0.3244 -0.0971
 5572TIP3    H138207   3.936   4.069  13.981 -1.2575 -1.2832 -0.1562
 5572TIP3    H238208   4.057   4.021  13.903  0.1367  1.1181  0.4186
 5573TIP3   OH238209   6.785   6.445   2.862  0.2179  0.0169 -0.5727
 5573TIP3    H138210   6.744   6.382   2.803  0.8122 -0.6374 -0.2965
 5573TIP3    H238211   6.870   6.407   2.882  0.2942  0.5635  0.1714
 5574TIP3   OH238212   3.831   5.033  14.740 -0.0177  0.4243 -0.1743
 5574TIP3    H138213   3.824   5.125  14.766 -1.0771  0.5911 -0.9567
 5574TIP3    H238214   3.750   4.993  14.772  0.1210 -0.0839 -0.4468
 5575TIP3   OH238215   1.668   3.195   2.341  0.5815 -0.1782 -0.5086
 5575TIP3    H138216   1.642   3.222   2.429 -1.5158 -1.1779 -0.7633
 5575TIP3    H238217   1.695   3.104   2.350  0.2667 -0.3140 -0.8969
 5576TIP3   OH238218   1.782   2.580  15.404 -0.5903  0.5944  0.3248
 5576TIP3    H138219   1.731   2.657  15.381 -0.3852  0.7476  0.3778
 5576TIP3    H238220   1.732   2.506  15.368 -1.1326  0.6940  0.8685
 5577TIP3   OH238221   3.260   3.038  13.025  0.5824 -0.2272  0.1439
 5577TIP3    H138222   3.216   3.056  13.108  0.1897 -1.0783  0.1345
 5577TIP3    H238223   3.311   2.959  13.042 -0.1252 -0.8668 -0.6332
 5578TIP3   OH238224   0.474   0.920  10.658  0.1450 -0.0221  0.7218
 5578TIP3    H138225   0.561   0.904  10.621 -0.4931  1.4821 -1.6841
 5578TIP3    H238226   0.434   0.834  10.664  0.4385 -0.4249 -1.9353
 5579TIP3   OH238227   0.726   4.131   5.949  0.8074  0.1670 -0.0217
 5579TIP3    H138228   0.811   4.140   5.992  0.8173  0.9152 -0.1784
 5579TIP3    H238229   0.662   4.134   6.020  0.8236  1.3763 -0.0312
 5580TIP3   OH238230   4.791   1.295   0.208 -0.5791  0.9142  0.4038
 5580TIP3    H138231   4.801   1.286   0.303 -0.8253  0.5532  0.3996
 5580TIP3    H238232   4.783   1.389   0.193 -0.5676  0.9705  0.7469
 5581TIP3   OH238233   4.214   4.550  13.107  0.2178 -0.8214 -0.8184
 5581TIP3    H138234   4.183   4.637  13.131 -0.2809 -0.9119 -1.1214
 5581TIP3    H238235   4.236   4.509  13.190  0.7561 -0.2968 -0.6942
 5582TIP3   OH238236   4.142   0.047   0.436 -0.8390 -0.0825  0.0014
 5582TIP3    H138237   4.082   0.087   0.499  0.7844 -0.4121  1.8730
 5582TIP3    H238238   4.222   0.030   0.486  0.9572  0.5881 -2.4180
 5583TIP3   OH238239   3.095   0.415  12.607  0.0445  0.2011  0.2573
 5583TIP3    H138240   3.046   0.478  12.555  0.1108  0.5378  0.6013
 5583TIP3    H238241   3.032   0.383  12.671 -0.3017 -0.8968 -0.5922
 5584TIP3   OH238242   3.034   6.535  12.157  0.0550 -0.0946  0.0123
 5584TIP3    H138243   3.088   6.611  12.133  1.1362 -1.0400 -0.6634
 5584TIP3    H238244   2.947   6.572  12.174  0.2814  1.1730 -1.3457
 5585TIP3   OH238245   2.248   1.522  16.401  0.3150 -0.3307 -0.2207
 5585TIP3    H138246   2.284   1.608  16.383  0.5666 -0.5920 -0.9740
 5585TIP3    H238247   2.199   1.499  16.322 -0.8845 -0.3092  0.4874
 5586TIP3   OH238248   4.803   4.661  13.381 -0.1233  0.2579 -0.3676
 5586TIP3    H138249   4.891   4.637  13.413  0.1549  0.3848 -1.0071
 5586TIP3    H238250   4.744   4.631  13.449  0.3912 -0.2250 -0.1193
 5587TIP3   OH238251   5.490   1.845  17.103 -0.3891 -0.1494  0.1416
 5587TIP3    H138252   5.574   1.833  17.058 -0.1620 -0.3140  0.6014
 5587TIP3    H238253   5.512   1.844  17.196 -0.7056  1.4038  0.2454
 5588TIP3   OH238254   0.358   4.063   2.946 -0.0646 -0.2805 -0.7748
 5588TIP3    H138255   0.333   4.088   3.035 -1.2754 -0.9099 -0.9152
 5588TIP3    H238256   0.445   4.024   2.956 -0.5482 -1.1583  0.2911
 5589TIP3   OH238257   4.565   1.038   2.262 -0.0914  0.3316  0.4541
 5589TIP3    H138258   4.476   1.041   2.298 -0.5135 -0.1205 -0.5181
 5589TIP3    H238259   4.568   0.956   2.213  0.3671  1.0449 -0.7569
 5590TIP3   OH238260   6.522   1.784  14.643  0.2871 -0.2896 -0.2967
 5590TIP3    H138261   6.550   1.694  14.656 -1.5176 -0.9731 -0.7755
 5590TIP3    H238262   6.437   1.777  14.600 -0.3660  1.6219  0.5370
 5591TIP3   OH238263   1.332   3.990   1.549 -0.1548 -0.1161 -0.2061
 5591TIP3    H138264   1.304   3.904   1.577 -2.4984  0.5504 -0.3333
 5591TIP3    H238265   1.428   3.984   1.545 -0.0400 -1.7822  2.7359
 5592TIP3   OH238266   6.525   0.491   0.851 -0.4084 -0.1087  0.5713
 5592TIP3    H138267   6.453   0.429   0.851 -0.1888 -0.5168  3.6651
 5592TIP3    H238268   6.603   0.438   0.833 -0.6922  0.1877 -1.8502
 5593TIP3   OH238269   1.122   6.516  13.911  0.4013  0.1506  0.3903
 5593TIP3    H138270   1.121   6.433  13.865 -1.2834  0.2129  0.2623
 5593TIP3    H238271   1.192   6.566  13.869  0.7844 -0.8344 -0.1718
 5594TIP3   OH238272   3.997   5.084   4.442  0.0170 -0.3775 -0.0033
 5594TIP3    H138273   3.908   5.055   4.463 -0.4930  0.2344 -1.1981
 5594TIP3    H238274   4.043   5.084   4.526 -1.0121 -1.0421  0.5797
 5595TIP3   OH238275   1.837   2.390   4.453 -0.1670  0.2294 -0.5365
 5595TIP3    H138276   1.779   2.385   4.377 -1.2561 -1.5601  0.3550
 5595TIP3    H238277   1.813   2.472   4.496 -2.1072 -0.4615 -0.1879
 5596TIP3   OH238278   1.606   2.057  13.081 -1.0854  0.0511 -0.7845
 5596TIP3    H138279   1.538   2.073  13.016 -0.1979 -0.2557 -1.8147
 5596TIP3    H238280   1.653   2.141  13.089 -2.5041  0.7345  1.0805
 5597TIP3   OH238281   6.293   1.471  10.924 -0.2557 -0.1694  0.4821
 5597TIP3    H138282   6.338   1.437  10.846  1.0208  0.9946  0.6704
 5597TIP3    H238283   6.286   1.565  10.907 -1.7246 -0.1810  0.9355
 5598TIP3   OH238284   4.252   6.706   5.984 -0.0952  0.2096 -0.6401
 5598TIP3    H138285   4.173   6.710   5.930  1.2796  1.4340 -2.7121
 5598TIP3    H238286   4.221   6.714   6.074 -2.7184 -3.9432 -0.8987
 5599TIP3   OH238287   3.878   5.532  15.433  0.1261 -0.0261 -0.4357
 5599TIP3    H138288   3.952   5.580  15.396 -0.3503  0.9263 -0.1809
 5599TIP3    H238289   3.826   5.505  15.357 -0.9734  2.1270 -0.5126
 5600TIP3   OH238290   5.941   1.292  10.731  0.0880 -0.2266 -0.3066
 5600TIP3    H138291   5.867   1.284  10.671  1.2531  1.3609 -2.0699
 5600TIP3    H238292   5.995   1.361  10.693  1.6656 -0.2045  1.8041
 5601TIP3   OH238293   6.592   2.841   5.429 -0.0601  0.5102 -0.0118
 5601TIP3    H138294   6.518   2.798   5.386  0.7217  0.0717 -0.9728
 5601TIP3    H238295   6.553   2.892   5.499 -0.9696 -2.7188  2.0356
 5602TIP3   OH238296   4.640   4.840   4.316  0.4831  0.7161 -0.0936
 5602TIP3    H138297   4.679   4.785   4.249 -2.8571 -2.4708  0.2900
 5602TIP3    H238298   4.572   4.889   4.270 -2.1566 -1.8407  0.7672
 5603TIP3   OH238299   6.191   2.565   6.327 -0.0227 -0.0159  0.5080
 5603TIP3    H138300   6.282   2.569   6.355 -0.1985  0.0723  1.0803
 5603TIP3    H238301   6.151   2.645   6.361 -0.6629 -0.7572  1.5560
 5604TIP3   OH238302   4.635   5.766  11.804 -0.3182  0.9624 -0.0045
 5604TIP3    H138303   4.718   5.728  11.774 -1.2760 -0.6066 -0.7392
 5604TIP3    H238304   4.644   5.769  11.900  0.3772  0.2846 -0.0395
 5605TIP3   OH238305   6.447   5.155   0.306  0.0104 -0.3019 -0.5893
 5605TIP3    H138306   6.531   5.200   0.322  0.4565 -1.5840  0.8458
 5605TIP3    H238307   6.381   5.220   0.329  0.6099 -1.0734  4.1441
 5606TIP3   OH238308   0.540   3.180   6.196  0.2032 -0.8501  0.2598
 5606TIP3    H138309   0.554   3.086   6.189 -0.9765 -0.9994 -0.3136
 5606TIP3    H238310   0.495   3.204   6.115 -1.4278 -0.1728  1.3294
 5607TIP3   OH238311   6.665   0.730  12.181  0.8344 -0.2276  0.5773
 5607TIP3    H138312   6.707   0.755  12.263  0.1968 -1.0652  1.1727
 5607TIP3    H238313   6.626   0.644  12.199 -1.4196  0.6454  0.1651
 5608TIP3   OH238314   1.459   2.501   0.804  0.4721 -0.0096  0.1177
 5608TIP3    H138315   1.554   2.505   0.802  0.6138 -1.9867  0.9781
 5608TIP3    H238316   1.439   2.429   0.864 -1.5898  1.0774  0.8346
 5609TIP3   OH238317   4.472   6.745  11.345  0.4971 -0.4420  0.1028
 5609TIP3    H138318   4.500   6.713  11.259  1.2770  0.1042  0.1416
 5609TIP3    H238319   4.397   6.690  11.368  0.8541 -1.2144 -0.5139
 5610TIP3   OH238320   3.349   0.045  10.965  0.0974  0.1664  0.6280
 5610TIP3    H138321   3.368  -0.047  10.949 -0.3034  0.1114  0.4272
 5610TIP3    H238322   3.406   0.092  10.904  0.4029  0.0584  0.8285
 5611TIP3   OH238323   1.163   5.790   0.295  0.1403 -0.1009  0.1708
 5611TIP3    H138324   1.206   5.859   0.245  1.8119 -0.8600  0.4878
 5611TIP3    H238325   1.073   5.790   0.263  0.9384 -0.0589 -2.3464
 5612TIP3   OH238326   3.242   5.932   6.141 -0.0069  0.2935  0.3053
 5612TIP3    H138327   3.319   5.988   6.147  0.4998 -0.1967 -1.1844
 5612TIP3    H238328   3.205   5.932   6.229  2.1704 -0.1370  1.2669
 5613TIP3   OH238329   2.038   3.751   3.109  0.3807  0.4433 -0.7006
 5613TIP3    H138330   2.086   3.767   3.190  0.4359 -1.3415 -0.3575
 5613TIP3    H238331   2.099   3.779   3.040  1.5728 -0.8643 -0.2293
 5614TIP3   OH238332   1.597   2.638   4.953  0.6840 -0.8067 -0.1703
 5614TIP3    H138333   1.551   2.708   5.000  2.5464  0.2603  0.1536
 5614TIP3    H238334   1.561   2.641   4.864 -0.7672 -0.8714  0.3946
 5615TIP3   OH238335   3.438   2.085  14.411  0.2468  0.1829 -0.5122
 5615TIP3    H138336   3.520   2.049  14.377 -0.0033  1.0101 -2.0992
 5615TIP3    H238337   3.381   2.008  14.423  0.3791 -0.1796 -1.9551
 5616TIP3   OH238338   0.755   3.472  11.372  0.1588  0.2966 -0.2831
 5616TIP3    H138339   0.785   3.508  11.288  2.0505  0.9728  0.6272
 5616TIP3    H238340   0.830   3.421  11.404 -1.0676 -1.1905  0.3347
 5617TIP3   OH238341   3.201   2.234  13.326 -0.4542 -0.3050  0.4452
 5617TIP3    H138342   3.243   2.294  13.388  0.3209 -0.3175 -0.0490
 5617TIP3    H238343   3.143   2.289  13.275  1.6918  0.4774 -1.3371
 5618TIP3   OH238344   6.288   2.565   5.522  0.2851  0.0408  0.4534
 5618TIP3    H138345   6.298   2.567   5.617 -0.3587 -1.3020  0.5801
 5618TIP3    H238346   6.210   2.618   5.505 -1.1583 -1.7908  0.9797
 5619TIP3   OH238347   0.984   3.935   6.288  0.3841 -0.6101  0.1777
 5619TIP3    H138348   1.024   3.850   6.308  0.7523 -0.3083  0.7610
 5619TIP3    H238349   0.975   3.978   6.373 -0.2838 -0.2711 -0.0579
 5620TIP3   OH238350   2.384   2.274   4.602  0.1956  0.4375  0.2818
 5620TIP3    H138351   2.473   2.268   4.568  0.3387  1.2107  0.5033
 5620TIP3    H238352   2.357   2.363   4.581 -0.1984  0.4946  1.0187
 5621TIP3   OH238353   1.699   4.734   1.435  0.3762 -0.2585 -0.2323
 5621TIP3    H138354   1.715   4.640   1.444 -0.2396 -0.3673 -0.2616
 5621TIP3    H238355   1.719   4.770   1.521  0.2664 -0.4687 -0.1187
 5622TIP3   OH238356   1.976   1.851  15.781 -0.1706 -0.1563 -0.2491
 5622TIP3    H138357   2.005   1.938  15.811  1.1621 -0.6684  0.0458
 5622TIP3    H238358   1.964   1.861  15.687 -2.4520  0.9643  0.1072
 5623TIP3   OH238359   5.611   3.368  13.821 -0.1377  0.2406  0.5265
 5623TIP3    H138360   5.527   3.404  13.849  0.5706  1.3914  1.2549
 5623TIP3    H238361   5.632   3.301  13.885  0.3213  1.1904  1.4093
 5624TIP3   OH238362   2.285   4.238  13.465  0.6453  0.6789 -0.2388
 5624TIP3    H138363   2.316   4.170  13.405  0.4347 -0.4519  0.8740
 5624TIP3    H238364   2.212   4.279  13.420  2.1146  1.6698 -1.8365
 5625TIP3   OH238365   2.883   2.670  16.234  0.0458 -0.0979  0.2646
 5625TIP3    H138366   2.924   2.688  16.149  1.0199  2.7307  1.2052
 5625TIP3    H238367   2.956   2.649  16.292 -0.5265 -1.1702  0.6210
 5626TIP3   OH238368   2.154   1.176  12.576 -0.0921 -0.0586  0.4057
 5626TIP3    H138369   2.244   1.155  12.553  0.3008 -0.1973  1.9363
 5626TIP3    H238370   2.131   1.112  12.643 -0.8043  0.9268  1.1305
 5627TIP3   OH238371   4.292   3.972   3.572 -0.3605 -0.2523 -0.6442
 5627TIP3    H138372   4.209   4.005   3.540  0.9062  1.8892 -1.9624
 5627TIP3    H238373   4.310   4.024   3.651  0.9502  1.3168 -1.9031
 5628TIP3   OH238374   5.011   5.360   5.406 -0.1740 -0.3288  0.5498
 5628TIP3    H138375   5.098   5.396   5.384  0.1870 -0.6238  1.4704
 5628TIP3    H238376   5.002   5.374   5.500 -2.0597  1.6768  0.1362
 5629TIP3   OH238377   3.095   6.208   3.569 -0.6882  0.3164  0.3170
 5629TIP3    H138378   3.185   6.181   3.587 -0.4845  0.7029 -0.1084
 5629TIP3    H238379   3.065   6.146   3.502 -1.2856 -0.8195  1.5893
 5630TIP3   OH238380   6.803   5.559   4.685 -0.7055  0.2562 -0.3496
 5630TIP3    H138381   6.781   5.647   4.714 -0.0575 -0.3614  2.2420
 5630TIP3    H238382   6.859   5.572   4.609  2.7927  2.3535  2.2675
 5631TIP3   OH238383   4.108   3.744   4.961  0.0544 -0.3192 -0.5048
 5631TIP3    H138384   4.202   3.764   4.963  0.6866 -3.0645  0.7731
 5631TIP3    H238385   4.086   3.745   4.867  1.2970  0.4677 -0.8191
 5632TIP3   OH238386   3.793   4.670   4.801 -0.1323 -0.2884 -0.4948
 5632TIP3    H138387   3.701   4.674   4.777  0.0121  3.3242 -0.9750
 5632TIP3    H238388   3.796   4.703   4.891  0.7078 -0.2088 -0.5440
 5633TIP3   OH238389   1.069   4.686   5.251 -0.2220  0.2462 -0.9091
 5633TIP3    H138390   1.067   4.607   5.305 -1.7583 -0.4151 -1.8634
 5633TIP3    H238391   1.160   4.693   5.222  0.0234 -0.9520 -0.4845
 5634TIP3   OH238392   3.765   0.541  14.463 -0.3260  0.1351  0.3171
 5634TIP3    H138393   3.690   0.572  14.513 -0.1037  1.8668 -0.3835
 5634TIP3    H238394   3.840   0.587  14.501  0.1218 -0.1133 -0.2582
 5635TIP3   OH238395   6.026   5.605  16.153 -0.3056  0.1750 -1.0525
 5635TIP3    H138396   6.068   5.537  16.206  0.0649 -0.2898 -1.9243
 5635TIP3    H238397   5.934   5.578  16.148 -0.1300 -0.3546 -1.5246
 5636TIP3   OH238398   4.727   0.113   3.894 -0.3479 -0.2233  0.3239
 5636TIP3    H138399   4.648   0.119   3.948 -0.5152  1.7268 -0.0501
 5636TIP3    H238400   4.799   0.109   3.957 -0.6959 -2.0525  0.6666
 5637TIP3   OH238401   6.159   4.180  16.450  0.4232 -0.5078 -0.0732
 5637TIP3    H138402   6.136   4.108  16.508 -0.9219 -0.2354 -0.2315
 5637TIP3    H238403   6.228   4.227  16.496 -1.1426  0.1710  1.7462
 5638TIP3   OH238404   2.535   5.057   5.484  0.8073  0.4630 -0.6253
 5638TIP3    H138405   2.490   5.133   5.446  0.4651  0.3884 -0.3772
 5638TIP3    H238406   2.472   4.985   5.476  0.5165  0.5634  0.5376
 5639TIP3   OH238407   1.220   4.055  12.218 -0.0171  0.3713 -0.1739
 5639TIP3    H138408   1.151   4.078  12.155  0.4056 -1.3734 -1.3687
 5639TIP3    H238409   1.234   4.135  12.268 -2.2518  1.0570 -0.5026
 5640TIP3   OH238410   4.341   1.576   3.843  0.2801  0.8057 -0.3940
 5640TIP3    H138411   4.327   1.486   3.872 -0.9963  0.4873 -1.9031
 5640TIP3    H238412   4.253   1.615   3.840  0.6765  1.6888 -1.0461
 5641TIP3   OH238413   6.201   6.403   5.830  0.0335 -0.5457 -0.7710
 5641TIP3    H138414   6.267   6.471   5.816 -0.9424  0.9742  1.4639
 5641TIP3    H238415   6.182   6.406   5.924 -0.6131 -3.4448 -0.7097
 5642TIP3   OH238416   4.657   1.893   1.725 -0.4930 -0.1871  0.1093
 5642TIP3    H138417   4.643   1.799   1.721  0.2145 -0.3579  1.1657
 5642TIP3    H238418   4.635   1.917   1.815 -0.1851  0.5681 -0.0029
 5643TIP3   OH238419   1.756   2.709   4.126  0.3454 -0.4820  0.1397
 5643TIP3    H138420   1.802   2.730   4.207  0.3027  1.1915 -0.2445
 5643TIP3    H238421   1.821   2.662   4.073  0.2449 -1.9578  1.2705
 5644TIP3   OH238422   6.587   2.739   6.260  0.6080 -0.6037  0.1451
 5644TIP3    H138423   6.515   2.768   6.316  0.5185 -1.1537  0.3247
 5644TIP3    H238424   6.567   2.775   6.174  0.8366  0.4001  0.4923
 5645TIP3   OH238425   1.106   6.412   0.967  0.8726  0.2657  0.2237
 5645TIP3    H138426   1.053   6.429   1.045  0.8543  0.9100  0.0761
 5645TIP3    H238427   1.196   6.429   0.994  1.0983 -1.3588  0.6301
 5646TIP3   OH238428   2.180   5.633  12.074  0.1592 -0.2458  0.0286
 5646TIP3    H138429   2.248   5.620  12.007 -0.0887 -1.7495  0.0450
 5646TIP3    H238430   2.163   5.546  12.109 -0.4782  0.3655  1.3323
 5647TIP3   OH238431   0.739   2.609   5.651 -0.2291  0.0197  0.5338
 5647TIP3    H138432   0.686   2.538   5.687 -0.6762 -0.2378 -0.5884
 5647TIP3    H238433   0.675   2.665   5.607 -0.0922  1.8704  2.4955
 5648TIP3   OH238434   5.278   2.475  16.208  0.1340 -0.1028  0.4822
 5648TIP3    H138435   5.282   2.461  16.302  0.1154 -0.2905  0.4543
 5648TIP3    H238436   5.201   2.425  16.180 -1.4508  2.0356  0.7461
 5649TIP3   OH238437   1.827   5.076   5.679 -0.3111  0.0232  0.2433
 5649TIP3    H138438   1.846   4.986   5.707  1.2893  0.6103  1.2002
 5649TIP3    H238439   1.873   5.085   5.595 -0.6809 -0.1239  0.0241
 5650TIP3   OH238440   4.709   0.987   0.144 -0.5250 -0.3665 -0.4389
 5650TIP3    H138441   4.754   0.909   0.178  1.5983 -0.0498 -2.3100
 5650TIP3    H238442   4.724   1.054   0.211 -0.2732 -0.9145  0.0623
 5651TIP3   OH238443   1.942   2.251  14.170 -0.2614 -0.7169 -0.1254
 5651TIP3    H138444   1.951   2.203  14.087  0.2402  0.4303 -0.7536
 5651TIP3    H238445   1.987   2.195  14.234 -0.8528 -1.7304 -0.5636
 5652TIP3   OH238446   2.082   2.646   5.257  0.1337  0.7717 -0.1795
 5652TIP3    H138447   2.044   2.720   5.304 -2.4578 -0.0599 -0.8050
 5652TIP3    H238448   2.091   2.678   5.167 -1.7278  0.1777 -0.6292
 5653TIP3   OH238449   0.347   2.414  12.329 -0.0691  0.2967 -0.2930
 5653TIP3    H138450   0.384   2.500  12.310 -1.3285  0.9187 -0.0379
 5653TIP3    H238451   0.280   2.431  12.396 -0.8859 -0.7595 -0.8091
 5654TIP3   OH238452   1.612   6.723   3.977 -0.4003  0.0464  0.1251
 5654TIP3    H138453   1.682   6.704   3.914 -1.3818 -1.9993 -0.4245
 5654TIP3    H238454   1.657   6.725   4.062  0.7504  1.6683 -0.4728
 5655TIP3   OH238455   0.666   5.215   0.568  0.1515 -0.1209  0.4361
 5655TIP3    H138456   0.669   5.230   0.473 -1.2233  1.6203  0.6158
 5655TIP3    H238457   0.735   5.270   0.603  0.3923 -0.4552  0.4971
 5656TIP3   OH238458   2.001   4.661  14.555  0.6551 -0.0816 -0.1574
 5656TIP3    H138459   2.000   4.640  14.648 -0.2295 -3.2048 -0.7598
 5656TIP3    H238460   2.093   4.660  14.531  0.8301 -0.1698  0.5059
 5657TIP3   OH238461   2.191   2.161  13.708 -0.1005  0.0863 -0.1308
 5657TIP3    H138462   2.148   2.214  13.641  0.8729 -1.1710 -1.8152
 5657TIP3    H238463   2.269   2.211  13.731  0.0261  0.1054 -0.5937
 5658TIP3   OH238464   4.419   4.584  16.004 -0.0675  0.0371  0.4405
 5658TIP3    H138465   4.392   4.574  16.095  4.6904 -0.0584  2.0752
 5658TIP3    H238466   4.359   4.650  15.969 -1.4125  0.8958  3.9188
 5659TIP3   OH238467   1.547   4.571  15.176 -0.0499 -0.7939  0.4219
 5659TIP3    H138468   1.582   4.634  15.239 -0.1001 -1.6960  1.3753
 5659TIP3    H238469   1.624   4.539  15.129 -0.2287  1.7481 -1.8327
 5660TIP3   OH238470   6.723   0.392  11.807 -0.1356  0.0559  0.0738
 5660TIP3    H138471   6.651   0.337  11.777 -1.1872  0.9402  0.8779
 5660TIP3    H238472   6.745   0.447  11.732 -0.8796  0.3713  0.0886
 5661TIP3   OH238473   3.341   4.059   5.872 -0.3235  0.6026  0.3191
 5661TIP3    H138474   3.322   4.006   5.949  0.3535  0.7253  0.5744
 5661TIP3    H238475   3.255   4.091   5.844 -0.6587 -0.0327  0.5847
 5662TIP3   OH238476   6.534   3.398   1.260  0.7007 -0.6051 -0.0014
 5662TIP3    H138477   6.558   3.310   1.290  1.3778  0.3804  2.6092
 5662TIP3    H238478   6.493   3.439   1.336 -2.9924  0.2156 -2.1702
 5663TIP3   OH238479   2.553   1.338  16.944  0.0073  0.6848 -0.5985
 5663TIP3    H138480   2.545   1.309  16.853  1.1095 -0.3701 -0.3942
 5663TIP3    H238481   2.509   1.422  16.946  0.2873  0.9149 -2.2178
 5664TIP3   OH238482   5.692   6.132   3.209  0.0221 -0.1476 -0.6967
 5664TIP3    H138483   5.755   6.097   3.273  0.6559  0.3074 -1.0562
 5664TIP3    H238484   5.628   6.062   3.198 -1.0351  0.3405  1.6310
 5665TIP3   OH238485   4.923   3.301   5.147 -0.2834  0.0837 -0.3513
 5665TIP3    H138486   4.999   3.356   5.128 -1.0848  1.1857 -0.4194
 5665TIP3    H238487   4.952   3.244   5.219 -0.1348  2.1872  1.3554
 5666TIP3   OH238488   0.385   5.392   4.630  0.2253  0.4901 -0.2820
 5666TIP3    H138489   0.465   5.417   4.676 -2.0860  3.1616  2.7837
 5666TIP3    H238490   0.344   5.326   4.686 -1.2240  1.5958  0.0377
 5667TIP3   OH238491   2.894   4.107   3.596 -0.3233 -0.2945 -0.0584
 5667TIP3    H138492   2.868   4.057   3.673 -1.1530 -0.3551 -0.3722
 5667TIP3    H238493   2.901   4.042   3.526 -1.3222  0.0065 -0.4479
 5668TIP3   OH238494   3.926   3.066  14.361 -0.6060  0.5414 -0.4694
 5668TIP3    H138495   3.928   3.032  14.450 -1.1152 -1.3704 -1.1369
 5668TIP3    H238496   3.948   3.159  14.370 -0.2769  0.3085  1.5852
 5669TIP3   OH238497   4.744   1.577  15.576  0.2211 -0.5195  0.1417
 5669TIP3    H138498   4.716   1.654  15.527  0.0097 -0.4910  0.2998
 5669TIP3    H238499   4.831   1.556  15.543  0.3219 -0.1488  0.1741
 5670TIP3   OH238500   4.930   5.888   4.393 -0.3759  0.0295  0.0239
 5670TIP3    H138501   4.988   5.825   4.351  0.7174  0.0716  1.3502
 5670TIP3    H238502   4.860   5.904   4.330  0.6103 -0.6820 -1.2999
 5671TIP3   OH238503   6.170   1.823  14.182  0.0756 -0.4496 -0.2536
 5671TIP3    H138504   6.132   1.911  14.185 -0.2697 -0.4631 -2.6138
 5671TIP3    H238505   6.108   1.769  14.232 -0.7772  0.2868 -0.4751
 5672TIP3   OH238506   2.645   6.538   0.295 -0.1954 -0.1566  0.2305
 5672TIP3    H138507   2.614   6.450   0.275 -1.1150  0.3743 -0.7928
 5672TIP3    H238508   2.696   6.564   0.218  0.0227  0.2260  0.4956
 5673TIP3   OH238509   0.849   6.623   5.557 -1.0703 -0.3597 -0.2536
 5673TIP3    H138510   0.902   6.552   5.523  0.3573  0.2264  0.6509
 5673TIP3    H238511   0.890   6.647   5.640 -2.3908  0.5353  0.1893
 5674TIP3   OH238512   0.803   6.667   5.238  0.6545 -0.1243 -0.1112
 5674TIP3    H138513   0.794   6.670   5.334  0.7873 -1.0247 -0.0646
 5674TIP3    H238514   0.863   6.595   5.222 -0.3582 -0.8018 -0.9329
 5675TIP3   OH238515   3.049   5.680  15.690 -0.4237 -0.3408  0.2177
 5675TIP3    H138516   3.081   5.606  15.638 -1.2768  0.1638 -1.0715
 5675TIP3    H238517   3.118   5.746  15.681 -0.2151 -0.5361  0.3687
 5676TIP3   OH238518   2.161   5.087   2.400  0.1483 -0.2735 -0.1015
 5676TIP3    H138519   2.223   5.016   2.417 -0.3639 -0.1145  3.0449
 5676TIP3    H238520   2.108   5.092   2.479 -1.2652  2.2233 -1.0961
 5677TIP3   OH238521   6.631   0.187   1.464  0.0444  0.1073 -0.3118
 5677TIP3    H138522   6.637   0.093   1.449 -0.0953  0.2576 -1.3597
 5677TIP3    H238523   6.541   0.209   1.444 -0.2170  0.3021  0.9817
 5678TIP3   OH238524   2.943   6.250   1.508  0.3033  0.3516  0.4874
 5678TIP3    H138525   2.981   6.337   1.517  1.8769 -0.3572  1.0873
 5678TIP3    H238526   2.866   6.252   1.566  0.7554  1.1071  1.0813
 5679TIP3   OH238527   4.007   5.257  11.310 -0.3552  0.2856  0.4335
 5679TIP3    H138528   4.014   5.236  11.403  0.6875  2.3739  0.9044
 5679TIP3    H238529   3.945   5.330  11.307 -0.6504  0.0009 -0.5546
 5680TIP3   OH238530   6.808   3.151   1.278  0.1305  0.0094 -0.2910
 5680TIP3    H138531   6.740   3.127   1.216  0.9004 -0.9783 -0.7642
 5680TIP3    H238532   6.770   3.133   1.364 -0.6444  0.6345 -0.4935
 5681TIP3   OH238533   2.170   4.403   4.159 -0.3022  0.2945 -0.1516
 5681TIP3    H138534   2.210   4.485   4.132 -1.6088  0.9310 -0.1992
 5681TIP3    H238535   2.154   4.414   4.253 -0.3410  0.0363 -0.1261
 5682TIP3   OH238536   3.556   3.485   5.602 -0.3734 -0.2799  0.7500
 5682TIP3    H138537   3.630   3.479   5.541  0.2091  1.4037  1.2533
 5682TIP3    H238538   3.490   3.536   5.555 -0.8690 -0.9955  0.6541
 5683TIP3   OH238539   3.679   3.561   1.094 -0.1365  0.5117  0.2825
 5683TIP3    H138540   3.737   3.619   1.045  0.2593  1.2105  1.5277
 5683TIP3    H238541   3.620   3.620   1.142  1.2316  0.0092  2.7447
 5684TIP3   OH238542   0.065   6.226  11.652  0.0288 -0.3367 -0.3114
 5684TIP3    H138543   0.115   6.145  11.644  1.0346  0.3724 -1.6460
 5684TIP3    H238544   0.118   6.283  11.708  0.3976  0.1689 -1.1586
 5685TIP3   OH238545   1.152   5.320   0.093 -0.3593  0.2791 -0.2461
 5685TIP3    H138546   1.170   5.268   0.171 -0.4626  0.4146 -0.1310
 5685TIP3    H238547   1.110   5.399   0.126 -0.6018  0.2410 -0.4589
 5686TIP3   OH238548   5.461   0.224   0.087  0.6789 -0.0491 -0.0347
 5686TIP3    H138549   5.377   0.180   0.073  2.0022 -2.5494 -0.6922
 5686TIP3    H238550   5.506   0.171   0.153  1.3873  1.8161  1.0671
 5687TIP3   OH238551   4.923   6.594   0.350  0.2091 -0.5203  0.6460
 5687TIP3    H138552   4.899   6.555   0.267 -0.8698  0.6286  0.3987
 5687TIP3    H238553   4.997   6.542   0.380 -2.1285 -3.8385  1.1467
 5688TIP3   OH238554   6.150   4.738   2.444 -0.0730 -0.0595 -0.3141
 5688TIP3    H138555   6.132   4.832   2.446  0.8778  0.1487  1.8117
 5688TIP3    H238556   6.240   4.731   2.410  0.2852 -0.0727  0.5989
 5689TIP3   OH238557   6.051   3.742   2.300 -0.3088 -0.0891 -0.0273
 5689TIP3    H138558   6.055   3.659   2.253  0.2483 -0.2990  0.3726
 5689TIP3    H238559   6.094   3.805   2.243 -0.9447 -0.0192 -0.4365
 5690TIP3   OH238560   3.254   6.688   1.399  0.3864  0.1619 -0.2861
 5690TIP3    H138561   3.284   6.708   1.488 -0.4978 -1.2628  0.3671
 5690TIP3    H238562   3.252   6.773   1.354  1.8753  0.7722  0.7101
 5691TIP3   OH238563   4.708   5.807   5.147  0.0515  0.1754  0.5087
 5691TIP3    H138564   4.695   5.715   5.122  0.0775  0.0979  0.7715
 5691TIP3    H238565   4.684   5.857   5.069 -0.0724 -0.0514  0.3998
 5692TIP3   OH238566   2.377   3.847   1.900 -0.0457 -0.5794 -0.3738
 5692TIP3    H138567   2.310   3.779   1.893 -1.0402  0.2486  0.6293
 5692TIP3    H238568   2.415   3.853   1.813 -1.0824 -1.2847 -0.8956
 5693TIP3   OH238569   4.317   5.108  13.582 -0.0289  0.3419  0.7093
 5693TIP3    H138570   4.229   5.142  13.568  0.4024  0.9024 -0.7941
 5693TIP3    H238571   4.345   5.147  13.664 -1.2501 -0.0287  1.3372
 5694TIP3   OH238572   2.953   4.033  11.523  0.4129  0.5442 -0.4198
 5694TIP3    H138573   3.016   3.977  11.567  3.3284  2.8968 -1.2696
 5694TIP3    H238574   2.903   3.974  11.466  1.8072 -1.4422  0.3124
 5695TIP3   OH238575   0.965   1.061   3.658 -0.5448  0.3659 -0.4346
 5695TIP3    H138576   1.022   0.984   3.669 -1.2817 -0.0695  0.4209
 5695TIP3    H238577   0.879   1.031   3.686 -0.4215  2.1292  2.1056
 5696TIP3   OH238578   3.632   5.619  11.756 -0.2691  0.0241  0.5266
 5696TIP3    H138579   3.693   5.659  11.819  1.2946  0.0731 -0.9522
 5696TIP3    H238580   3.593   5.545  11.803  1.6199 -0.5569  1.2424
 5697TIP3   OH238581   4.948   3.266   4.361 -0.2331 -0.3411  0.2155
 5697TIP3    H138582   4.939   3.206   4.287 -1.3855 -1.1471  0.9835
 5697TIP3    H238583   4.867   3.316   4.362 -0.5967 -0.9008  1.3872
 5698TIP3   OH238584   0.734   5.389   4.173  0.7711  0.5844 -0.6636
 5698TIP3    H138585   0.660   5.332   4.192  0.7272  0.2361 -1.8295
 5698TIP3    H238586   0.717   5.423   4.085  2.3746 -0.1260 -1.2937
 5699TIP3   OH238587   0.666   0.045  13.878 -0.0582  0.2284 -0.2736
 5699TIP3    H138588   0.675   0.064  13.785 -0.4204  2.4088  0.0792
 5699TIP3    H238589   0.751   0.069  13.916  0.4163 -1.5525 -0.1420
 5700TIP3   OH238590   2.805   4.373   0.629  0.2052 -0.1864  0.0178
 5700TIP3    H138591   2.818   4.442   0.693  1.1571 -1.4007  1.1984
 5700TIP3    H238592   2.747   4.310   0.673 -0.8618 -0.0353 -1.1289
 5701TIP3   OH238593   5.484   3.788  15.634 -0.3431 -0.4321 -0.8337
 5701TIP3    H138594   5.463   3.869  15.681 -0.4656  0.2392 -2.0126
 5701TIP3    H238595   5.512   3.727  15.703 -0.4868  0.5264  0.1000
 5702TIP3   OH238596   2.168   1.693   2.986  0.1628 -0.5445  0.8782
 5702TIP3    H138597   2.162   1.664   3.077  0.2512 -1.3920  0.6240
 5702TIP3    H238598   2.199   1.616   2.938 -1.9713 -0.7973 -0.2137
 5703TIP3   OH238599   5.290   3.706  12.295 -0.0927 -0.8534 -0.1867
 5703TIP3    H138600   5.310   3.623  12.338 -0.3388  0.6298  3.0551
 5703TIP3    H238601   5.261   3.763  12.366 -1.8692  1.4394 -2.5727
 5704TIP3   OH238602   2.691   6.458  14.006 -0.6666 -0.1289  0.0456
 5704TIP3    H138603   2.781   6.458  13.975 -0.4672 -0.7701  0.5862
 5704TIP3    H238604   2.638   6.461  13.927 -0.1744  0.6787 -0.2622
 5705TIP3   OH238605   1.238   5.412   1.257 -0.1519  0.3956  0.1418
 5705TIP3    H138606   1.292   5.479   1.216  1.2795 -1.3865 -1.1086
 5705TIP3    H238607   1.298   5.338   1.269 -1.9608 -1.1587  0.0769
 5706TIP3   OH238608   6.646   3.618   4.378 -0.2242  0.0738 -0.2543
 5706TIP3    H138609   6.563   3.635   4.424 -0.0975 -1.3346  0.5756
 5706TIP3    H238610   6.658   3.523   4.387  1.4735  0.2561 -0.3874
 5707TIP3   OH238611   6.027   5.660  17.050 -0.1881 -0.2389 -0.0008
 5707TIP3    H138612   6.111   5.621  17.073 -0.5354 -0.4897  0.8642
 5707TIP3    H238613   5.998   5.611  16.973  0.3798 -0.2551 -0.2081
 5708TIP3   OH238614   1.833   5.969  14.377 -0.1903  1.3373 -0.2200
 5708TIP3    H138615   1.917   5.958  14.333 -0.4298 -1.1281 -0.2086
 5708TIP3    H238616   1.853   5.954  14.470 -0.6168  0.6917 -0.2216
 5709TIP3   OH238617   4.851   0.867  13.996 -0.1428 -0.0210  0.1920
 5709TIP3    H138618   4.836   0.809  13.922  0.4507 -2.0062  1.5401
 5709TIP3    H238619   4.915   0.930  13.965 -1.7400  0.7601 -1.7107
 5710TIP3   OH238620   1.584   1.659   4.416  0.0266  0.2131  0.2034
 5710TIP3    H138621   1.676   1.683   4.430 -0.2140  0.3160  1.8056
 5710TIP3    H238622   1.542   1.740   4.389  0.6187 -0.1106 -1.8886
 5711TIP3   OH238623   5.768   2.032  10.284 -0.0521  0.4800  0.3481
 5711TIP3    H138624   5.705   2.102  10.299 -0.1771 -0.0056  2.4117
 5711TIP3    H238625   5.837   2.047  10.349  1.7306  0.6748 -1.4868
 5712TIP3   OH238626   1.539   4.282   2.471 -0.3059 -0.3071  0.1796
 5712TIP3    H138627   1.619   4.331   2.491 -0.2674 -0.2018 -0.2289
 5712TIP3    H238628   1.518   4.305   2.381 -0.7340 -0.4266  0.2434
 5713TIP3   OH238629   5.680   1.900   3.673 -0.2115 -0.0485  0.0370
 5713TIP3    H138630   5.674   1.934   3.762 -0.2532  0.7857 -0.2790
 5713TIP3    H238631   5.590   1.889   3.645 -0.2529  1.7215 -0.6500
 5714TIP3   OH238632   2.910   3.825   3.797 -0.0634  0.1648 -0.2384
 5714TIP3    H138633   2.841   3.811   3.862  3.3088  1.4610  4.0738
 5714TIP3    H238634   2.938   3.737   3.773 -2.5856 -0.3753 -1.6589
 5715TIP3   OH238635   4.807   0.420  13.333 -0.2501 -0.0443 -0.0081
 5715TIP3    H138636   4.892   0.458  13.356 -0.4680  1.6134 -1.6269
 5715TIP3    H238637   4.828   0.333  13.300  0.8029  0.2458 -0.1528
 5716TIP3   OH238638   1.399   0.960  13.624  0.4643  0.0206  0.2320
 5716TIP3    H138639   1.446   1.000  13.550  0.2665  1.3438  0.7800
 5716TIP3    H238640   1.315   0.934  13.588  0.8875 -0.6159 -0.3184
 5717TIP3   OH238641   6.542   3.512   5.429  0.2883 -0.1564  0.2296
 5717TIP3    H138642   6.609   3.446   5.411 -1.2073 -2.2305  1.7260
 5717TIP3    H238643   6.576   3.592   5.391  3.0844 -1.3615 -0.0313
 5718TIP3   OH238644   5.163   6.466  15.095 -0.5778  0.1933 -0.2439
 5718TIP3    H138645   5.209   6.452  15.012  3.5207 -0.3234  1.8854
 5718TIP3    H238646   5.169   6.560  15.111 -1.2728  0.2768 -0.4212
 5719TIP3   OH238647   1.221   3.170  12.439  0.2309 -0.1235 -0.1934
 5719TIP3    H138648   1.289   3.103  12.440  1.1264  0.6881 -2.0653
 5719TIP3    H238649   1.201   3.183  12.346 -3.1175 -0.9089  0.2888
 5720TIP3   OH238650   3.089   0.243  15.860  0.0662  0.3232  0.3883
 5720TIP3    H138651   3.063   0.244  15.768  0.4823  0.2906  0.2696
 5720TIP3    H238652   3.125   0.330  15.876  1.6011 -0.2141  0.0473
 5721TIP3   OH238653   6.364   2.575  12.687  0.5330 -0.1025  0.5509
 5721TIP3    H138654   6.348   2.633  12.761  0.0029 -0.6656  0.8795
 5721TIP3    H238655   6.442   2.612  12.645  0.9216  0.1405  1.4608
 5722TIP3   OH238656   1.236   3.440  12.673  0.3971 -0.7128 -0.5856
 5722TIP3    H138657   1.232   3.345  12.671 -0.5566 -0.9765  3.7272
 5722TIP3    H238658   1.278   3.461  12.757 -0.6461  2.6298 -0.7297
 5723TIP3   OH238659   5.709   0.926  11.838 -0.2558  0.5262 -0.6750
 5723TIP3    H138660   5.779   0.976  11.879 -0.3694  0.6949 -0.6836
 5723TIP3    H238661   5.667   0.989  11.779 -0.4909  0.4598 -0.5792
 5724TIP3   OH238662   5.409   0.150  15.629  0.4423 -0.3080  0.3975
 5724TIP3    H138663   5.504   0.149  15.625  0.4911  0.3107  1.1214
 5724TIP3    H238664   5.386   0.076  15.685  0.5727  0.2696  1.2318
 5725TIP3   OH238665   6.454   4.186  13.853  0.0333  0.1798  0.0336
 5725TIP3    H138666   6.481   4.107  13.898  0.1912 -0.6945 -1.5145
 5725TIP3    H238667   6.425   4.156  13.766 -0.6078  1.7247 -0.3320
 5726TIP3   OH238668   2.159   4.986   3.861 -0.1849  0.0815  0.0605
 5726TIP3    H138669   2.237   4.944   3.899  0.5919  2.0025  0.7193
 5726TIP3    H238670   2.171   5.079   3.880 -2.6790  0.4349  0.2039
 5727TIP3   OH238671   2.355   4.493   1.481  0.3878 -0.4240  0.1129
 5727TIP3    H138672   2.428   4.432   1.478  0.7112 -0.0430  0.2253
 5727TIP3    H238673   2.384   4.564   1.539  0.3160  0.2301 -0.6362
 5728TIP3   OH238674   2.428   0.290  15.307  0.4712 -0.1895  0.4202
 5728TIP3    H138675   2.393   0.379  15.303  2.0147  0.4486 -2.7077
 5728TIP3    H238676   2.507   0.297  15.360 -0.4094 -0.1435  1.7551
 5729TIP3   OH238677   0.652   5.536  12.450  0.2827 -0.2271 -0.0978
 5729TIP3    H138678   0.695   5.621  12.444  0.1018 -0.2587 -3.0822
 5729TIP3    H238679   0.561   5.553  12.425 -0.2393 -1.0218  1.1528
 5730TIP3   OH238680   0.822   2.203  16.927  0.1579  0.1612 -0.4029
 5730TIP3    H138681   0.793   2.148  16.999 -1.4830  0.6024 -0.6866
 5730TIP3    H238682   0.890   2.258  16.964 -0.0964 -0.1829  0.5937
 5731TIP3   OH238683   5.803   6.300   0.483 -0.1276  0.2609  0.3325
 5731TIP3    H138684   5.823   6.250   0.404 -0.0803 -0.1050  0.5749
 5731TIP3    H238685   5.708   6.292   0.492  0.0839 -1.3837  1.4213
 5732TIP3   OH238686   2.927   0.233   2.163  0.7802  0.8240 -0.3064
 5732TIP3    H138687   3.001   0.254   2.106  0.1377  2.6542 -0.5629
 5732TIP3    H238688   2.877   0.315   2.167 -2.1942 -0.7726 -1.5419
 5733TIP3   OH238689   2.173   3.872   2.491 -0.7972 -0.0239  1.0786
 5733TIP3    H138690   2.194   3.951   2.442 -1.1246 -0.7121 -0.2053
 5733TIP3    H238691   2.251   3.855   2.545 -0.3357  0.6098  0.6197
 5734TIP3   OH238692   3.048   0.654   1.517 -0.6280 -0.1108  0.7693
 5734TIP3    H138693   3.117   0.595   1.548 -0.1028  0.2955  0.4014
 5734TIP3    H238694   2.969   0.600   1.513 -0.0711 -0.8966  0.0464
 5735TIP3   OH238695   2.302   6.706   3.488 -0.2393  0.2288  0.2583
 5735TIP3    H138696   2.358   6.658   3.550 -1.9999  0.4373  2.1465
 5735TIP3    H238697   2.330   6.797   3.495  1.0316 -0.0339 -0.9781
 5736TIP3   OH238698   4.452   4.056  11.300 -0.0618  0.5431  0.2247
 5736TIP3    H138699   4.517   4.115  11.339 -0.8914  0.9632  1.0134
 5736TIP3    H238700   4.431   4.097  11.216  2.0684 -0.6072 -0.9439
 5737TIP3   OH238701   3.709   4.776   1.567  0.2684  0.7142  0.1217
 5737TIP3    H138702   3.788   4.829   1.576  1.2048 -0.7350  0.9110
 5737TIP3    H238703   3.712   4.716   1.641 -1.1916  0.1092 -0.2683
 5738TIP3   OH238704   3.955   1.678   5.297 -0.0011 -0.7645  0.2819
 5738TIP3    H138705   4.025   1.706   5.356  1.3095 -0.4827 -1.3208
 5738TIP3    H238706   3.957   1.583   5.300  2.1344 -0.8531 -1.5217
 5739TIP3   OH238707   0.886   3.483   1.102  0.0297 -0.1122  0.2952
 5739TIP3    H138708   0.802   3.528   1.110  0.3961  0.6413 -0.0303
 5739TIP3    H238709   0.932   3.530   1.032 -0.4066 -2.3110 -1.5724
 5740TIP3   OH238710   0.578   1.771  12.406 -0.5964  0.2466 -0.1687
 5740TIP3    H138711   0.486   1.775  12.429 -0.5173  2.0510 -0.0532
 5740TIP3    H238712   0.624   1.762  12.489 -0.6145  0.3698 -0.1456
 5741TIP3   OH238713   0.476   2.933   3.403 -0.2135  0.6231  0.2022
 5741TIP3    H138714   0.462   2.934   3.309  0.8552 -0.4080  0.0161
 5741TIP3    H238715   0.440   3.017   3.434  0.7113  1.6135 -1.2970
 5742TIP3   OH238716   3.897   5.929  12.065 -0.1214 -0.3003 -0.2732
 5742TIP3    H138717   3.958   5.933  12.138 -0.5544  1.0510  0.0494
 5742TIP3    H238718   3.891   6.019  12.034 -1.0948 -0.5986 -1.0028
 5743TIP3   OH238719   3.855   3.787  13.857 -0.4919 -0.3613  0.4041
 5743TIP3    H138720   3.913   3.711  13.856 -0.6840 -0.5125  0.8810
 5743TIP3    H238721   3.912   3.860  13.879 -0.2438 -0.3063 -0.3656
 5744TIP3   OH238722   5.694   4.362  15.103 -0.0471 -0.2079  0.3052
 5744TIP3    H138723   5.750   4.295  15.143  0.2182 -0.0223  0.2460
 5744TIP3    H238724   5.696   4.435  15.164 -1.7580 -0.8864  1.2617
 5745TIP3   OH238725   6.659   1.464   4.711  0.2753  0.3680  1.0589
 5745TIP3    H138726   6.693   1.387   4.665 -1.0085  0.9177 -0.9326
 5745TIP3    H238727   6.735   1.519   4.727  0.6152  1.1155 -2.3626
 5746TIP3   OH238728   4.887   4.495   5.331  0.3759 -0.4263 -0.0002
 5746TIP3    H138729   4.846   4.427   5.277  0.7559 -0.8429  0.2313
 5746TIP3    H238730   4.831   4.501   5.409 -0.8936  1.0530 -0.9628
 5747TIP3   OH238731   0.964   5.890  15.389 -0.2752  0.6605 -0.0729
 5747TIP3    H138732   0.934   5.834  15.317 -1.0942  1.9727 -0.8067
 5747TIP3    H238733   0.910   5.864  15.463 -0.7641  0.5626 -0.4525
 5748TIP3   OH238734   3.635   1.775  15.353 -0.2728 -0.0794  0.9247
 5748TIP3    H138735   3.690   1.698  15.337 -0.0499 -0.0189  1.4040
 5748TIP3    H238736   3.650   1.797  15.444 -1.1068 -0.0691  1.0701
 5749TIP3   OH238737   4.454   1.206  12.069  0.5586  0.2318  0.2860
 5749TIP3    H138738   4.477   1.254  12.148  1.4859  2.7537 -1.3871
 5749TIP3    H238739   4.522   1.138  12.061 -0.5804 -1.2622  2.5229
 5750TIP3   OH238740   5.780   1.975  11.222  0.2503  0.1850  0.0457
 5750TIP3    H138741   5.697   2.015  11.195  0.4197  0.1552 -0.5144
 5750TIP3    H238742   5.759   1.882  11.231 -0.1203  0.3659  1.2606
 5751TIP3   OH238743   2.353   4.164  16.206 -0.3474  0.6325  0.4984
 5751TIP3    H138744   2.334   4.212  16.287 -0.7854  0.1427  0.6947
 5751TIP3    H238745   2.356   4.231  16.138  0.0153  1.0463  0.9234
 5752TIP3   OH238746   0.358   5.595   1.088  0.0634  0.1618 -0.1181
 5752TIP3    H138747   0.289   5.534   1.114  1.2559 -1.1807 -0.0177
 5752TIP3    H238748   0.412   5.605   1.166  0.9194 -0.0933 -0.6703
 5753TIP3   OH238749   2.830   1.279  15.387 -0.2822 -0.1024  0.1923
 5753TIP3    H138750   2.922   1.302  15.395 -0.5501  1.0486  0.0692
 5753TIP3    H238751   2.792   1.348  15.333 -0.7476 -1.8034 -1.8029
 5754TIP3   OH238752   6.811   4.413  12.706  0.3993 -0.2394  0.0308
 5754TIP3    H138753   6.817   4.454  12.792 -2.7497 -0.4081  0.4415
 5754TIP3    H238754   6.824   4.485  12.644 -0.3693  0.4869  0.6936
 5755TIP3   OH238755   3.272   0.993  12.713  0.4040  0.2288 -0.4511
 5755TIP3    H138756   3.179   0.991  12.691 -0.3273  2.4201  1.9499
 5755TIP3    H238757   3.275   0.967  12.805  1.9933  1.3026 -0.1652
 5756TIP3   OH238758   4.711   3.054   6.372 -0.2309  0.0914 -0.4179
 5756TIP3    H138759   4.729   3.019   6.285 -1.4902 -0.2553 -0.5614
 5756TIP3    H238760   4.793   3.042   6.420  0.1248 -0.7988 -1.2046
 5757TIP3   OH238761   4.591   1.788  14.235 -0.1030  0.0962  0.3780
 5757TIP3    H138762   4.499   1.797  14.260 -0.3003 -0.1545 -0.2478
 5757TIP3    H238763   4.590   1.728  14.161  0.6378 -0.4691  0.8110
 5758TIP3   OH238764   6.108   0.204   1.139  0.5455  0.2028 -0.3381
 5758TIP3    H138765   6.071   0.214   1.227  1.2686 -0.1252  0.0109
 5758TIP3    H238766   6.192   0.251   1.143 -0.2230  1.7603 -1.3984
 5759TIP3   OH238767   2.479   6.134   0.445 -0.0333  0.2924 -0.0975
 5759TIP3    H138768   2.563   6.088   0.440  0.1530  0.7086 -0.9050
 5759TIP3    H238769   2.480   6.178   0.530  0.4948  0.1721 -0.0432
 5760TIP3   OH238770   6.270   6.773   0.359  0.2449  1.2131 -0.1308
 5760TIP3    H138771   6.272   6.775   0.264 -0.4579  1.3889 -0.1414
 5760TIP3    H238772   6.187   6.813   0.383  0.0561  0.4502  0.5288
 5761TIP3   OH238773   3.802   1.229  11.780  0.2517  0.6224  0.2623
 5761TIP3    H138774   3.848   1.195  11.856 -0.2244 -0.6194  0.0118
 5761TIP3    H238775   3.831   1.320  11.773  0.9797  0.4892  1.3896
 5762TIP3   OH238776   0.221   1.968  12.454  0.3905  0.5511  0.0444
 5762TIP3    H138777   0.190   1.878  12.443 -0.5329  0.7457  0.8592
 5762TIP3    H238778   0.245   1.973  12.547  2.5552  0.5313 -0.4562
 5763TIP3   OH238779   2.362   5.143  15.556  0.2447 -0.1792  0.1565
 5763TIP3    H138780   2.360   5.081  15.629  0.4287  1.4969  1.6470
 5763TIP3    H238781   2.287   5.118  15.502  0.0352 -1.3967  0.9722
 5764TIP3   OH238782   1.883   2.105   3.232 -0.0559  0.1581  0.1483
 5764TIP3    H138783   1.973   2.074   3.236 -0.0500 -0.3449 -2.3029
 5764TIP3    H238784   1.831   2.031   3.264  0.3149  0.0043  0.4087
 5765TIP3   OH238785   0.347   2.404   4.528  0.0666 -0.1287  0.6108
 5765TIP3    H138786   0.372   2.314   4.548 -0.2659 -0.0792  1.2961
 5765TIP3    H238787   0.429   2.452   4.523  0.4033 -0.8558 -1.8604
 5766TIP3   OH238788   4.306   5.060   3.710 -0.8060 -0.1760 -0.1017
 5766TIP3    H138789   4.244   5.024   3.774 -0.9871  0.5902  0.1755
 5766TIP3    H238790   4.391   5.052   3.753 -1.2796  4.7288  2.5774
 5767TIP3   OH238791   1.081   4.275   1.292 -0.5135 -0.2178  0.5113
 5767TIP3    H138792   1.049   4.366   1.292 -1.2663 -0.4105  2.5955
 5767TIP3    H238793   1.007   4.225   1.328  0.5726 -1.3455  1.2367
 5768TIP3   OH238794   4.555   3.647   3.488 -0.0796 -0.7686 -0.1383
 5768TIP3    H138795   4.607   3.608   3.418  1.4382  1.6179 -0.4668
 5768TIP3    H238796   4.495   3.707   3.443 -0.4587 -0.6579  0.4938
 5769TIP3   OH238797   6.270   4.525   3.676 -0.3405  0.6032  0.0512
 5769TIP3    H138798   6.330   4.561   3.610 -0.1760 -0.8826 -0.6563
 5769TIP3    H238799   6.303   4.559   3.759  1.0605  0.4172 -0.3981
 5770TIP3   OH238800   5.357   2.626  11.077  0.3503  0.7720  0.2821
 5770TIP3    H138801   5.286   2.664  11.129 -0.0162  0.5914 -0.0860
 5770TIP3    H238802   5.429   2.688  11.087 -0.3755  1.7978 -0.6511
 5771TIP3   OH238803   4.736   4.074  12.838 -0.6237  0.4884  0.1748
 5771TIP3    H138804   4.699   4.162  12.844 -0.8929  0.4592 -0.8585
 5771TIP3    H238805   4.805   4.072  12.904 -3.3902  0.0583  3.2957
 5772TIP3   OH238806   3.877   3.469  10.800 -0.2333  0.4237 -0.1337
 5772TIP3    H138807   3.861   3.552  10.757  0.1464  0.2654 -0.5862
 5772TIP3    H238808   3.916   3.414  10.732 -1.2570 -0.3995 -0.0858
 5773TIP3   OH238809   3.979   0.561  16.994  0.3687 -0.1879  0.9905
 5773TIP3    H138810   3.887   0.536  16.986  0.1607  0.5357  1.0501
 5773TIP3    H238811   4.021   0.527  16.915  0.1259 -0.8603  1.1514
 5774TIP3   OH238812   4.058   6.707   2.812 -0.0909  0.0873  0.1381
 5774TIP3    H138813   4.036   6.625   2.857 -0.5463  0.2828  0.2785
 5774TIP3    H238814   4.038   6.690   2.720  2.5841 -0.9435 -0.3526
 5775TIP3   OH238815   0.766   6.693  16.404  0.2716 -0.3138 -0.1214
 5775TIP3    H138816   0.839   6.676  16.463  0.7366 -0.6414 -0.7881
 5775TIP3    H238817   0.780   6.782  16.373 -0.8779  0.5112  1.5233
 5776TIP3   OH238818   1.052   0.397   3.304 -0.0010 -0.1408  0.6155
 5776TIP3    H138819   1.009   0.479   3.278 -1.4993 -1.1352 -0.2292
 5776TIP3    H238820   1.025   0.385   3.395 -0.6852 -0.2152  0.4143
 5777TIP3   OH238821   6.381   5.000  17.149 -0.5290  0.4147  0.1006
 5777TIP3    H138822   6.359   4.907  17.146 -0.0842  0.3009 -3.0782
 5777TIP3    H238823   6.297   5.045  17.160 -0.7050 -0.2800  2.0757
 5778TIP3   OH238824   6.030   1.204   0.427  0.5657 -0.4170 -0.3161
 5778TIP3    H138825   6.079   1.276   0.467 -1.5175 -0.0495  1.8033
 5778TIP3    H238826   6.078   1.125   0.451  0.2156 -0.0676  1.7382
 5779TIP3   OH238827   5.041   3.013   2.635 -0.2596  0.0694 -1.1120
 5779TIP3    H138828   5.101   2.986   2.705  0.4472  1.2534 -1.2328
 5779TIP3    H238829   5.074   2.968   2.557 -0.0933 -0.0315 -0.9845
 5780TIP3   OH238830   6.512   2.336  14.280 -0.0494 -0.2789  0.2871
 5780TIP3    H138831   6.528   2.242  14.278  1.0392 -0.1958  2.2782
 5780TIP3    H238832   6.447   2.351  14.212 -0.4216 -2.4916  0.0833
 5781TIP3   OH238833   1.719   5.314   4.499 -0.4834 -0.1373  0.7726
 5781TIP3    H138834   1.641   5.365   4.518 -0.2718 -0.0793  1.4981
 5781TIP3    H238835   1.787   5.351   4.555 -0.0454 -0.4735  0.4724
 5782TIP3   OH238836   4.084   3.812  11.004 -0.7064  0.0830  0.3102
 5782TIP3    H138837   4.091   3.852  11.090  0.8829 -0.1896  0.3348
 5782TIP3    H238838   4.117   3.879  10.944 -1.0688 -0.0162 -0.0046
 5783TIP3   OH238839   6.639   5.053  16.601  0.5375 -0.0918 -0.6412
 5783TIP3    H138840   6.564   5.090  16.647  1.4065  1.3721 -0.3327
 5783TIP3    H238841   6.608   5.041  16.511  0.0888  1.0507 -0.6576
 5784TIP3   OH238842   5.430   3.467  10.631  0.5477  0.1857 -0.2413
 5784TIP3    H138843   5.417   3.557  10.660  2.8681  1.0583 -1.5793
 5784TIP3    H238844   5.428   3.473  10.535 -1.4611 -1.6215 -0.3751
 5785TIP3   OH238845   1.967   0.276  12.349 -0.5143  0.1533 -0.1743
 5785TIP3    H138846   1.942   0.198  12.300  1.4188 -0.6134 -0.0247
 5785TIP3    H238847   1.926   0.265  12.434  0.0600 -0.9209 -0.0217
 5786TIP3   OH238848   3.966   0.929   5.394 -0.4959 -0.1184  0.3747
 5786TIP3    H138849   3.946   0.858   5.455 -1.6639  0.7342  1.0101
 5786TIP3    H238850   3.888   0.936   5.338  0.5467 -0.8871 -1.2611
 5787TIP3   OH238851   0.521   2.086  11.780 -0.7676 -0.0035 -0.2746
 5787TIP3    H138852   0.508   2.115  11.690 -2.1398 -0.4347 -0.2376
 5787TIP3    H238853   0.493   2.161  11.833 -1.9092 -0.4660 -0.2026
 5788TIP3   OH238854   3.688   0.246   2.710  0.6959 -0.0977 -0.1967
 5788TIP3    H138855   3.667   0.154   2.723  2.0629 -0.5192 -0.7537
 5788TIP3    H238856   3.714   0.252   2.618 -1.5173  1.3129 -0.8245
 5789TIP3   OH238857   3.413   1.891   5.003 -0.7129  0.4466  0.1076
 5789TIP3    H138858   3.496   1.846   4.984 -2.1555 -1.7815 -1.3348
 5789TIP3    H238859   3.438   1.964   5.060  1.8483 -1.9609  2.3911
 5790TIP3   OH238860   0.771   2.496  14.472 -0.2356  0.4980  0.4948
 5790TIP3    H138861   0.838   2.539  14.527 -1.0460  0.9959  1.1131
 5790TIP3    H238862   0.700   2.559  14.468  0.5456  1.3415 -2.8114
 5791TIP3   OH238863   5.931   1.190   4.172  0.0330 -0.4376  0.2294
 5791TIP3    H138864   5.935   1.119   4.236 -0.9015 -0.0100  0.7969
 5791TIP3    H238865   5.993   1.255   4.205  0.0038 -0.4780  0.3668
 5792TIP3   OH238866   4.026   5.619   4.013  0.8301  0.1022 -0.0946
 5792TIP3    H138867   3.999   5.683   4.078  0.0237 -1.8978  1.6384
 5792TIP3    H238868   3.964   5.546   4.023  4.2580 -2.9435  1.2192
 5793TIP3   OH238869   1.625   3.477   6.516  0.3012  0.2125 -0.2793
 5793TIP3    H138870   1.703   3.516   6.478  0.1315  0.8749  0.0317
 5793TIP3    H238871   1.602   3.536   6.588  0.8371 -1.1986  1.0980
 5794TIP3   OH238872   2.833   0.481   5.789  0.2102 -0.6470 -0.4078
 5794TIP3    H138873   2.824   0.564   5.835  0.9410  0.4739 -2.1975
 5794TIP3    H238874   2.902   0.434   5.838  1.8474  1.0158 -0.9915
 5795TIP3   OH238875   3.338   4.916  16.389 -0.2002  0.5605  0.3120
 5795TIP3    H138876   3.401   4.913  16.318  0.6510  2.1409  0.9536
 5795TIP3    H238877   3.388   4.894  16.467 -1.6326 -3.8528  0.2647
 5796TIP3   OH238878   6.052   4.880   0.296  0.0481 -0.0941 -0.3125
 5796TIP3    H138879   6.107   4.822   0.244 -1.7963  0.3695 -2.9209
 5796TIP3    H238880   6.031   4.830   0.375 -0.1667 -2.3193 -1.7318
 5797TIP3   OH238881   6.558   5.592   0.962  0.3985  0.2264  0.1045
 5797TIP3    H138882   6.480   5.579   1.016  0.1592  0.3586 -0.2011
 5797TIP3    H238883   6.526   5.580   0.872  0.6788  0.5148 -0.0347
 5798TIP3   OH238884   2.607   0.965  15.406  0.0563 -0.0405 -0.3523
 5798TIP3    H138885   2.553   1.022  15.462 -0.0973  0.7284 -1.2599
 5798TIP3    H238886   2.632   0.893  15.464 -1.9227 -0.4250  0.1187
 5799TIP3   OH238887   3.680   3.349  11.774 -0.1301 -0.1795  0.4947
 5799TIP3    H138888   3.669   3.294  11.696  1.5023  0.5986 -0.3301
 5799TIP3    H238889   3.760   3.317  11.815  0.8377  1.4881  0.0123
 5800TIP3   OH238890   0.877   1.658  10.968 -0.0986  0.1030 -0.0317
 5800TIP3    H138891   0.804   1.708  10.934 -0.7451 -2.1823 -2.3906
 5800TIP3    H238892   0.936   1.723  11.006 -2.0158  2.2896 -0.5938
 5801TIP3   OH238893   1.632   2.364  14.731  0.0618  0.1949  0.3582
 5801TIP3    H138894   1.565   2.416  14.687 -0.3738  1.5570  2.4497
 5801TIP3    H238895   1.708   2.421  14.737  0.2077 -0.0616  1.0925
 5802TIP3   OH238896   5.939   0.450   3.143  0.4580 -0.0277  0.0126
 5802TIP3    H138897   6.003   0.444   3.072 -0.5377  0.1910 -0.9307
 5802TIP3    H238898   5.855   0.456   3.098 -0.0436  2.4019  1.1539
 5803TIP3   OH238899   2.007   4.924   1.079  0.4677 -0.7638  0.4667
 5803TIP3    H138900   2.082   4.885   1.125  2.4971  0.5352 -1.5200
 5803TIP3    H238901   2.015   4.893   0.989 -2.5266 -2.0481  0.5378
 5804TIP3   OH238902   3.099   6.574   4.207 -0.3083  0.3522 -0.2180
 5804TIP3    H138903   3.112   6.612   4.120  0.4096  0.3253 -0.1227
 5804TIP3    H238904   3.147   6.632   4.266 -0.0552 -0.1335  0.0520
 5805TIP3   OH238905   1.738   0.319  14.874 -0.2433 -0.5092 -0.3933
 5805TIP3    H138906   1.819   0.275  14.901 -1.1228 -2.4018 -0.6513
 5805TIP3    H238907   1.708   0.363  14.953  1.6430  1.3423 -0.5994
 5806TIP3   OH238908   6.180   4.780   0.787  0.3052  0.1119 -0.4301
 5806TIP3    H138909   6.112   4.714   0.773 -1.5824  1.4808  1.7021
 5806TIP3    H238910   6.140   4.863   0.760  0.5618  1.1250  2.0199
 5807TIP3   OH238911   0.066   5.020   1.477  0.1190  0.0089 -0.4511
 5807TIP3    H138912   0.159   5.001   1.467 -0.0048  0.6752 -5.0012
 5807TIP3    H238913   0.064   5.114   1.498  0.4187 -0.3721  1.4421
 5808TIP3   OH238914   3.324   6.075   1.942  0.2879 -0.4208  0.0336
 5808TIP3    H138915   3.240   6.030   1.948 -0.1011  0.2503 -0.1702
 5808TIP3    H238916   3.340   6.082   1.847 -0.6362  1.5816 -0.0251
 5809TIP3   OH238917   0.007   1.307   0.231 -0.1126  0.2976 -0.0714
 5809TIP3    H138918   0.085   1.319   0.178  0.8878 -1.9261  0.7911
 5809TIP3    H238919   0.033   1.337   0.319 -0.3385 -0.1071  0.1363
 5810TIP3   OH238920   5.806   5.263   3.274  0.3058  0.8052 -0.2382
 5810TIP3    H138921   5.809   5.187   3.216  0.3044 -0.6324  1.5288
 5810TIP3    H238922   5.724   5.253   3.323  0.7850  1.3866  0.7175
 5811TIP3   OH238923   5.385   3.470   1.040  0.0754 -0.0829 -0.4938
 5811TIP3    H138924   5.312   3.492   1.097 -0.0100 -0.3027 -0.5156
 5811TIP3    H238925   5.435   3.404   1.089 -0.7415 -1.2851 -1.2113
 5812TIP3   OH238926   4.787   6.192   4.041 -0.4706  0.6026  0.4178
 5812TIP3    H138927   4.720   6.168   3.977  0.5988 -2.6602  0.3328
 5812TIP3    H238928   4.869   6.193   3.992  0.0487  0.6011  1.2631
 5813TIP3   OH238929   2.155   4.555   3.894 -0.1258 -0.3823  0.1732
 5813TIP3    H138930   2.128   4.464   3.910  1.7440 -0.9389  0.3623
 5813TIP3    H238931   2.094   4.607   3.946  0.3145 -1.6821  2.1064
 5814TIP3   OH238932   2.434   1.266  17.185 -0.5920 -0.5758 -0.1054
 5814TIP3    H138933   2.503   1.274  17.119  0.2265 -0.1734  0.7821
 5814TIP3    H238934   2.353   1.282  17.137  0.0560  0.6257 -0.8520
 5815TIP3   OH238935   2.976   1.131   3.832 -0.2668 -0.1892 -0.2360
 5815TIP3    H138936   2.907   1.152   3.894 -0.0645 -0.1130 -0.0362
 5815TIP3    H238937   3.037   1.205   3.837  0.3319 -0.7094  0.3105
 5816TIP3   OH238938   6.721   3.934   0.620  0.0563  0.4758  0.7878
 5816TIP3    H138939   6.753   4.024   0.611 -0.0569  0.6147  1.6741
 5816TIP3    H238940   6.774   3.897   0.691  0.9768 -0.5676 -0.4013
 5817TIP3   OH238941   0.440   1.344  16.303  0.4034  0.6860 -0.4408
 5817TIP3    H138942   0.490   1.414  16.261 -0.4668  1.3133 -0.4595
 5817TIP3    H238943   0.348   1.364  16.284 -0.1262  1.4694  2.4248
 5818TIP3   OH238944   4.372   5.855  16.589 -0.1160  0.2074  0.7457
 5818TIP3    H138945   4.422   5.936  16.596 -0.8114  0.7170  0.0996
 5818TIP3    H238946   4.325   5.863  16.506  0.0055 -0.9792  0.5423
 5819TIP3   OH238947   5.494   2.154  14.382  0.2764  0.0810 -0.0103
 5819TIP3    H138948   5.420   2.197  14.339 -0.7100  0.6348  2.0974
 5819TIP3    H238949   5.526   2.218  14.445  3.0435  0.0993 -1.2959
 5820TIP3   OH238950   5.102   3.352   1.164  0.4982  0.3516  0.4458
 5820TIP3    H138951   5.077   3.419   1.227 -1.3447 -0.2103  0.3721
 5820TIP3    H238952   5.032   3.353   1.099 -0.7036 -2.9762  1.5166
 5821TIP3   OH238953   6.804   3.338  16.376 -0.1201  0.0120  0.6026
 5821TIP3    H138954   6.796   3.336  16.472  0.6755 -0.1082  0.6719
 5821TIP3    H238955   6.894   3.309  16.359 -0.1360  0.3943 -0.1663
 5822TIP3   OH238956   1.903   5.404  11.490  0.1980 -0.3053 -0.5336
 5822TIP3    H138957   1.945   5.489  11.504  2.0484 -0.9803 -1.7283
 5822TIP3    H238958   1.873   5.406  11.400 -0.1613 -0.7621 -0.4297
 5823TIP3   OH238959   3.035   0.642   2.434  0.2691 -0.5790  0.2868
 5823TIP3    H138960   2.959   0.612   2.383  0.7008 -0.4916 -0.4332
 5823TIP3    H238961   3.068   0.563   2.476  1.0271 -1.0291 -1.0970
 5824TIP3   OH238962   1.389   1.965   4.009  0.1682  0.6240  0.0029
 5824TIP3    H138963   1.329   1.980   3.936 -1.1506 -0.3468  0.8172
 5824TIP3    H238964   1.476   1.961   3.970 -0.1192  3.2559 -1.0759
 5825TIP3   OH238965   1.083   1.240   3.847 -0.3047 -0.3928 -0.3246
 5825TIP3    H138966   1.018   1.309   3.834 -1.2866 -1.1169  0.5176
 5825TIP3    H238967   1.067   1.177   3.777  1.2240  0.6456 -1.6794
 5826TIP3   OH238968   2.650   4.083  15.141 -0.3251 -0.3382  0.8483
 5826TIP3    H138969   2.674   4.005  15.091  1.6885 -0.4236  1.8594
 5826TIP3    H238970   2.718   4.146  15.122  0.4228 -0.3007  3.2591
 5827TIP3   OH238971   6.287   0.917   1.595 -0.0542 -0.1567 -0.6329
 5827TIP3    H138972   6.381   0.910   1.577 -0.0830 -3.0714 -0.1510
 5827TIP3    H238973   6.281   0.971   1.673  1.3681 -1.1596  0.2147
 5828TIP3   OH238974   3.600   2.427   3.933 -0.4651  0.1328  0.1967
 5828TIP3    H138975   3.622   2.482   3.858 -2.5949  1.6498  0.6057
 5828TIP3    H238976   3.680   2.427   3.986  0.6163  0.1621 -1.3627
 5829TIP3   OH238977   1.203   5.553  11.490 -0.0717 -0.2188  0.1570
 5829TIP3    H138978   1.160   5.593  11.415  0.0234 -0.4903 -0.0479
 5829TIP3    H238979   1.193   5.616  11.561 -1.0971 -0.4191  0.2104
 5830TIP3   OH238980   0.713   5.390   1.488  0.3986  0.4918  0.3023
 5830TIP3    H138981   0.707   5.412   1.581  1.5913 -0.0829  0.5366
 5830TIP3    H238982   0.807   5.388   1.470  0.2176 -0.6573 -0.6124
 5831TIP3   OH238983   5.959   5.127  15.306 -0.5867 -0.6674 -0.3430
 5831TIP3    H138984   5.901   5.142  15.231 -0.6157 -2.4357 -0.7080
 5831TIP3    H238985   6.047   5.145  15.271 -0.7460  0.2846 -0.2784
 5832TIP3   OH238986   5.821   6.619  17.042  0.6649 -0.8157 -0.1791
 5832TIP3    H138987   5.837   6.617  17.137 -0.0611  2.3291  0.1191
 5832TIP3    H238988   5.895   6.669  17.006 -0.9758  1.4184 -0.6579
 5833TIP3   OH238989   3.658   3.086   3.393  0.3229  0.0202 -0.3557
 5833TIP3    H138990   3.582   3.046   3.349  0.3870 -0.8359  0.2912
 5833TIP3    H238991   3.620   3.147   3.455  0.1400 -0.6125  0.1659
 5834TIP3   OH238992   2.316   2.642   5.414 -0.0601 -0.0076  0.3839
 5834TIP3    H138993   2.363   2.563   5.390 -0.4400  0.1662 -1.0312
 5834TIP3    H238994   2.229   2.631   5.374 -0.7287  0.3175  1.7118
 5835TIP3   OH238995   5.735   3.282   5.894 -0.3054  0.7529 -0.3519
 5835TIP3    H138996   5.645   3.266   5.864 -0.6517  1.7631  0.1147
 5835TIP3    H238997   5.785   3.207   5.862 -1.0960  0.7349 -1.5826
 5836TIP3   OH238998   5.446   2.753  14.875 -0.1327  0.3179  0.4498
 5836TIP3    H138999   5.456   2.755  14.780 -0.0179 -1.5178  0.3955
 5836TIP3    H239000   5.381   2.684  14.891  0.4037  0.0943  1.7436
 5837TIP3   OH239001   1.787   6.054  17.218  0.3805 -0.1316 -0.0046
 5837TIP3    H139002   1.739   6.122  17.172 -1.1938 -1.1976 -0.0342
 5837TIP3    H239003   1.732   5.975  17.208  1.4999 -1.0948  1.0912
 5838TIP3   OH239004   2.374   3.906   4.146  0.3491 -0.4158  0.7564
 5838TIP3    H139005   2.377   3.989   4.195  1.9168  0.5664 -0.9029
 5838TIP3    H239006   2.317   3.925   4.071  0.9474 -0.7284  0.2136
 5839TIP3   OH239007   6.015   5.737   2.012  0.2651 -0.0223  0.1672
 5839TIP3    H139008   5.963   5.748   1.933 -0.7939  0.5783  0.9108
 5839TIP3    H239009   6.016   5.642   2.027  2.5351 -0.3789 -1.8503
 5840TIP3   OH239010   6.423   5.237  13.454 -0.3197 -0.0292 -0.0063
 5840TIP3    H139011   6.372   5.283  13.386 -3.2454 -0.9572  1.3739
 5840TIP3    H239012   6.429   5.300  13.525  2.6691  0.9092 -0.9673
 5841TIP3   OH239013   4.035   4.983  15.256  0.3464  0.7346 -0.4354
 5841TIP3    H139014   3.962   4.962  15.198  0.1179 -0.1408  0.1449
 5841TIP3    H239015   4.110   4.936  15.219  0.3546  0.7232 -0.4050
 5842TIP3   OH239016   5.869   4.241   3.377 -0.1966  0.2432  0.7157
 5842TIP3    H139017   5.909   4.203   3.298 -0.8694  3.0397 -1.1397
 5842TIP3    H239018   5.825   4.167   3.419 -0.5299 -1.2663 -2.0044
 5843TIP3   OH239019   2.585   6.423  11.932  0.0316 -0.1287 -0.0039
 5843TIP3    H139020   2.677   6.447  11.922  0.0188 -0.0486  0.0711
 5843TIP3    H239021   2.584   6.364  12.007  0.1143 -0.6569 -0.4138
 5844TIP3   OH239022   2.123   6.261  13.242  0.3026 -0.6076 -0.6213
 5844TIP3    H139023   2.048   6.265  13.183 -0.1400 -0.4998 -0.0566
 5844TIP3    H239024   2.143   6.168  13.250  0.0750 -0.6539 -0.5854
 5845TIP3   OH239025   3.740   3.264   5.521  1.2893 -0.0319 -0.3145
 5845TIP3    H139026   3.772   3.232   5.437 -0.8747 -1.4394 -0.6782
 5845TIP3    H239027   3.649   3.236   5.525  1.2463  0.1668  2.4130
 5846TIP3   OH239028   0.148   4.735  11.422  0.0174  0.0539  0.4160
 5846TIP3    H139029   0.223   4.710  11.475 -0.3683  2.6499  2.4206
 5846TIP3    H239030   0.089   4.779  11.484 -2.3234 -0.2604 -1.4427
 5847TIP3   OH239031   5.498   4.650  12.241 -0.2958 -0.5244  0.1673
 5847TIP3    H139032   5.483   4.737  12.205  0.9509 -0.3834 -0.0414
 5847TIP3    H239033   5.543   4.602  12.170 -0.7651 -1.2687  0.3576
 5848TIP3   OH239034   2.913   6.591   3.108  0.2711  0.7497  0.9330
 5848TIP3    H139035   2.959   6.509   3.125  1.6171  0.8433 -1.6921
 5848TIP3    H239036   2.834   6.565   3.061  1.2540  0.9072 -0.9329
 5849TIP3   OH239037   4.140   0.609   2.866  0.3499 -0.6827  0.3865
 5849TIP3    H139038   4.119   0.661   2.944  0.9635 -0.4341  0.3953
 5849TIP3    H239039   4.062   0.615   2.811 -0.3204 -1.3483  1.2363
 5850TIP3   OH239040   5.734   4.430   0.691  0.0715 -0.0970 -0.1723
 5850TIP3    H139041   5.817   4.393   0.661 -0.4240 -1.1368 -0.3281
 5850TIP3    H239042   5.712   4.379   0.769 -0.0568  0.6765  0.3025
 5851TIP3   OH239043   4.927   4.483   1.111 -0.7819  0.2523  0.5003
 5851TIP3    H139044   4.963   4.395   1.123  3.1098  1.3571 -1.5959
 5851TIP3    H239045   4.849   4.469   1.058 -1.2335 -1.9863  1.5784
 5852TIP3   OH239046   3.164   2.902   3.150  0.2103  0.0297 -0.2585
 5852TIP3    H139047   3.219   2.893   3.228  0.5860  0.6914 -0.4446
 5852TIP3    H239048   3.151   2.996   3.140 -0.5163 -0.0897 -0.5308
 5853TIP3   OH239049   6.543   3.567  11.504  0.2422  0.5471  0.0831
 5853TIP3    H139050   6.594   3.490  11.528 -0.5839 -0.0800 -0.1211
 5853TIP3    H239051   6.601   3.617  11.447  1.1044  0.5247  0.9156
 5854TIP3   OH239052   1.599   0.732  12.449 -0.1550 -0.7771 -0.1119
 5854TIP3    H139053   1.543   0.768  12.518 -0.9791 -0.5820 -0.8738
 5854TIP3    H239054   1.628   0.648  12.483  0.8673  0.0553  1.2138
 5855TIP3   OH239055   1.123   5.033   4.408  0.2460 -0.0597  0.6551
 5855TIP3    H139056   1.046   5.003   4.458 -0.0536 -3.4993 -1.5590
 5855TIP3    H239057   1.198   4.998   4.457  0.7197  3.7827  3.1433
 5856TIP3   OH239058   1.859   2.402  16.985 -0.1767  0.0927  0.3052
 5856TIP3    H139059   1.929   2.425  16.924  0.2694 -3.1500 -0.5982
 5856TIP3    H239060   1.883   2.447  17.066  0.6768  2.3279 -1.0939
 5857TIP3   OH239061   2.945   6.520  10.736 -0.3958  0.2164  0.3079
 5857TIP3    H139062   2.999   6.512  10.815  0.8408 -0.8922 -0.6042
 5857TIP3    H239063   2.892   6.440  10.735  0.5484 -0.4162 -0.6454
 5858TIP3   OH239064   4.428   2.165  10.433  0.1926  0.0175 -0.0271
 5858TIP3    H139065   4.425   2.218  10.512 -0.2314  2.8369 -1.7933
 5858TIP3    H239066   4.508   2.193  10.388  0.6850 -1.8780 -0.3985
 5859TIP3   OH239067   4.350   4.451   4.432 -0.1364 -0.4285  0.2202
 5859TIP3    H139068   4.423   4.399   4.397 -0.7478 -0.8237 -0.5066
 5859TIP3    H239069   4.385   4.540   4.437 -0.0643 -0.2977 -1.6471
 5860TIP3   OH239070   3.220   0.643  14.951 -0.3771 -0.0143 -0.0591
 5860TIP3    H139071   3.167   0.709  14.906  0.4033  1.2518  0.8328
 5860TIP3    H239072   3.231   0.676  15.039  0.9050 -0.8397  0.1267
 5861TIP3   OH239073   3.841   3.675   1.743  0.0292 -0.3675 -0.3564
 5861TIP3    H139074   3.871   3.670   1.834 -0.6595 -0.3055 -0.1254
 5861TIP3    H239075   3.840   3.768   1.723  0.1219 -0.3778 -0.4099
 5862TIP3   OH239076   4.365   0.478   4.620 -0.3500  0.4286 -0.1328
 5862TIP3    H139077   4.410   0.492   4.703 -2.2796  1.0489  0.8681
 5862TIP3    H239078   4.289   0.424   4.642 -0.5199  0.0080 -1.6156
 5863TIP3   OH239079   5.412   6.659  14.924 -0.1549  0.4416 -0.0259
 5863TIP3    H139080   5.426   6.611  15.006 -0.7166  0.5842  0.1524
 5863TIP3    H239081   5.381   6.593  14.863  1.8995 -0.0459 -0.6450
 5864TIP3   OH239082   6.276   0.136   2.644 -0.2008  0.1322 -0.2122
 5864TIP3    H139083   6.193   0.089   2.650  1.0695 -2.1646  0.3567
 5864TIP3    H239084   6.295   0.163   2.734 -1.1519  2.2933 -0.5968
 5865TIP3   OH239085   5.559   1.855   0.035  0.1441 -0.0207  0.2168
 5865TIP3    H139086   5.639   1.904   0.052  0.8344 -0.6036 -1.1995
 5865TIP3    H239087   5.579   1.765   0.062  0.7689 -0.6459 -2.0953
 5866TIP3   OH239088   6.121   2.638   0.485 -0.7002  0.4279  0.8786
 5866TIP3    H139089   6.153   2.548   0.482 -1.1226  0.2868 -0.4225
 5866TIP3    H239090   6.027   2.629   0.504 -1.7078  0.2099 -3.1722
 5867TIP3   OH239091   0.806   1.924   4.178 -0.3515  0.5363  0.1194
 5867TIP3    H139092   0.717   1.958   4.164 -0.6789  0.2545  1.3305
 5867TIP3    H239093   0.850   1.993   4.228 -0.2143  0.2609  0.3837
 5868TIP3   OH239094   5.816   2.809  12.413  0.7611  0.1154 -0.1667
 5868TIP3    H139095   5.892   2.852  12.453  1.6898 -1.3715 -0.2588
 5868TIP3    H239096   5.741   2.855  12.449  1.6783  1.0709  0.5965
 5869TIP3   OH239097   0.160   2.709  12.556  0.3216 -0.2442 -0.3646
 5869TIP3    H139098   0.240   2.696  12.608 -0.8632  0.0171  1.6240
 5869TIP3    H239099   0.109   2.630  12.571  0.3902 -0.6492 -2.0670
 5870TIP3   OH239100   1.075   2.874   3.554  0.1048 -0.0634  0.2228
 5870TIP3    H139101   1.003   2.840   3.607  1.3889 -1.6426  1.0246
 5870TIP3    H239102   1.148   2.884   3.615  1.1946 -0.4961 -0.9545
 5871TIP3   OH239103   3.358   1.231  13.394  0.3573 -0.8806 -0.7135
 5871TIP3    H139104   3.276   1.275  13.416 -0.6145 -2.5417 -0.8624
 5871TIP3    H239105   3.416   1.302  13.365 -0.1601  0.6660  1.7249
 5872TIP3   OH239106   3.338   0.013   3.036  0.2160 -0.0487 -0.1274
 5872TIP3    H139107   3.300   0.084   2.983 -0.8663 -0.2170  0.4037
 5872TIP3    H239108   3.429   0.008   3.006 -0.4755 -0.4994 -2.3781
 5873TIP3   OH239109   0.847   4.950  14.060 -0.3873  0.0018  0.3347
 5873TIP3    H139110   0.754   4.972  14.065 -0.1063  1.0471  1.9880
 5873TIP3    H239111   0.891   5.024  14.102  1.1806 -0.6063 -0.1625
 5874TIP3   OH239112   1.507   1.692   5.425 -0.1247 -0.1651  0.2858
 5874TIP3    H139113   1.595   1.727   5.440 -0.4274  0.2104  1.2357
 5874TIP3    H239114   1.482   1.651   5.507 -1.3022  0.7809  0.4348
 5875TIP3   OH239115   6.367   3.343  16.029 -0.4172  0.4318 -0.1764
 5875TIP3    H139116   6.383   3.352  16.123 -0.3399 -1.6549  0.0637
 5875TIP3    H239117   6.303   3.272  16.022 -1.1878  1.2131 -1.6742
 5876TIP3   OH239118   6.246   5.126   1.778 -0.0070 -0.2577 -0.3824
 5876TIP3    H139119   6.263   5.216   1.751 -0.8802 -0.4038 -1.4756
 5876TIP3    H239120   6.197   5.134   1.860 -0.9841  0.3022 -1.0060
 5877TIP3   OH239121   2.679   3.151  13.505  0.4510  0.0422 -0.0262
 5877TIP3    H139122   2.770   3.175  13.490  0.6348  0.8543  1.9922
 5877TIP3    H239123   2.683   3.076  13.564 -0.1982 -0.8615 -1.1019
 5878TIP3   OH239124   2.913   4.057  13.332 -0.5609  0.0612 -0.0320
 5878TIP3    H139125   2.979   4.059  13.402 -0.1261  1.9236 -0.4207
 5878TIP3    H239126   2.889   3.965  13.324  2.4915 -0.8291 -0.3548
 5879TIP3   OH239127   4.443   5.744   2.215  0.1883 -0.3221  0.0852
 5879TIP3    H139128   4.476   5.698   2.138  1.1310  0.6144 -0.0903
 5879TIP3    H239129   4.465   5.688   2.288  0.7708 -0.4444 -0.1813
 5880TIP3   OH239130   4.102   1.337  13.017 -0.8651  0.1806  0.4773
 5880TIP3    H139131   4.162   1.279  12.970 -2.7179 -0.2758 -1.4588
 5880TIP3    H239132   4.138   1.424  13.003 -1.8905  0.2156 -2.9117
 5881TIP3   OH239133   1.814   5.092   6.232 -0.1533 -0.1325  0.1011
 5881TIP3    H139134   1.751   5.121   6.167 -0.3762 -0.3023  0.2394
 5881TIP3    H239135   1.765   5.091   6.314  0.0206 -0.2904  0.2042
 5882TIP3   OH239136   2.563   3.021   0.031 -0.2500  0.3081 -0.0603
 5882TIP3    H139137   2.590   3.054  -0.055  1.6121 -0.8589  0.0184
 5882TIP3    H239138   2.615   3.072   0.093 -1.8907  1.4371  0.4442
 5883TIP3   OH239139   1.388   4.290  16.690 -0.3189  0.1433  0.8214
 5883TIP3    H139140   1.299   4.322  16.678  0.1098  1.3771  0.8485
 5883TIP3    H239141   1.418   4.265  16.602 -0.4011  0.5008  0.6931
 5884TIP3   OH239142   0.245   2.850   2.592 -0.6100  0.4472  0.3828
 5884TIP3    H139143   0.155   2.828   2.618  0.1158 -1.2260  1.7802
 5884TIP3    H239144   0.248   2.834   2.498 -2.1045  1.8596  0.0605
 5885TIP3   OH239145   4.630   3.405  17.272  0.1776  0.4942 -0.4311
 5885TIP3    H139146   4.584   3.358  17.202 -0.5628 -2.4454  1.7954
 5885TIP3    H239147   4.722   3.404  17.246  0.1987 -2.3539 -0.5733
 5886TIP3   OH239148   6.481   1.229   5.403 -0.1447 -0.0645 -0.0748
 5886TIP3    H139149   6.392   1.222   5.435 -0.6657 -0.6784 -1.5748
 5886TIP3    H239150   6.521   1.144   5.422 -0.5431 -0.5330 -1.2333
 5887TIP3   OH239151   5.815   0.028  13.924  0.4130 -0.3124 -0.3318
 5887TIP3    H139152   5.793  -0.043  13.985 -1.2259  1.0552  0.7963
 5887TIP3    H239153   5.892  -0.003  13.877 -0.6978 -3.1784 -0.4976
 5888TIP3   OH239154   6.519   4.490  12.339  0.2003  0.1850  0.1808
 5888TIP3    H139155   6.512   4.398  12.313 -0.0361  0.5964 -1.3169
 5888TIP3    H239156   6.569   4.531  12.268 -0.9406  1.4875  0.0921
 5889TIP3   OH239157   2.783   2.124  15.519  0.1475 -0.1001  0.0507
 5889TIP3    H139158   2.745   2.211  15.516  1.1845  0.3976  0.5621
 5889TIP3    H239159   2.778   2.091  15.429  2.4500  1.7164 -0.8293
 5890TIP3   OH239160   5.831   1.461   2.442  0.0488  0.0752  0.0191
 5890TIP3    H139161   5.847   1.368   2.460  0.6877 -0.0147 -0.9754
 5890TIP3    H239162   5.823   1.466   2.347 -0.2306  1.0128  0.0816
 5891TIP3   OH239163   0.325   4.487  10.921 -0.6642  0.2829 -0.2053
 5891TIP3    H139164   0.397   4.509  10.862 -0.0129 -0.6573  0.2041
 5891TIP3    H239165   0.283   4.412  10.881 -0.7249  0.1451  0.1115
 5892TIP3   OH239166   2.969   2.833  13.246 -0.2545  0.3443 -0.2783
 5892TIP3    H139167   3.023   2.911  13.258 -1.1951  1.1997 -1.4239
 5892TIP3    H239168   3.030   2.766  13.215  0.1798  1.3041 -1.5861
 5893TIP3   OH239169   6.479   5.503  12.419  0.7690 -0.4232  0.5823
 5893TIP3    H139170   6.500   5.594  12.441  0.4522  0.1607 -1.3594
 5893TIP3    H239171   6.562   5.466  12.390  0.8961 -0.7807  1.3686
 5894TIP3   OH239172   0.587   0.275   1.578  0.1722 -0.5278 -0.0343
 5894TIP3    H139173   0.509   0.318   1.615 -0.7669 -2.6007  0.5567
 5894TIP3    H239174   0.659   0.335   1.597 -1.2225  1.3365 -0.3599
 5895TIP3   OH239175   6.694   3.501   3.920 -0.7634  0.1245  0.2818
 5895TIP3    H139176   6.599   3.512   3.916 -1.2496 -3.2865 -0.5672
 5895TIP3    H239177   6.717   3.462   3.836  1.5198  1.3179  0.2826
 5896TIP3   OH239178   2.552   6.068   5.516 -0.7133  0.3750  0.1525
 5896TIP3    H139179   2.625   6.009   5.534  0.1937  1.6253  0.7416
 5896TIP3    H239180   2.539   6.062   5.421  1.3929  1.4694 -0.2730
 5897TIP3   OH239181   6.785   4.514  11.542  0.0598  0.5789  0.7498
 5897TIP3    H139182   6.812   4.596  11.582  1.8775  1.2862 -1.6719
 5897TIP3    H239183   6.769   4.536  11.450  1.4067 -1.8746 -0.1734
 5898TIP3   OH239184   4.108   6.277   2.331 -0.1222  0.3328  0.0025
 5898TIP3    H139185   4.128   6.227   2.252 -0.8614 -2.5456  1.5080
 5898TIP3    H239186   4.184   6.265   2.388 -0.2163  1.1519  0.3243
 5899TIP3   OH239187   1.576   3.269  13.703  0.1238 -0.2516 -0.2798
 5899TIP3    H139188   1.642   3.264  13.634  1.2247  0.0873  0.7086
 5899TIP3    H239189   1.585   3.186  13.751  0.6233  0.2724  0.5464
 5900TIP3   OH239190   5.831   4.818   1.752 -0.0835 -0.6513 -0.0263
 5900TIP3    H139191   5.814   4.852   1.840 -1.1975  1.6446 -1.0399
 5900TIP3    H239192   5.750   4.833   1.705  1.7332  2.2893 -2.6178
 5901TIP3   OH239193   0.494   3.101  16.353  0.8899  0.4139  0.9272
 5901TIP3    H139194   0.585   3.077  16.369  1.5286  1.5424 -0.7021
 5901TIP3    H239195   0.451   3.019  16.330  1.5956 -0.0624  1.2894
 5902TIP3   OH239196   4.714   5.128  15.380  0.1201  0.2487 -0.4447
 5902TIP3    H139197   4.644   5.147  15.318  1.8687  1.8817 -2.0350
 5902TIP3    H239198   4.764   5.209  15.387  1.6828 -0.7480  0.9023
 5903TIP3   OH239199   6.040   5.252  14.872  0.4048  0.1525 -0.4782
 5903TIP3    H139200   6.098   5.328  14.883  0.9385 -0.2880 -0.1697
 5903TIP3    H239201   6.100   5.178  14.866 -0.1424 -0.3826  0.4320
 5904TIP3   OH239202   2.843   6.558   0.081 -0.0767  0.5152  0.0456
 5904TIP3    H139203   2.758   6.582   0.043  0.3990 -0.3156 -1.6625
 5904TIP3    H239204   2.907   6.595   0.020  0.7900  0.6478  1.0155
 5905TIP3   OH239205   6.581   6.362  14.410  0.3028 -0.2215 -0.0209
 5905TIP3    H139206   6.562   6.391  14.320 -0.3978  1.4032  0.6101
 5905TIP3    H239207   6.494   6.351  14.450  0.5086 -3.1134 -0.1181
 5906TIP3   OH239208   0.210   0.853  11.319  0.6033 -0.3500  0.4701
 5906TIP3    H139209   0.137   0.915  11.325  0.6492 -0.3439  1.0013
 5906TIP3    H239210   0.278   0.891  11.375  0.5287 -1.0222  1.0270
 5907TIP3   OH239211   5.213   5.453  16.618  0.0226  0.7820 -0.0606
 5907TIP3    H139212   5.236   5.537  16.658  0.1661  0.3424  0.7959
 5907TIP3    H239213   5.134   5.425  16.665  0.5725 -0.0555  0.3748
 5908TIP3   OH239214   0.455   4.027   4.406  0.7156  0.7346 -0.3411
 5908TIP3    H139215   0.448   4.041   4.501  1.1911 -1.8976  0.1390
 5908TIP3    H239216   0.371   3.988   4.382  1.0051  0.4106 -0.8153
 5909TIP3   OH239217   4.898   3.969  11.812  0.0839 -0.1693  0.3072
 5909TIP3    H139218   4.903   4.031  11.885  0.0470  0.9471 -0.6012
 5909TIP3    H239219   4.815   3.988  11.769 -1.0050 -2.3928  1.2959
 5910TIP3   OH239220   3.975   3.753  10.748  0.3435 -0.1160  0.2827
 5910TIP3    H139221   3.910   3.782  10.812  1.1844  1.1718  0.6065
 5910TIP3    H239222   4.056   3.797  10.775  0.7372  0.4595 -1.6497
 5911TIP3   OH239223   6.524   2.966  15.681  0.0653  0.6165  0.1858
 5911TIP3    H139224   6.477   2.916  15.748  0.1046  1.2306  0.6800
 5911TIP3    H239225   6.592   3.013  15.729  0.8291  0.1709 -0.4500
 5912TIP3   OH239226   5.293   4.642  13.962  0.2969  0.4145  0.0937
 5912TIP3    H139227   5.277   4.611  14.051  2.0515 -0.9001  0.0072
 5912TIP3    H239228   5.234   4.717  13.951 -0.8364 -0.1554  1.9123
 5913TIP3   OH239229   3.510   5.721  14.377  0.5316 -0.1932 -0.5193
 5913TIP3    H139230   3.482   5.786  14.312 -0.1726 -2.5252 -2.7021
 5913TIP3    H239231   3.459   5.742  14.455 -1.2860  0.5663 -1.8460
 5914TIP3   OH239232   0.177   1.665   1.551  0.1227 -0.7728 -0.0966
 5914TIP3    H139233   0.133   1.731   1.605  1.7404  0.9284 -0.7387
 5914TIP3    H239234   0.182   1.588   1.608 -0.4133  0.1565  1.2763
 5915TIP3   OH239235   5.571   6.047   4.040 -0.3168 -0.1346 -0.1390
 5915TIP3    H139236   5.649   6.046   4.095  2.1701  0.6102 -3.3440
 5915TIP3    H239237   5.533   6.133   4.054  0.6908  0.3175 -0.1121
 5916TIP3   OH239238   1.621   4.920  12.171  0.0982 -0.2286  0.4116
 5916TIP3    H139239   1.551   4.927  12.105 -0.4251 -0.0928  0.9703
 5916TIP3    H239240   1.582   4.956  12.251  0.1253 -1.9423  1.2515
 5917TIP3   OH239241   3.004   2.977  16.799 -0.4982  0.5391  0.0204
 5917TIP3    H139242   2.939   2.906  16.806  0.2288 -0.0433  1.2125
 5917TIP3    H239243   3.006   2.998  16.705 -0.6792 -1.0787 -0.3829
 5918TIP3   OH239244   0.123   2.561   1.516 -0.0354 -0.3447 -0.5412
 5918TIP3    H139245   0.120   2.657   1.524 -1.4653 -0.4764  0.8372
 5918TIP3    H239246   0.189   2.534   1.580  1.0358 -0.2591 -1.5657
 5919TIP3   OH239247   5.410   5.097   3.722  0.5062 -0.2122  0.1248
 5919TIP3    H139248   5.375   5.037   3.788 -0.5315  0.2176 -0.0177
 5919TIP3    H239249   5.456   5.163   3.773  0.2383 -0.2227  0.3833
 5920TIP3   OH239250   5.303   4.992   3.945 -0.4780  0.1541  0.0879
 5920TIP3    H139251   5.324   5.055   4.014 -1.7064  2.4314 -1.5145
 5920TIP3    H239252   5.212   4.967   3.963 -0.1618 -0.8335  0.4102
 5921TIP3   OH239253   0.475   4.084   0.004 -0.3197  0.7622 -0.0367
 5921TIP3    H139254   0.557   4.070  -0.044 -1.4033 -0.5012 -1.6074
 5921TIP3    H239255   0.456   4.177  -0.007  1.9225  1.6149  2.1497
 5922TIP3   OH239256   2.074   1.550   0.839  0.1152 -0.0955 -0.1146
 5922TIP3    H139257   1.988   1.580   0.865 -0.6437 -1.7801 -0.5239
 5922TIP3    H239258   2.134   1.618   0.870 -1.1472  0.1584  1.9442
 5923TIP3   OH239259   5.718   3.813   1.070 -0.3498  0.0076  0.0912
 5923TIP3    H139260   5.808   3.845   1.061  0.5172 -1.8220  1.3569
 5923TIP3    H239261   5.675   3.877   1.127  0.4856  0.3706  0.3294
 5924TIP3   OH239262   5.639   0.048  11.435  0.0325  0.0859 -0.3139
 5924TIP3    H139263   5.615  -0.037  11.397 -2.0394  0.9766 -1.1590
 5924TIP3    H239264   5.557   0.095  11.441  1.0891  1.9183  0.5076
 5925TIP3   OH239265   3.819   2.717   2.323  0.0103  0.1991 -0.4634
 5925TIP3    H139266   3.894   2.680   2.276 -1.1109 -1.2030 -1.2324
 5925TIP3    H239267   3.798   2.797   2.276  1.4603  1.0158  0.2169
 5926TIP3   OH239268   0.298   5.383   0.508  0.5526  0.0085  0.4233
 5926TIP3    H139269   0.332   5.295   0.525 -0.6868 -0.9021 -1.5111
 5926TIP3    H239270   0.343   5.410   0.428 -0.6878  0.2019 -0.2220
 5927TIP3   OH239271   1.484   1.544  14.584  0.4636 -0.7044  0.5510
 5927TIP3    H139272   1.455   1.470  14.530  0.4442  1.1819 -2.2282
 5927TIP3    H239273   1.428   1.540  14.662 -1.8102 -1.7744 -1.0096
 5928TIP3   OH239274   2.061   1.667   3.406  0.1144  0.1649 -0.0442
 5928TIP3    H139275   2.045   1.613   3.484 -0.5023  0.5147  0.0829
 5928TIP3    H239276   2.051   1.607   3.333  0.4495 -0.1139  0.1380
 5929TIP3   OH239277   5.752   3.515  13.636 -0.7236 -0.3565 -0.6226
 5929TIP3    H139278   5.734   3.605  13.662  0.5982 -0.2856  0.1596
 5929TIP3    H239279   5.709   3.462  13.704 -0.9539 -0.3021 -0.7241
 5930TIP3   OH239280   4.598   1.918   4.690 -0.2114  0.0563  0.3787
 5930TIP3    H139281   4.668   1.982   4.681 -1.0426  0.7378 -1.8206
 5930TIP3    H239282   4.520   1.962   4.655 -1.6201 -0.9313  2.0730
 5931TIP3   OH239283   2.135   3.255   0.143  0.0327 -0.2136  0.6660
 5931TIP3    H139284   2.161   3.310   0.217 -1.4239  0.4554  0.7122
 5931TIP3    H239285   2.075   3.310   0.093  2.3007  0.0403 -2.0398
 5932TIP3   OH239286   3.936   1.602  14.347  0.1261  0.4935  0.3942
 5932TIP3    H139287   3.893   1.672  14.397 -0.5456 -0.0781  0.6337
 5932TIP3    H239288   3.928   1.631  14.256 -0.5699  0.5224  0.4530
 5933TIP3   OH239289   3.586   2.020  11.553  0.0577 -0.1943 -0.4995
 5933TIP3    H139290   3.595   2.110  11.523 -1.6730  0.2560  0.1958
 5933TIP3    H239291   3.534   1.977  11.486  0.6343 -0.6066 -0.6865
 5934TIP3   OH239292   0.645   6.209   4.353 -0.7753 -0.3505 -0.2684
 5934TIP3    H139293   0.647   6.273   4.281 -0.9100  0.9583  0.8525
 5934TIP3    H239294   0.554   6.180   4.356 -1.2952  1.2705  0.7639
 5935TIP3   OH239295   6.406   6.222  13.837  0.4940 -0.2210  0.0237
 5935TIP3    H139296   6.419   6.180  13.752 -3.0062  1.8533 -1.7558
 5935TIP3    H239297   6.339   6.168  13.880  0.9381 -0.2346  0.7134
 5936TIP3   OH239298   6.177   2.445   6.085 -0.1345  0.2768  0.4798
 5936TIP3    H139299   6.102   2.490   6.045 -0.1042  0.5919  0.7835
 5936TIP3    H239300   6.189   2.487   6.170 -0.4618 -0.6742  1.0101
 5937TIP3   OH239301   0.637   2.020  13.743 -0.4109 -0.5313  0.3889
 5937TIP3    H139302   0.626   2.089  13.808  0.1911 -0.8008  0.7818
 5937TIP3    H239303   0.695   1.956  13.785 -1.1838 -1.4225  0.1546
 5938TIP3   OH239304   1.362   3.269  17.264 -0.1865 -0.0824 -0.2672
 5938TIP3    H139305   1.396   3.339  17.208  1.3825 -0.2169  0.4949
 5938TIP3    H239306   1.330   3.314  17.342 -1.3433 -0.0121 -0.7559
 5939TIP3   OH239307   2.833   5.867   2.699  0.0380  0.3861  0.6287
 5939TIP3    H139308   2.810   5.960   2.706 -1.7542  0.0258  0.1943
 5939TIP3    H239309   2.885   5.861   2.619 -1.9239  0.7213 -0.7658
 5940TIP3   OH239310   5.516   4.675   2.171  0.2211 -0.6908 -0.0656
 5940TIP3    H139311   5.425   4.662   2.197 -0.6986  2.7669 -1.0377
 5940TIP3    H239312   5.513   4.683   2.076  1.4542  0.1214 -0.0575
 5941TIP3   OH239313   3.504   1.542   1.635 -0.5814  1.0129  0.1173
 5941TIP3    H139314   3.497   1.535   1.540  2.5468 -0.5235 -0.1343
 5941TIP3    H239315   3.426   1.498   1.669  0.0442 -1.8181 -1.7969
 5942TIP3   OH239316   2.250   3.615  12.646 -0.1740 -0.0728 -0.1612
 5942TIP3    H139317   2.173   3.564  12.622  1.0872 -1.9591 -0.3833
 5942TIP3    H239318   2.310   3.552  12.683  0.5638  1.6739  1.8154
 5943TIP3   OH239319   5.283   2.233   0.140  0.2087 -0.0082 -0.2836
 5943TIP3    H139320   5.228   2.309   0.119 -0.2641 -0.2124  0.1893
 5943TIP3    H239321   5.333   2.217   0.060 -1.0448 -0.3377 -1.0258
 5944TIP3   OH239322   2.953   4.380  13.598  0.0030 -1.3619  0.1549
 5944TIP3    H139323   2.996   4.447  13.651 -0.6322 -0.6881 -0.1782
 5944TIP3    H239324   2.949   4.417  13.510  0.4372 -2.1970 -0.2297
 5945TIP3   OH239325   2.038   0.298  13.673  0.0517  0.1957 -0.5913
 5945TIP3    H139326   1.959   0.245  13.675  0.5322 -0.6358  2.5593
 5945TIP3    H239327   2.107   0.238  13.648  0.0255  0.3263 -0.9765
 5946TIP3   OH239328   3.454   0.408   6.318 -1.2563 -0.5316  0.0938
 5946TIP3    H139329   3.544   0.440   6.314 -1.4924  0.0924 -0.4074
 5946TIP3    H239330   3.458   0.333   6.378 -0.7605  0.7055  1.6830
 5947TIP3   OH239331   4.658   6.631  15.434  0.8080  0.1732 -0.0023
 5947TIP3    H139332   4.570   6.633  15.398  0.1177 -0.9095  1.5039
 5947TIP3    H239333   4.699   6.555  15.392  0.3934 -0.3963  0.5911
 5948TIP3   OH239334   3.920   3.902   5.583 -0.3428  0.3538 -0.1019
 5948TIP3    H139335   3.991   3.932   5.639 -1.4065  2.0242  0.4200
 5948TIP3    H239336   3.945   3.929   5.494  0.5726 -0.8316 -0.2223
 5949TIP3   OH239337   3.555   0.782  16.606 -0.3790  0.0175  0.2329
 5949TIP3    H139338   3.539   0.694  16.572  2.1807 -1.5770  2.7546
 5949TIP3    H239339   3.480   0.799  16.664 -2.6537  1.1042 -2.7169
 5950TIP3   OH239340   2.816   4.180  14.484  0.4328 -0.2757 -0.9442
 5950TIP3    H139341   2.753   4.150  14.418  0.1183 -1.5313 -0.1080
 5950TIP3    H239342   2.773   4.163  14.568  0.4721  2.1091 -0.3816
 5951TIP3   OH239343   4.110   1.628  13.417  0.4912 -0.2187 -0.4381
 5951TIP3    H139344   4.105   1.692  13.346  0.7910 -0.6985 -0.9010
 5951TIP3    H239345   4.041   1.564  13.397  0.2706 -0.1085 -0.0425
 5952TIP3   OH239346   2.683   2.486  13.547 -0.5733  0.0399  0.0913
 5952TIP3    H139347   2.622   2.559  13.536 -0.1397  0.5643  1.0207
 5952TIP3    H239348   2.662   2.426  13.475 -0.1816  1.6056 -1.4096
 5953TIP3   OH239349   5.150   3.377   6.169 -0.1071 -0.3694  0.4512
 5953TIP3    H139350   5.162   3.463   6.211  0.9128 -0.4806  0.4216
 5953TIP3    H239351   5.102   3.325   6.233  2.4627 -0.9286  2.0653
 5954TIP3   OH239352   3.427   6.159   4.849 -0.2256  0.3851  0.7317
 5954TIP3    H139353   3.515   6.196   4.843  0.6192 -1.4683  0.7535
 5954TIP3    H239354   3.377   6.205   4.781  1.6940 -0.8326 -1.6905
 5955TIP3   OH239355   6.167   3.870   4.552  0.1812 -0.0354 -0.6739
 5955TIP3    H139356   6.170   3.933   4.623  1.4794  0.1060 -0.8267
 5955TIP3    H239357   6.166   3.923   4.472  0.1071 -0.1949 -0.7796
 5956TIP3   OH239358   5.389   5.404   3.776 -0.7670  0.4282  0.0522
 5956TIP3    H139359   5.436   5.428   3.696 -0.2552 -0.2706  0.1382
 5956TIP3    H239360   5.454   5.411   3.845 -1.5519  2.4634  0.6758
 5957TIP3   OH239361   0.840   2.365  17.209  0.2214  0.0557  0.3832
 5957TIP3    H139362   0.910   2.305  17.184  0.3883 -0.9094  2.9441
 5957TIP3    H239363   0.878   2.452  17.199  1.2360 -0.3978  0.2040
 5958TIP3   OH239364   6.323   0.502  13.403 -0.0851 -0.1138 -0.1233
 5958TIP3    H139365   6.391   0.538  13.459  0.1509 -1.7116  0.6699
 5958TIP3    H239366   6.267   0.453  13.462 -0.1600 -1.3755 -1.2001
 5959TIP3   OH239367   3.076   6.183   6.350 -0.1002  0.5550  0.0963
 5959TIP3    H139368   3.069   6.088   6.347  0.6950  0.3892  2.0309
 5959TIP3    H239369   2.991   6.213   6.382  0.1876  0.3325  1.1172
 5960TIP3   OH239370   2.372   3.437   3.788  0.1539 -0.0708 -0.2635
 5960TIP3    H139371   2.283   3.431   3.823 -0.1392  1.3242 -0.6905
 5960TIP3    H239372   2.367   3.392   3.703  0.6342 -2.6273  0.9838
 5961TIP3   OH239373   6.762   5.734  15.891  0.3153  0.0755 -0.3222
 5961TIP3    H139374   6.741   5.815  15.938  1.1104 -0.0272  0.2321
 5961TIP3    H239375   6.787   5.762  15.803  0.9877  0.4745 -0.0102
 5962TIP3   OH239376   4.062   3.573  12.009 -0.2711 -0.7041  0.6302
 5962TIP3    H139377   4.129   3.636  11.983 -0.6033 -0.8676 -0.7328
 5962TIP3    H239378   4.081   3.495  11.957  0.0175 -1.6919  2.1404
 5963TIP3   OH239379   0.161   2.777  16.804  0.2696 -0.1509  0.2121
 5963TIP3    H139380   0.230   2.821  16.853  0.0649 -0.2700  0.6130
 5963TIP3    H239381   0.170   2.685  16.826  1.0848 -0.4107 -1.1079
 5964TIP3   OH239382   0.722   0.715   4.103  0.2007 -0.5389 -0.0623
 5964TIP3    H139383   0.645   0.748   4.057  0.2790  0.8771  0.7629
 5964TIP3    H239384   0.716   0.620   4.096  0.1053 -0.4024 -2.7929
 5965TIP3   OH239385   1.389   6.746   1.486 -0.3190  0.5939 -0.1968
 5965TIP3    H139386   1.462   6.749   1.548 -0.4280  0.6369 -0.0696
 5965TIP3    H239387   1.334   6.674   1.516 -0.6485  0.9493  0.0708
 5966TIP3   OH239388   3.024   0.724   6.211  0.7682  0.9016  0.5573
 5966TIP3    H139389   2.929   0.718   6.218  0.8693 -3.2009  1.1929
 5966TIP3    H239390   3.054   0.632   6.211  4.6651  1.9581 -0.7428
 5967TIP3   OH239391   4.138   2.891   3.379  0.1816 -0.4157  0.0957
 5967TIP3    H139392   4.155   2.889   3.285  0.0794 -0.3496  0.0755
 5967TIP3    H239393   4.187   2.817   3.414 -0.8875 -1.2994 -0.1934
 5968TIP3   OH239394   0.894   4.354   3.689 -0.6113  0.5319 -0.2656
 5968TIP3    H139395   0.946   4.277   3.664 -2.6487 -0.5716 -1.3324
 5968TIP3    H239396   0.908   4.417   3.618 -0.9749  0.1078 -0.7194
 5969TIP3   OH239397   4.445   6.450   0.800  0.2237 -0.1996  0.0804
 5969TIP3    H139398   4.522   6.506   0.789 -1.0714  1.3467 -1.8659
 5969TIP3    H239399   4.375   6.510   0.827 -0.9977 -1.0140 -1.1507
 5970TIP3   OH239400   2.574   5.489   1.655 -0.1538 -0.5215 -0.1134
 5970TIP3    H139401   2.504   5.553   1.642  0.0681 -0.2473  0.0359
 5970TIP3    H239402   2.655   5.536   1.634  0.1063 -0.4054  1.0679
 5971TIP3   OH239403   0.721   0.735  16.042 -0.4940  0.7015 -0.1874
 5971TIP3    H139404   0.732   0.789  16.121 -1.6804 -0.7235  1.0297
 5971TIP3    H239405   0.629   0.710  16.044  0.0307 -1.4160 -0.6392
 5972TIP3   OH239406   1.046   3.384  10.976  0.0955 -0.1154  0.1275
 5972TIP3    H139407   1.137   3.359  10.964  0.0828 -0.4476  0.6912
 5972TIP3    H239408   1.039   3.470  10.934  0.8663  0.2827  0.7758
 5973TIP3   OH239409   1.651   5.259   6.054  0.4584 -0.0067 -0.1341
 5973TIP3    H139410   1.599   5.288   5.980  0.5718 -0.5649 -0.4431
 5973TIP3    H239411   1.588   5.217   6.113  0.3543  0.5206  0.1280
 5974TIP3   OH239412   3.103   6.394  14.248  0.0171 -0.3856 -0.4193
 5974TIP3    H139413   3.030   6.343  14.215 -0.0288 -1.3624  1.0796
 5974TIP3    H239414   3.065   6.448  14.318  0.4499  0.2353 -0.6538
 5975TIP3   OH239415   0.968   0.792  14.505 -0.2609 -0.1672  0.3943
 5975TIP3    H139416   0.928   0.850  14.440 -0.5000  0.6738  1.2673
 5975TIP3    H239417   0.907   0.794  14.579  0.0097 -1.1017  0.6578
 5976TIP3   OH239418   3.090   2.546   2.053 -0.0099  0.0211 -0.0603
 5976TIP3    H139419   3.091   2.611   1.983  2.5551  0.9729  0.7287
 5976TIP3    H239420   3.106   2.597   2.133 -1.6159 -1.1790  1.0770
 5977TIP3   OH239421   5.453   0.885  12.810 -0.5417  0.0227  0.5762
 5977TIP3    H139422   5.455   0.946  12.884 -0.1107  0.4420  0.2264
 5977TIP3    H239423   5.545   0.864  12.794 -0.5667  0.5440 -0.3254
 5978TIP3   OH239424   3.995   4.436  10.612  0.6067 -0.1622  0.0167
 5978TIP3    H139425   3.999   4.456  10.705  1.8189  0.2586 -0.1084
 5978TIP3    H239426   4.076   4.388  10.594  1.0368  0.9193 -1.0742
 5979TIP3   OH239427   5.202   3.071   1.741  0.3841  0.0201  0.4584
 5979TIP3    H139428   5.291   3.105   1.733  0.3319  0.0125 -0.2229
 5979TIP3    H239429   5.196   3.042   1.832  1.4556 -1.0188  0.2266
 5980TIP3   OH239430   6.044   3.592   2.009  0.6398 -0.3624 -0.2083
 5980TIP3    H139431   5.999   3.667   1.971 -1.1117 -1.3863 -0.2435
 5980TIP3    H239432   6.132   3.625   2.031  0.2355  1.4067 -1.0988
 5981TIP3   OH239433   1.197   1.193  13.131  0.0040  0.1494 -0.4427
 5981TIP3    H139434   1.192   1.249  13.054  1.1796 -1.0137 -1.3948
 5981TIP3    H239435   1.252   1.241  13.192 -0.3467  0.7546 -0.5925
 5982TIP3   OH239436   4.494   1.169   0.343  0.1888  0.2262  0.2371
 5982TIP3    H139437   4.415   1.119   0.363 -0.1898  1.1600  1.1192
 5982TIP3    H239438   4.566   1.109   0.367 -0.2479 -0.2743  0.3154
 5983TIP3   OH239439   4.655   5.026  13.468  0.4099 -0.0489  0.0330
 5983TIP3    H139440   4.632   5.115  13.442 -0.1733 -0.5000 -1.0568
 5983TIP3    H239441   4.748   5.018  13.446  0.4499  0.2623  0.0841
 5984TIP3   OH239442   6.320   2.789   5.351  0.3740 -0.0825  0.8442
 5984TIP3    H139443   6.297   2.821   5.438  1.8706  0.1325  1.1792
 5984TIP3    H239444   6.294   2.859   5.291  0.3728  0.2342  1.2206
 5985TIP3   OH239445   6.258   1.746   0.136 -0.0201 -0.3580 -0.2863
 5985TIP3    H139446   6.179   1.766   0.086  0.7709  0.5801 -1.2064
 5985TIP3    H239447   6.308   1.687   0.079 -1.1953 -3.1552  1.3747
 5986TIP3   OH239448   1.759   4.580   1.826 -0.3510  0.1897 -0.5807
 5986TIP3    H139449   1.773   4.501   1.773  1.4664  0.3126 -0.3704
 5986TIP3    H239450   1.790   4.652   1.771 -1.0761  0.6452 -0.3997
 5987TIP3   OH239451   3.495   0.011   3.518  0.1636  0.6296  0.1078
 5987TIP3    H139452   3.535   0.070   3.582  1.1269  2.7712 -2.2561
 5987TIP3    H239453   3.556  -0.062   3.510 -0.4045 -0.1194  2.1750
 5988TIP3   OH239454   0.505   6.127  14.665 -0.2518 -0.3707  0.2859
 5988TIP3    H139455   0.527   6.210  14.623  0.5476 -0.4332  0.5799
 5988TIP3    H239456   0.423   6.100  14.622  0.2460 -0.1537 -0.8308
 5989TIP3   OH239457   3.938   4.985  12.375  0.1474  0.3098  0.8451
 5989TIP3    H139458   3.911   5.065  12.331 -0.0434  0.6053  1.4899
 5989TIP3    H239459   3.946   5.009  12.467 -1.2763 -0.7306  1.2894
 5990TIP3   OH239460   0.741   0.236  17.002  0.3060 -0.1375  0.2954
 5990TIP3    H139461   0.670   0.299  16.992  1.0872  0.6805 -0.1592
 5990TIP3    H239462   0.703   0.167  17.058 -2.5392 -2.3324 -3.8277
 5991TIP3   OH239463   0.652   5.482  14.771  0.3107 -0.1394 -0.2267
 5991TIP3    H139464   0.633   5.574  14.787 -0.7912 -0.3269 -0.3470
 5991TIP3    H239465   0.579   5.435  14.812  0.2121 -0.8826 -1.2150
 5992TIP3   OH239466   2.991   1.228  14.566 -0.2390  0.0642  0.0312
 5992TIP3    H139467   3.029   1.144  14.592  0.1574 -0.4850 -2.1146
 5992TIP3    H239468   2.918   1.204  14.508 -0.4561  1.1820 -0.1739
 5993TIP3   OH239469   6.763   0.381   3.216 -0.4685  0.1076 -0.7059
 5993TIP3    H139470   6.768   0.294   3.253  0.3544 -0.0324 -1.1302
 5993TIP3    H239471   6.670   0.393   3.196 -0.5045 -0.8954 -1.1809
 5994TIP3   OH239472   4.447   2.340   5.864 -0.0264 -0.0346  0.4508
 5994TIP3    H139473   4.379   2.337   5.796  1.7371 -0.1304 -1.3980
 5994TIP3    H239474   4.451   2.433   5.888  1.1611  0.4973 -1.5954
 5995TIP3   OH239475   6.126   2.206  14.529 -0.0235 -0.0905 -0.6901
 5995TIP3    H139476   6.086   2.184  14.613  2.0368  1.2723  0.7587
 5995TIP3    H239477   6.093   2.293  14.508 -2.5354 -1.3865 -2.7237
 5996TIP3   OH239478   5.928   5.747  10.521 -0.1306 -0.4421 -0.1020
 5996TIP3    H139479   5.881   5.663  10.524 -0.2173 -0.3830  0.1870
 5996TIP3    H239480   5.880   5.803  10.581 -1.6273  0.6071 -2.1587
 5997TIP3   OH239481   0.903   3.557  10.623 -0.2474  0.4211  0.0233
 5997TIP3    H139482   0.836   3.571  10.690 -1.3702  0.7965 -1.1278
 5997TIP3    H239483   0.970   3.623  10.643 -1.9699  2.5720 -0.9181
 5998TIP3   OH239484   4.415   3.362   5.310 -0.3145 -0.3266  0.3238
 5998TIP3    H139485   4.425   3.443   5.260  1.8105 -1.5566 -1.4568
 5998TIP3    H239486   4.358   3.308   5.256 -0.2786 -0.6551  0.6116
 5999TIP3   OH239487   0.190   3.632  15.251 -0.2306 -0.4091 -0.5241
 5999TIP3    H139488   0.275   3.654  15.214 -0.2099  1.3065  0.4125
 5999TIP3    H239489   0.137   3.603  15.176  0.6251  0.2903 -1.4192
 6000TIP3   OH239490   5.097   4.595   5.065  0.1360  0.2475  0.4863
 6000TIP3    H139491   5.189   4.590   5.039  0.5743 -2.4639  2.1863
 6000TIP3    H239492   5.049   4.559   4.991  0.4917  0.8645 -0.0599
 6001TIP3   OH239493   4.201   0.019  11.592 -0.1271 -0.4829 -0.0006
 6001TIP3    H139494   4.288   0.055  11.612  0.5597 -1.1110 -1.6429
 6001TIP3    H239495   4.200  -0.066  11.637  1.1774 -1.6339 -1.9633
 6002TIP3   OH239496   2.077   4.025  14.612 -0.0299  0.0961 -0.0151
 6002TIP3    H139497   2.116   4.112  14.610 -1.2325  0.6718  0.5068
 6002TIP3    H239498   2.145   3.968  14.647 -0.2337  1.3874  2.6770
 6003TIP3   OH239499   5.823   4.146   6.449  0.1629  0.4023  0.0827
 6003TIP3    H139500   5.731   4.151   6.473 -0.3936  1.2497 -1.9416
 6003TIP3    H239501   5.865   4.214   6.501 -0.7058  1.2353 -0.2765
 6004TIP3   OH239502   6.782   2.191   1.653 -0.2465  0.3389  0.4426
 6004TIP3    H139503   6.836   2.232   1.721  0.7067 -1.5092  0.9003
 6004TIP3    H239504   6.761   2.105   1.689 -0.4212 -0.3709 -1.2576
 6005TIP3   OH239505   5.787   4.677   6.508  0.1706  0.0383 -0.2813
 6005TIP3    H139506   5.864   4.629   6.478  0.4750  0.7009 -0.5897
 6005TIP3    H239507   5.812   4.770   6.499 -0.2858  0.2546  0.5937
 6006TIP3   OH239508   2.846   5.092  17.163 -0.2377 -0.0462  0.4997
 6006TIP3    H139509   2.901   5.014  17.163 -1.5337 -1.0552 -1.2126
 6006TIP3    H239510   2.887   5.151  17.226  1.2195 -1.7987  1.2882
 6007TIP3   OH239511   2.993   6.521   6.248 -0.0634  0.4896 -0.1154
 6007TIP3    H139512   2.900   6.498   6.244 -0.1318  0.8285 -0.5187
 6007TIP3    H239513   2.996   6.597   6.306 -0.1964  1.2514 -1.0859
 6008TIP3   OH239514   4.465   0.615  12.512  0.3066 -0.0361 -0.5117
 6008TIP3    H139515   4.421   0.536  12.543  0.2295 -0.4314 -1.5997
 6008TIP3    H239516   4.394   0.679  12.503 -0.0712 -0.6352 -2.1423
 6009TIP3   OH239517   2.383   0.993   2.601  0.3967  0.6158  0.5097
 6009TIP3    H139518   2.465   1.028   2.636  0.1355 -0.0547  1.8940
 6009TIP3    H239519   2.399   0.982   2.507  1.9687  0.3064  0.7791
 6010TIP3   OH239520   1.553   5.716  16.571  0.0104 -0.1177 -0.5828
 6010TIP3    H139521   1.621   5.725  16.505 -0.2372 -1.5293 -1.0539
 6010TIP3    H239522   1.497   5.645  16.539  0.9079 -2.1542  1.9590
 6011TIP3   OH239523   0.805   3.781  17.172  0.1410  0.1678 -0.2252
 6011TIP3    H139524   0.806   3.801  17.079 -4.1628 -1.0935 -0.7845
 6011TIP3    H239525   0.786   3.687  17.177  0.6076  0.1213  1.9523
 6012TIP3   OH239526   3.775   0.756   0.004 -0.2958 -0.0515 -0.5995
 6012TIP3    H139527   3.853   0.797   0.040  0.9757 -2.1002 -0.8377
 6012TIP3    H239528   3.788   0.758  -0.091 -0.4701 -0.4935 -0.6370
 6013TIP3   OH239529   1.991   0.535   3.554  0.6009  0.0581 -0.0556
 6013TIP3    H139530   1.989   0.586   3.473 -0.1173  0.5306  0.2483
 6013TIP3    H239531   1.904   0.546   3.591 -0.1580 -2.7733 -0.7846
 6014TIP3   OH239532   5.581   5.623  14.607  0.2180 -0.0053 -0.2871
 6014TIP3    H139533   5.646   5.591  14.669  2.4585  2.0298 -1.4206
 6014TIP3    H239534   5.617   5.600  14.521 -0.1982  1.7415 -0.9623
 6015TIP3   OH239535   5.000   4.873  16.091  0.2578  0.1125  0.0751
 6015TIP3    H139536   4.952   4.915  16.020  1.1091  0.8758 -0.0729
 6015TIP3    H239537   4.980   4.926  16.168  1.9865  1.3923 -0.2646
 6016TIP3   OH239538   4.014   3.360   3.859  0.1900  0.1823  0.3323
 6016TIP3    H139539   4.013   3.389   3.950 -0.8080 -0.1015  0.4236
 6016TIP3    H239540   4.099   3.388   3.825  0.0127  1.5338  0.9509
 6017TIP3   OH239541   6.573   3.317  11.050  0.5662  0.0003  0.2851
 6017TIP3    H139542   6.478   3.323  11.036  0.6919 -0.6591 -0.9929
 6017TIP3    H239543   6.588   3.227  11.079  0.6767  0.4777  1.8133
 6018TIP3   OH239544   0.588   6.233  14.971 -0.6994 -0.1867  0.3338
 6018TIP3    H139545   0.529   6.217  14.897  0.4600 -0.1546 -0.6419
 6018TIP3    H239546   0.568   6.322  14.999  1.2108  1.2242 -2.2972
 6019TIP3   OH239547   2.550   1.306   2.016 -0.3922  0.4968  1.3310
 6019TIP3    H139548   2.625   1.305   1.957 -0.0422 -0.9949  1.7545
 6019TIP3    H239549   2.518   1.216   2.015 -2.1524  1.0895  1.2027
 6020TIP3   OH239550   3.679   4.319  11.176 -0.8275 -0.1463 -0.4665
 6020TIP3    H139551   3.715   4.323  11.087  0.0170 -0.0817 -0.1348
 6020TIP3    H239552   3.699   4.405  11.213 -1.4550 -0.0627 -0.3139
 6021TIP3   OH239553   5.200   4.311  14.979  0.1197 -0.0713 -0.0097
 6021TIP3    H139554   5.157   4.232  15.011 -0.7416  1.1449  2.0152
 6021TIP3    H239555   5.277   4.278  14.932  1.0972 -2.1260  2.7116
 6022TIP3   OH239556   5.756   3.611  14.945  0.0480 -0.7149 -0.2591
 6022TIP3    H139557   5.697   3.663  15.000  0.3684 -0.4789 -0.1408
 6022TIP3    H239558   5.697   3.557  14.892 -0.2684 -1.1352  0.4935
 6023TIP3   OH239559   2.489   3.874  14.937 -1.0402 -0.3320 -0.1689
 6023TIP3    H139560   2.495   3.844  15.027 -0.6897 -1.2870 -0.4930
 6023TIP3    H239561   2.510   3.796  14.885  2.1252  0.9197 -1.0321
 6024TIP3   OH239562   4.662   0.323   2.216  0.1047 -0.1373 -0.1974
 6024TIP3    H139563   4.644   0.275   2.136 -1.3781  3.6039 -2.3563
 6024TIP3    H239564   4.579   0.323   2.264 -0.3884  1.4866 -0.9966
 6025TIP3   OH239565   1.000   4.018  11.659 -1.4768  0.3546  0.4087
 6025TIP3    H139566   1.015   4.062  11.742  0.5704 -1.7736  1.2535
 6025TIP3    H239567   1.039   4.077  11.594  0.8456  0.1011  1.4666
 6026TIP3   OH239568   4.391   5.601   6.163  0.0452 -0.1930  0.0260
 6026TIP3    H139569   4.476   5.608   6.119 -0.1325  1.7365 -0.0952
 6026TIP3    H239570   4.412   5.601   6.256  0.2436 -1.3023 -0.0028
 6027TIP3   OH239571   5.296   1.332   5.174  0.4117  0.3728 -0.5488
 6027TIP3    H139572   5.260   1.290   5.096  0.3647 -0.1304 -0.2668
 6027TIP3    H239573   5.240   1.408   5.188 -0.2613 -0.1292 -0.3973
 6028TIP3   OH239574   0.878   5.070   1.293 -0.1729 -0.2663  0.2538
 6028TIP3    H139575   0.863   5.165   1.296 -0.7520 -0.3455 -0.0486
 6028TIP3    H239576   0.823   5.039   1.221 -0.5252 -0.9352  0.8024
 6029TIP3   OH239577   4.015   3.415   4.661 -0.6505 -0.2796 -0.2505
 6029TIP3    H139578   3.985   3.451   4.578 -3.5880 -2.1656 -0.1491
 6029TIP3    H239579   3.961   3.458   4.727 -0.1682 -0.6744  0.4130
 6030TIP3   OH239580   0.371   5.648  15.111 -0.0803 -0.0379 -0.7697
 6030TIP3    H139581   0.448   5.687  15.152  0.2021 -1.4630  0.1031
 6030TIP3    H239582   0.298   5.676  15.165  0.2283 -1.4378  0.4328
 6031TIP3   OH239583   1.254   1.687   2.871  0.2250 -0.0602 -0.1926
 6031TIP3    H139584   1.308   1.760   2.843  0.0413  0.1813  0.0836
 6031TIP3    H239585   1.300   1.650   2.946 -1.2913  1.7689  1.7403
 6032TIP3   OH239586   1.084   0.204  13.200  0.4869 -0.3223  0.1649
 6032TIP3    H139587   1.006   0.174  13.245  0.8206 -0.0302  0.9534
 6032TIP3    H239588   1.084   0.157  13.117 -1.0715  0.4493 -0.2944
 6033TIP3   OH239589   3.248   3.157  17.033  0.5072 -0.1258  0.5742
 6033TIP3    H139590   3.228   3.066  17.010 -1.6083 -0.0436  1.8997
 6033TIP3    H239591   3.248   3.203  16.949  0.7198 -1.1843 -0.0232
 6034TIP3   OH239592   5.285   6.027   4.280 -0.3753 -0.1359  0.1033
 6034TIP3    H139593   5.286   6.088   4.354  0.0414 -1.1584  0.9754
 6034TIP3    H239594   5.292   5.940   4.321 -0.7944 -0.7615 -1.1073
 6035TIP3   OH239595   3.171   6.289   0.264 -0.0761 -0.0141 -0.0439
 6035TIP3    H139596   3.219   6.296   0.346  0.0176  2.0714 -0.2387
 6035TIP3    H239597   3.079   6.300   0.289 -0.1046 -0.0017 -0.1556
 6036TIP3   OH239598   0.115   4.896   0.806 -0.2302  0.2698 -0.3091
 6036TIP3    H139599   0.185   4.878   0.743  0.0088  1.0928 -0.2915
 6036TIP3    H239600   0.034   4.876   0.758  0.0093 -0.8446 -0.2751
 6037TIP3   OH239601   6.818   0.996  16.007 -0.2907 -0.7125 -0.0376
 6037TIP3    H139602   6.813   1.080  15.962 -2.0437 -1.2179 -0.9175
 6037TIP3    H239603   6.911   0.976  16.011  0.4194  2.3363  2.3775
 6038TIP3   OH239604   2.755   1.213  17.183 -0.1292  0.8443 -0.3971
 6038TIP3    H139605   2.740   1.153  17.110 -2.9012  0.4846  0.3481
 6038TIP3    H239606   2.766   1.298  17.142  1.5201  0.2143 -1.3478
 6039TIP3   OH239607   0.411   3.788  11.684  0.0607 -0.1708 -0.0854
 6039TIP3    H139608   0.468   3.714  11.705 -1.5291 -1.4751 -0.1945
 6039TIP3    H239609   0.378   3.817  11.769  2.2298  1.8145  0.1957
 6040TIP3   OH239610   4.093   1.194   1.616  0.5633 -0.0022  0.2037
 6040TIP3    H139611   4.061   1.260   1.679 -0.9896  0.0222 -0.5478
 6040TIP3    H239612   4.159   1.240   1.565 -1.1435  1.3638 -0.9287
 6041TIP3   OH239613   3.709   6.736   0.324 -0.1751  0.0474  0.5183
 6041TIP3    H139614   3.641   6.752   0.259  1.5515  1.3566 -1.0774
 6041TIP3    H239615   3.730   6.643   0.316  0.1498  0.2355 -0.9711
 6042TIP3   OH239616   5.621   3.436  11.644  0.1307  0.0638 -0.3099
 6042TIP3    H139617   5.579   3.366  11.595  1.7406 -1.3355  0.2189
 6042TIP3    H239618   5.657   3.495  11.577  0.0145 -0.3983 -0.7801
 6043TIP3   OH239619   4.585   1.840   4.258 -0.4313 -0.2660  0.2565
 6043TIP3    H139620   4.505   1.811   4.301 -0.6199  0.2114  0.2264
 6043TIP3    H239621   4.555   1.902   4.191  0.0361  0.5371  0.7895
 6044TIP3   OH239622   0.299   0.693   1.615  0.1228 -0.3499 -0.1475
 6044TIP3    H139623   0.314   0.684   1.521  0.1982 -2.5441  0.0093
 6044TIP3    H239624   0.350   0.769   1.641  0.7215 -0.1645 -1.7639
 6045TIP3   OH239625   2.466   0.953  13.715 -0.0149 -0.3717  0.3869
 6045TIP3    H139626   2.378   0.958  13.678  0.8983 -1.5412 -2.2209
 6045TIP3    H239627   2.465   0.874  13.769 -0.3714 -0.8718 -0.3284
 6046TIP3   OH239628   4.525   4.323  13.170  0.2165  0.0509  0.2067
 6046TIP3    H139629   4.481   4.372  13.101  0.6994 -0.1460 -0.2460
 6046TIP3    H239630   4.614   4.358  13.172  0.6299 -0.9236 -0.2601
 6047TIP3   OH239631   1.482   0.410  11.865 -0.1318 -0.1898  0.1883
 6047TIP3    H139632   1.441   0.403  11.779  1.0531 -1.3247 -0.3178
 6047TIP3    H239633   1.524   0.326  11.879 -0.1461  0.0431  1.8179
 6048TIP3   OH239634   5.480   4.589  13.786  0.0992 -0.1033  0.1900
 6048TIP3    H139635   5.420   4.613  13.857  0.1443  0.9016 -0.0902
 6048TIP3    H239636   5.545   4.532  13.827  1.2781  1.9940  1.4487
 6049TIP3   OH239637   4.031   0.837  11.330  0.2177  0.7908  0.5386
 6049TIP3    H139638   3.970   0.765  11.317  2.7167 -1.4785  0.4802
 6049TIP3    H239639   4.027   0.855  11.424 -2.0232  2.2196  0.2483
 6050TIP3   OH239640   3.061   4.261   3.455  0.8470  0.2505  0.1301
 6050TIP3    H139641   3.004   4.204   3.506  0.4092 -0.0267 -0.6465
 6050TIP3    H239642   3.006   4.335   3.429  1.4889  1.2096  1.3795
 6051TIP3   OH239643   4.862   6.720   1.020  0.4468 -0.1481 -0.4262
 6051TIP3    H139644   4.891   6.809   1.044  0.3809 -0.1878 -0.1996
 6051TIP3    H239645   4.813   6.732   0.939  0.6293 -0.0063 -0.5174
 6052TIP3   OH239646   5.645   5.190   1.991 -0.1468 -0.3785 -0.0328
 6052TIP3    H139647   5.610   5.161   1.907  0.3497 -2.0953  0.3151
 6052TIP3    H239648   5.591   5.266   2.014 -0.7376 -0.2999 -1.5552
 6053TIP3   OH239649   5.257   0.321  15.418  0.2388 -0.2819 -0.5798
 6053TIP3    H139650   5.325   0.302  15.353 -0.4676  0.7464 -1.6669
 6053TIP3    H239651   5.247   0.239  15.466  2.0766 -0.5292 -0.5214
 6054TIP3   OH239652   1.731   4.194  15.683  0.0449  0.0506 -0.1921
 6054TIP3    H139653   1.816   4.238  15.681 -0.2416  0.7196  1.2332
 6054TIP3    H239654   1.717   4.174  15.776 -0.9286 -0.8987 -0.5291
 6055TIP3   OH239655   3.113   2.694  12.864 -0.4469 -0.0290  0.1419
 6055TIP3    H139656   3.090   2.762  12.801  0.8498  0.1214 -0.2034
 6055TIP3    H239657   3.172   2.636  12.816 -1.3125 -1.2553  0.5109
 6056TIP3   OH239658   3.774   3.035   5.241  0.2331  0.2418 -0.0192
 6056TIP3    H139659   3.821   3.081   5.170  0.8853  2.0287  1.4802
 6056TIP3    H239660   3.698   3.090   5.258 -1.1910 -1.4056 -0.8334
 6057TIP3   OH239661   1.319   5.417  10.619 -0.5905 -0.2470  0.4169
 6057TIP3    H139662   1.345   5.330  10.652  2.5201  0.3974 -0.0454
 6057TIP3    H239663   1.362   5.424  10.534 -1.3892  1.4928  0.1251
 6058TIP3   OH239664   4.734   1.191  13.370  0.1991  0.0506  0.2951
 6058TIP3    H139665   4.712   1.284  13.383  1.4859  0.3519  0.4697
 6058TIP3    H239666   4.655   1.144  13.396  0.0088  1.0421  1.6090
 6059TIP3   OH239667   3.031   5.388   6.021  0.3420 -0.0416 -0.4362
 6059TIP3    H139668   3.116   5.398   6.065  0.0572  0.2121  0.0604
 6059TIP3    H239669   3.054   5.370   5.930  1.0033 -3.3422  0.2664
 6060TIP3   OH239670   2.731   0.274   5.371 -0.1713  0.1151 -0.2023
 6060TIP3    H139671   2.679   0.250   5.448  0.5133  1.6100  0.7822
 6060TIP3    H239672   2.716   0.203   5.308 -1.5154 -0.6575  0.9363
 6061TIP3   OH239673   3.680   3.105  14.201 -0.7078 -0.0704 -0.1765
 6061TIP3    H139674   3.621   3.107  14.126  0.9577 -0.6340 -1.5491
 6061TIP3    H239675   3.684   3.012  14.225  0.3895 -0.1755 -0.7380
 6062TIP3   OH239676   0.854   6.816  14.145 -0.1580 -0.0404  0.0530
 6062TIP3    H139677   0.768   6.785  14.115 -1.0815  2.0047  0.4339
 6062TIP3    H239678   0.903   6.832  14.064 -0.7842  0.4588 -0.2425
 6063TIP3   OH239679   4.396   4.487  14.307 -0.4848  0.1572 -0.4301
 6063TIP3    H139680   4.479   4.439  14.310 -0.7032 -0.1926  0.1371
 6063TIP3    H239681   4.395   4.528  14.220 -0.9781 -2.0793 -1.5429
 6064TIP3   OH239682   0.072   0.650   2.959  0.1103 -0.2328  0.3066
 6064TIP3    H139683   0.098   0.579   3.018  0.8130  0.6440  1.0814
 6064TIP3    H239684   0.077   0.729   3.013 -0.6551  0.4147 -0.5431
 6065TIP3   OH239685   0.544   6.310   5.251 -0.4079 -0.4039 -0.7304
 6065TIP3    H139686   0.542   6.353   5.336 -0.9323  0.4368 -1.1539
 6065TIP3    H239687   0.558   6.381   5.188  1.0195 -1.1184 -1.2896
 6066TIP3   OH239688   3.816   3.778   6.217  0.2040 -0.1354  0.3436
 6066TIP3    H139689   3.861   3.711   6.269 -0.7119 -1.2080 -0.2026
 6066TIP3    H239690   3.723   3.762   6.232 -0.0660 -0.1050 -1.1570
 6067TIP3   OH239691   1.496   2.123   6.394  0.5832  0.2116  0.2135
 6067TIP3    H139692   1.547   2.083   6.323 -0.9933 -0.3817 -0.6399
 6067TIP3    H239693   1.547   2.199   6.420  1.5732  0.0257 -1.0599
 6068TIP3   OH239694   2.102   4.322   1.067 -0.3725 -0.5798  0.4408
 6068TIP3    H139695   2.088   4.233   1.099 -0.1009 -1.2439 -1.2023
 6068TIP3    H239696   2.141   4.368   1.141  1.1512 -2.3153  0.7911
 6069TIP3   OH239697   1.327   4.825   2.586 -0.4394  0.6666 -0.1131
 6069TIP3    H139698   1.372   4.745   2.613 -2.0327 -0.1334  0.2618
 6069TIP3    H239699   1.384   4.862   2.518  2.1948  1.2151  2.2241
 6070TIP3   OH239700   5.555   5.858   6.041 -0.5194  0.1124 -0.2357
 6070TIP3    H139701   5.538   5.943   6.082 -0.0765 -0.7252  1.7517
 6070TIP3    H239702   5.505   5.795   6.093  1.4156 -1.2129  0.1415
 6071TIP3   OH239703   5.551   2.228  13.381  0.9976  0.3020  0.2219
 6071TIP3    H139704   5.629   2.181  13.411  0.7371  1.2135  2.6038
 6071TIP3    H239705   5.584   2.293  13.320  1.8139 -0.6211 -0.3644
 6072TIP3   OH239706   3.952   4.867   5.292 -0.0259 -0.6046  0.0124
 6072TIP3    H139707   4.016   4.933   5.318 -0.6177  0.1447 -0.4057
 6072TIP3    H239708   3.941   4.879   5.198 -0.8829 -0.6274  0.1008
 6073TIP3   OH239709   1.641   6.372   2.503 -0.4071 -0.3034  0.2768
 6073TIP3    H139710   1.717   6.321   2.528  1.3564  1.7385 -0.6056
 6073TIP3    H239711   1.604   6.326   2.427  0.0272 -1.2340  0.6226
 6074TIP3   OH239712   3.623   5.690  16.798 -0.0452  0.2875 -0.1185
 6074TIP3    H139713   3.618   5.681  16.893  1.4281 -0.3249 -0.0876
 6074TIP3    H239714   3.703   5.740  16.782 -0.0141 -0.0375 -1.0577
 6075TIP3   OH239715   5.404   5.396   1.287 -0.3697 -0.6612 -0.0165
 6075TIP3    H139716   5.400   5.447   1.207 -2.6815  0.1900  0.5657
 6075TIP3    H239717   5.360   5.450   1.352  0.5398 -1.7785  1.5899
 6076TIP3   OH239718   1.215   6.086   5.282  0.2633 -0.1699  0.3388
 6076TIP3    H139719   1.165   6.011   5.316 -2.6620  2.0954  1.4237
 6076TIP3    H239720   1.272   6.111   5.355  0.0397 -0.3333  0.5743
 6077TIP3   OH239721   4.933   4.217   2.804 -0.1926  0.0734 -0.3977
 6077TIP3    H139722   4.874   4.152   2.766 -0.3243  0.4712 -0.8654
 6077TIP3    H239723   5.009   4.217   2.746 -0.4658  0.8033 -0.7573
 6078TIP3   OH239724   1.383   5.060  14.549  0.0220 -0.3859  0.0338
 6078TIP3    H139725   1.442   5.007  14.603  1.2139  2.1123  1.3515
 6078TIP3    H239726   1.441   5.114  14.495 -1.0832  0.8676  0.0507
 6079TIP3   OH239727   4.153   1.081   3.136 -0.2895  0.2015  0.6671
 6079TIP3    H139728   4.229   1.053   3.189  0.2174 -0.0943 -0.1921
 6079TIP3    H239729   4.172   1.047   3.049 -2.3847 -1.6579  0.8699
 6080TIP3   OH239730   1.909   1.133   3.827 -0.3337 -0.1097 -0.3467
 6080TIP3    H139731   1.864   1.101   3.905 -1.3317  0.7099 -0.5580
 6080TIP3    H239732   1.995   1.162   3.858 -1.0693  1.1046  0.6613
 6081TIP3   OH239733   5.689   0.120  15.658  0.3328 -0.2163 -0.4055
 6081TIP3    H139734   5.728   0.039  15.691  0.6754  0.1182  0.0343
 6081TIP3    H239735   5.706   0.118  15.564 -0.3664 -1.0300 -0.5274
 6082TIP3   OH239736   0.094   4.408   5.524 -0.3739 -0.2720 -0.4926
 6082TIP3    H139737   0.147   4.440   5.451  1.7749  2.0484  1.8406
 6082TIP3    H239738   0.122   4.317   5.536  0.2043 -0.2745 -1.7218
 6083TIP3   OH239739   6.229   2.121   1.331 -0.2067 -1.1432  0.3828
 6083TIP3    H139740   6.316   2.159   1.337 -0.2365 -1.1523  0.9115
 6083TIP3    H239741   6.171   2.185   1.373  0.1553 -3.0796  4.3317
 6084TIP3   OH239742   0.326   0.088   6.447 -0.3044 -0.5021  0.0021
 6084TIP3    H139743   0.299   0.179   6.459  1.3094  0.2501 -1.5633
 6084TIP3    H239744   0.249   0.044   6.412 -1.1013  0.2563  0.7624
 6085TIP3   OH239745   0.395   5.024   3.033 -0.1618  0.0256  0.5404
 6085TIP3    H139746   0.345   4.965   2.976  0.2992  0.6860 -0.5934
 6085TIP3    H239747   0.351   5.019   3.118 -0.5150 -1.4399  0.2943
 6086TIP3   OH239748   2.227   6.730   5.730  0.6516  0.1062  0.2751
 6086TIP3    H139749   2.135   6.754   5.733  0.0657 -1.9198  0.3424
 6086TIP3    H239750   2.274   6.813   5.736 -1.1393  1.4566 -2.5352
 6087TIP3   OH239751   4.096   0.789   5.863  0.0375  0.5491 -0.3425
 6087TIP3    H139752   4.108   0.794   5.958  0.1684  1.1403 -0.3868
 6087TIP3    H239753   4.119   0.699   5.841 -1.4972 -0.0605  0.3902
 6088TIP3   OH239754   4.286   5.894   4.731  0.3072  0.7722  0.1673
 6088TIP3    H139755   4.272   5.985   4.706 -0.5577  0.3397 -0.9992
 6088TIP3    H239756   4.217   5.845   4.686  0.6120 -0.4396  0.9548
 6089TIP3   OH239757   6.223   6.412  11.276 -0.5276  0.3332 -0.4435
 6089TIP3    H139758   6.172   6.486  11.244  0.8922  1.3137 -0.5443
 6089TIP3    H239759   6.258   6.442  11.360  1.0316  0.2532 -1.0360
 6090TIP3   OH239760   0.730   2.504   5.066  0.6549  0.5210  0.4908
 6090TIP3    H139761   0.701   2.433   5.008  2.4900  1.1796 -1.3766
 6090TIP3    H239762   0.736   2.580   5.008 -0.0321  1.9010  2.1758
 6091TIP3   OH239763   5.542   0.638  11.625  0.6175 -1.0769  0.6656
 6091TIP3    H139764   5.461   0.659  11.673  1.4718 -0.1306  1.7430
 6091TIP3    H239765   5.609   0.634  11.693  1.8699  0.2000 -0.4507
 6092TIP3   OH239766   2.593   1.788  10.546  0.2035 -0.2179  0.0561
 6092TIP3    H139767   2.632   1.831  10.622 -1.4678  1.8968 -0.1920
 6092TIP3    H239768   2.530   1.726  10.583 -0.2629  0.4646  0.4387
 6093TIP3   OH239769   6.782   5.821   5.200  0.1778 -0.1531  0.1713
 6093TIP3    H139770   6.775   5.898   5.256  2.7808 -0.0088  0.3873
 6093TIP3    H239771   6.866   5.782   5.222  0.4484 -1.1647 -2.3087
 6094TIP3   OH239772   2.391   4.638  17.178 -0.1847 -0.1284 -0.3375
 6094TIP3    H139773   2.379   4.733  17.176  0.2042 -0.0155  1.0962
 6094TIP3    H239774   2.485   4.625  17.169 -0.1718 -0.3295  0.0328
 6095TIP3   OH239775   4.901   0.501  16.039  0.1257  0.1869  0.5535
 6095TIP3    H139776   4.986   0.525  16.003  0.5074  2.0112  2.4858
 6095TIP3    H239777   4.902   0.405  16.041  1.4688  0.1331 -0.8806
 6096TIP3   OH239778   0.614   4.529  14.663  0.4322 -0.6897  0.0919
 6096TIP3    H139779   0.564   4.449  14.650  0.6019 -0.7324 -0.3123
 6096TIP3    H239780   0.703   4.499  14.683  0.8154 -0.5973 -1.3937
 6097TIP3   OH239781   1.782   1.171  12.397 -0.5362  0.0416 -0.3877
 6097TIP3    H139782   1.772   1.236  12.466 -1.0789  0.3719 -0.7679
 6097TIP3    H239783   1.693   1.142  12.377 -0.3505 -0.3760 -0.6403
 6098TIP3   OH239784   0.378   0.406  17.255  0.4357  0.8606  0.4760
 6098TIP3    H139785   0.313   0.473  17.238  0.0718  0.3099 -0.3413
 6098TIP3    H239786   0.412   0.427  17.343 -1.4667  0.6373  1.3099
 6099TIP3   OH239787   5.375   1.157   4.661  0.0422 -0.2082 -0.2065
 6099TIP3    H139788   5.302   1.094   4.667 -0.4610  0.2721 -1.1008
 6099TIP3    H239789   5.433   1.132   4.733 -0.9209 -0.7061  0.4372
 6100TIP3   OH239790   2.617   4.029   1.329 -0.0182  0.5031  0.6206
 6100TIP3    H139791   2.576   3.960   1.277 -0.6716 -0.0003  1.7637
 6100TIP3    H239792   2.557   4.103   1.322 -0.2537  0.3403  0.8744
 6101TIP3   OH239793   6.397   4.054  15.483  0.2399 -0.2665 -0.0982
 6101TIP3    H139794   6.405   4.074  15.390  1.0415 -1.2569 -0.2680
 6101TIP3    H239795   6.368   4.135  15.523  2.7382  1.0694 -0.8044
 6102TIP3   OH239796   1.286   1.543   0.350 -0.3251 -0.2374 -0.6103
 6102TIP3    H139797   1.297   1.630   0.388  0.1803  0.6309 -2.6124
 6102TIP3    H239798   1.326   1.483   0.413  0.8241  1.1618  0.0318
 6103TIP3   OH239799   0.463   6.744   0.039 -0.2981 -0.0416  0.0362
 6103TIP3    H139800   0.400   6.807   0.074 -0.6573  0.4050 -1.3336
 6103TIP3    H239801   0.410   6.683  -0.013 -0.2934 -2.9319  3.0948
 6104TIP3   OH239802   6.293   5.763  13.538  0.0375 -0.1907  0.2063
 6104TIP3    H139803   6.262   5.673  13.544  0.7648 -0.6213 -1.7150
 6104TIP3    H239804   6.284   5.798  13.627 -2.8741 -1.2730  0.4463
 6105TIP3   OH239805   0.225   2.202  17.044  0.3434  0.1835  0.1925
 6105TIP3    H139806   0.137   2.230  17.020  0.0366 -1.9980 -1.5526
 6105TIP3    H239807   0.223   2.195  17.139 -0.7334  2.0083  0.3531
 6106TIP3   OH239808   0.491   3.221  13.271  0.5791 -0.3279 -0.2290
 6106TIP3    H139809   0.410   3.183  13.305 -0.3751  0.8515 -1.0897
 6106TIP3    H239810   0.539   3.249  13.350 -0.6972  0.6107  0.2501
 6107TIP3   OH239811   3.277   5.994  16.401 -0.4701 -0.5620  0.3081
 6107TIP3    H139812   3.231   6.072  16.370 -1.2391 -0.8197  0.7730
 6107TIP3    H239813   3.366   6.005  16.369 -0.5676  0.5007  0.3574
 6108TIP3   OH239814   6.313   5.111   3.363  0.1053  0.2768 -0.5719
 6108TIP3    H139815   6.397   5.076   3.331 -0.6549 -1.0264 -1.2349
 6108TIP3    H239816   6.282   5.166   3.291 -0.7899 -1.2888 -1.4390
 6109TIP3   OH239817   2.652   3.353  11.958 -0.4858  0.5549 -0.0448
 6109TIP3    H139818   2.648   3.396  12.043  0.4654  0.9694 -0.1965
 6109TIP3    H239819   2.618   3.418  11.897 -0.8608  0.3757 -0.0323
 6110TIP3   OH239820   3.880   6.000   4.601 -0.7083  0.5269  0.0190
 6110TIP3    H139821   3.932   6.080   4.603 -1.6550  1.1789  2.5843
 6110TIP3    H239822   3.937   5.936   4.558  0.2749  2.4006 -1.6262
 6111TIP3   OH239823   0.532   3.975  15.862  0.6985  0.3563  0.0368
 6111TIP3    H139824   0.528   4.028  15.942 -3.3009 -0.0130  0.2802
 6111TIP3    H239825   0.552   3.887  15.892 -1.5886  0.0608  0.8121
 6112TIP3   OH239826   4.995   1.449   0.686  0.3680  0.4699 -0.5906
 6112TIP3    H139827   4.977   1.368   0.638  0.4965  1.2407 -1.9717
 6112TIP3    H239828   5.088   1.465   0.672  0.5818  0.3371  0.5407
 6113TIP3   OH239829   4.005   4.381   4.646  0.0334 -0.6688 -0.1759
 6113TIP3    H139830   4.035   4.447   4.583 -0.1019 -0.0687  0.3923
 6113TIP3    H239831   4.056   4.397   4.725 -1.5452  0.1825  0.7193
 6114TIP3   OH239832   2.260   1.561   2.294  0.7085 -0.1586  0.4681
 6114TIP3    H139833   2.351   1.539   2.277  0.0732 -1.9415 -0.8210
 6114TIP3    H239834   2.211   1.526   2.220 -1.0588  0.7177  1.1398
 6115TIP3   OH239835   4.153   4.738  14.836 -0.0490 -0.5394 -0.2339
 6115TIP3    H139836   4.149   4.817  14.889 -0.6951  0.5036 -1.7509
 6115TIP3    H239837   4.240   4.740  14.795  0.5319 -1.4515  0.8905
 6116TIP3   OH239838   0.018   3.739   1.950 -0.5631  0.1645 -0.0650
 6116TIP3    H139839   0.073   3.789   1.891  2.0724 -1.0398  1.2233
 6116TIP3    H239840   0.029   3.782   2.035 -1.9748  0.1283  0.1635
 6117TIP3   OH239841   0.361   0.334   5.661  0.0389 -0.2505 -0.1436
 6117TIP3    H139842   0.320   0.248   5.662 -1.5625  0.4813 -0.4189
 6117TIP3    H239843   0.295   0.393   5.697  1.1291  0.8623  0.1031
 6118TIP3   OH239844   4.385   0.953  12.793  0.1474 -0.0771 -0.3189
 6118TIP3    H139845   4.332   0.874  12.778 -1.6202  1.0896 -0.4838
 6118TIP3    H239846   4.448   0.953  12.721 -2.2740  0.5795 -2.6144
 6119TIP3   OH239847   1.031   1.073   2.451  0.3423 -0.3734  0.2302
 6119TIP3    H139848   1.023   1.160   2.410  0.2627  0.1456  1.3049
 6119TIP3    H239849   1.121   1.071   2.484  0.9382 -1.4366 -1.3629
 6120TIP3   OH239850   3.330   4.072   0.870 -0.9041  0.0674 -0.7744
 6120TIP3    H139851   3.260   4.111   0.923 -0.8095 -1.4892  0.5947
 6120TIP3    H239852   3.283   4.018   0.807 -1.0170 -1.8720  0.8598
 6121TIP3   OH239853   2.702   1.743  12.384  0.2834  0.8529 -0.1480
 6121TIP3    H139854   2.652   1.797  12.322 -1.6974  0.5759  1.1027
 6121TIP3    H239855   2.690   1.654  12.352  0.5565  0.8389 -0.2142
 6122TIP3   OH239856   0.191   6.465  12.874 -0.4636  0.5558 -0.3639
 6122TIP3    H139857   0.190   6.494  12.782  0.7793 -0.0558 -0.5881
 6122TIP3    H239858   0.170   6.372  12.870 -0.0644  0.4503 -0.0620
 6123TIP3   OH239859   3.245   3.960  15.757 -0.8122 -0.8665  0.1794
 6123TIP3    H139860   3.194   3.919  15.687 -0.9944 -1.5781  0.7164
 6123TIP3    H239861   3.294   3.887  15.796  1.6417 -0.0580 -1.1329
 6124TIP3   OH239862   6.778   5.874   5.953 -0.1267  0.1502  0.1595
 6124TIP3    H139863   6.786   5.793   5.903 -1.4857  0.7856 -1.1878
 6124TIP3    H239864   6.864   5.915   5.947  0.7723 -1.4678  1.4196
 6125TIP3   OH239865   6.035   5.454   1.616  0.1923 -0.3095 -0.3272
 6125TIP3    H139866   5.959   5.398   1.633  0.1892 -0.3930 -0.6076
 6125TIP3    H239867   6.093   5.439   1.691  0.0487 -0.4447 -0.2431
 6126TIP3   OH239868   1.970   0.904   6.080  1.0768  0.5535  0.5760
 6126TIP3    H139869   1.914   0.841   6.127  2.7228 -0.7802  0.8428
 6126TIP3    H239870   1.978   0.867   5.992  2.7918 -0.1576  0.9941
 6127TIP3   OH239871   5.882   6.687   3.292  0.1570 -0.3173 -0.4250
 6127TIP3    H139872   5.874   6.712   3.200  0.5342  0.0880 -0.3511
 6127TIP3    H239873   5.793   6.662   3.318  0.0990 -0.7324 -0.9784
 6128TIP3   OH239874   4.796   4.494  12.950  0.4826 -0.5056 -0.4324
 6128TIP3    H139875   4.836   4.465  13.032  0.5157 -1.3369 -0.7384
 6128TIP3    H239876   4.751   4.575  12.973  0.7494 -0.5679  0.3372
 6129TIP3   OH239877   2.267   4.798   4.641  0.5784  0.2627 -0.1305
 6129TIP3    H139878   2.174   4.801   4.618  0.4740 -0.0780  0.2371
 6129TIP3    H239879   2.285   4.705   4.657  1.2600  0.1750 -1.2966
 6130TIP3   OH239880   6.711   5.791  12.646 -0.3197  0.7112 -0.0011
 6130TIP3    H139881   6.719   5.840  12.564  1.4143 -0.4683 -0.5886
 6130TIP3    H239882   6.799   5.789  12.683 -0.0142 -2.6991 -0.5124
 6131TIP3   OH239883   2.373   0.562   5.243 -0.4982  0.1621 -0.1582
 6131TIP3    H139884   2.359   0.589   5.152 -0.9616  0.9251  0.1241
 6131TIP3    H239885   2.412   0.639   5.285  1.8835 -0.9372 -0.2171
 6132TIP3   OH239886   2.564   3.119  16.809  0.2646 -0.0623  0.1757
 6132TIP3    H139887   2.504   3.047  16.787  1.3012 -0.8356 -0.1895
 6132TIP3    H239888   2.613   3.135  16.729  1.5044 -0.3977  0.8411
 6133TIP3   OH239889   6.752   3.199   0.535 -0.3303 -0.9351  0.1043
 6133TIP3    H139890   6.687   3.139   0.499  0.0781 -0.8055 -0.8769
 6133TIP3    H239891   6.822   3.200   0.470 -0.0913  0.2002  0.3588
 6134TIP3   OH239892   1.489   1.872   4.256  0.1913  0.6188  0.7422
 6134TIP3    H139893   1.479   1.918   4.172  1.2867  1.7878  1.2158
 6134TIP3    H239894   1.400   1.844   4.279 -0.1603  0.4952 -0.6829
 6135TIP3   OH239895   2.796   1.188  11.558  0.1240 -0.7303 -0.3433
 6135TIP3    H139896   2.886   1.167  11.582 -0.5139 -1.0299  1.9607
 6135TIP3    H239897   2.794   1.284  11.555  0.5431 -0.7253 -0.5389
 6136TIP3   OH239898   6.516   0.021   3.980 -0.1754 -0.2805  0.2105
 6136TIP3    H139899   6.556  -0.063   4.001 -0.2804 -0.0391  1.4525
 6136TIP3    H239900   6.553   0.045   3.895  1.8181 -0.3824  1.0037
 6137TIP3   OH239901   2.701   4.076   0.451 -0.2799  0.2471  0.0548
 6137TIP3    H139902   2.681   3.983   0.445 -0.2587  0.1671  1.0660
 6137TIP3    H239903   2.617   4.117   0.469 -0.1263  0.3156  0.6139
 6138TIP3   OH239904   0.367   3.932  13.844 -0.5291  0.2377  0.6732
 6138TIP3    H139905   0.396   3.849  13.880 -0.9977 -0.5197 -0.6438
 6138TIP3    H239906   0.277   3.917  13.817  0.2983  0.1804 -2.4409
 6139TIP3   OH239907   3.840   3.036  11.940 -0.5279 -0.2913 -0.3056
 6139TIP3    H139908   3.866   3.011  12.028 -0.1375 -0.5118 -0.4799
 6139TIP3    H239909   3.828   2.952  11.894  0.8641 -0.1722 -0.9179
 6140TIP3   OH239910   5.661   2.650   2.994  0.0557 -0.1143 -0.0589
 6140TIP3    H139911   5.596   2.595   2.950 -0.4107  0.4232 -0.0538
 6140TIP3    H239912   5.742   2.598   2.992 -0.4858 -0.9933  0.3567
 6141TIP3   OH239913   6.031   5.122   6.031 -0.0679 -0.1797 -0.2596
 6141TIP3    H139914   6.109   5.088   5.986 -0.1088 -1.6307  0.6974
 6141TIP3    H239915   5.965   5.054   6.020 -0.7986  0.4677  0.0425
 6142TIP3   OH239916   2.889   5.379  15.790  0.0692 -0.6904 -0.2242
 6142TIP3    H139917   2.821   5.394  15.723 -0.0877  0.6758  0.2092
 6142TIP3    H239918   2.898   5.464  15.833  0.7112 -1.3629  0.9901
 6143TIP3   OH239919   2.973   2.196  15.153  0.1734 -0.3103  0.1839
 6143TIP3    H139920   2.976   2.212  15.059  0.4403  0.9300  0.3913
 6143TIP3    H239921   3.052   2.237  15.188  0.6457 -1.6947  0.8340
 6144TIP3   OH239922   6.438   4.337  17.217  0.1017 -0.5467 -0.0321
 6144TIP3    H139923   6.370   4.332  17.284  0.1826 -0.4593  0.0564
 6144TIP3    H239924   6.490   4.257  17.229 -0.9637 -1.4469 -1.1557
 6145TIP3   OH239925   4.150   0.887  12.159 -0.3568 -0.3629  0.6775
 6145TIP3    H139926   4.073   0.857  12.112 -0.8484  0.4560  0.9490
 6145TIP3    H239927   4.140   0.982  12.165  0.0908 -0.3683  1.7339
 6146TIP3   OH239928   1.382   5.338   5.008  0.7543  0.1213 -0.4794
 6146TIP3    H139929   1.365   5.369   4.919 -0.9099 -0.7129 -0.4875
 6146TIP3    H239930   1.301   5.354   5.055  0.8974 -1.3438  0.3296
 6147TIP3   OH239931   3.813   5.858  11.496 -0.0330 -0.3041  0.3143
 6147TIP3    H139932   3.854   5.876  11.412  0.4490  1.3795  0.8698
 6147TIP3    H239933   3.870   5.900  11.560 -0.0168 -2.1132  1.5838
 6148TIP3   OH239934   4.033   1.935   0.788 -0.1233  0.1914 -0.6132
 6148TIP3    H139935   3.939   1.918   0.796 -0.2440  1.3852  1.2891
 6148TIP3    H239936   4.040   2.009   0.728 -0.7218  2.0993  1.5233
 6149TIP3   OH239937   5.565   3.946  17.054 -0.2039  0.2852  0.2684
 6149TIP3    H139938   5.593   3.859  17.083 -0.1553  0.4687  0.7971
 6149TIP3    H239939   5.643   4.000  17.065  0.5934 -0.1534 -2.6283
 6150TIP3   OH239940   4.424   5.560  14.541 -0.0151 -0.2156  0.2468
 6150TIP3    H139941   4.397   5.625  14.606 -0.4732  0.1265 -0.2808
 6150TIP3    H239942   4.459   5.612  14.468 -1.0354 -0.5241 -0.4806
 6151TIP3   OH239943   6.069   5.688  14.189  0.2369  0.8421  0.3667
 6151TIP3    H139944   6.066   5.767  14.244  0.5350  2.1733 -1.4372
 6151TIP3    H239945   6.149   5.643  14.217  0.1972  1.2875  1.2638
 6152TIP3   OH239946   2.821   4.503  16.669 -0.1980  0.9075  0.6539
 6152TIP3    H139947   2.908   4.542  16.660  0.0114  0.2951 -0.1390
 6152TIP3    H239948   2.780   4.516  16.583 -1.1077  1.6810  1.1900
 6153TIP3   OH239949   4.831   0.158  14.529 -0.5748 -0.0998  0.0083
 6153TIP3    H139950   4.881   0.086  14.491  0.5480  0.9511 -0.5720
 6153TIP3    H239951   4.857   0.160  14.621  0.2411  0.2493 -0.2251
 6154TIP3   OH239952   5.485   0.428   5.315  0.5236  0.4364  0.8240
 6154TIP3    H139953   5.436   0.353   5.279 -0.4507  1.7763 -0.7813
 6154TIP3    H239954   5.436   0.453   5.393  0.5743 -0.2836  1.0949
 6155TIP3   OH239955   1.310   3.180  14.293 -0.1118  0.2322 -0.7807
 6155TIP3    H139956   1.354   3.122  14.231  0.5600  0.1016 -0.1867
 6155TIP3    H239957   1.381   3.223  14.340 -0.6208  0.2344 -0.0068
 6156TIP3   OH239958   5.714   2.720   1.847  0.1043 -0.6538 -0.2638
 6156TIP3    H139959   5.748   2.789   1.903  0.5827 -0.1540 -1.1499
 6156TIP3    H239960   5.787   2.658   1.838 -0.7409 -2.0077  1.6208
 6157TIP3   OH239961   2.902   2.512  13.715  0.0816  0.1377 -0.3768
 6157TIP3    H139962   2.821   2.510  13.664  0.2551 -1.1836 -0.6580
 6157TIP3    H239963   2.965   2.464  13.661  1.1713  1.4472 -0.3263
 6158TIP3   OH239964   5.231   2.121  15.036  0.1583 -0.3878  0.0387
 6158TIP3    H139965   5.323   2.096  15.037  1.1645  2.7205 -1.2488
 6158TIP3    H239966   5.203   2.111  14.945 -0.5734 -0.6904  0.2892
 6159TIP3   OH239967   6.232   4.585   0.966  0.0816  0.3217 -0.1721
 6159TIP3    H139968   6.162   4.630   1.015 -0.7729 -0.2569 -0.8469
 6159TIP3    H239969   6.229   4.624   0.879  1.2100  0.9222  0.0287
 6160TIP3   OH239970   6.595   0.808   0.458 -0.8928  0.1760 -0.2489
 6160TIP3    H139971   6.611   0.800   0.552  0.6681 -3.2291 -0.6581
 6160TIP3    H239972   6.565   0.721   0.431 -0.2919  0.7372 -3.0648
 6161TIP3   OH239973   0.886   3.670   2.658  0.0764  0.1446  0.2279
 6161TIP3    H139974   0.941   3.605   2.700  1.4327  1.8622  1.2238
 6161TIP3    H239975   0.943   3.712   2.593 -0.3238  1.2992  0.6014
 6162TIP3   OH239976   1.557   4.155  11.256  0.1713  0.3170 -0.1867
 6162TIP3    H139977   1.591   4.070  11.228 -1.2991  0.0183 -1.1622
 6162TIP3    H239978   1.635   4.208  11.273  1.1084 -0.7191 -1.1308
 6163TIP3   OH239979   3.782   0.163  16.600  0.4992 -0.3018  0.5392
 6163TIP3    H139980   3.719   0.092  16.591 -1.6048  1.5397 -0.1479
 6163TIP3    H239981   3.829   0.143  16.680  0.7266 -2.9765 -0.1605
 6164TIP3   OH239982   2.195   6.755   5.404 -0.5373  0.2911  0.0334
 6164TIP3    H139983   2.241   6.743   5.321 -0.1853  1.1038  0.0986
 6164TIP3    H239984   2.142   6.676   5.414  1.1125 -0.8438  0.1353
 6165TIP3   OH239985   2.719   2.902  16.307  0.2709  0.3471  0.6141
 6165TIP3    H139986   2.741   2.809  16.309  0.3318  0.3787  1.6424
 6165TIP3    H239987   2.799   2.945  16.278 -0.2293 -0.0341 -1.5389
 6166TIP3   OH239988   0.287   4.319   0.100 -0.6932 -0.5628 -0.1938
 6166TIP3    H139989   0.316   4.280   0.182  1.8313 -0.9195 -1.1577
 6166TIP3    H239990   0.348   4.392   0.086 -1.5191 -0.0794 -1.4009
 6167TIP3   OH239991   1.413   2.633   3.768  0.2216 -0.0123 -0.1243
 6167TIP3    H139992   1.485   2.660   3.826 -0.0473 -0.2142  0.3153
 6167TIP3    H239993   1.456   2.586   3.697  0.5441  0.0441  0.0295
 6168TIP3   OH239994   5.898   3.751   1.825  0.5226 -0.0425 -0.2324
 6168TIP3    H139995   5.926   3.738   1.734  1.5049  2.8172 -0.4095
 6168TIP3    H239996   5.866   3.841   1.828  0.6467 -0.0179  2.3135
 6169TIP3   OH239997   6.485   6.646   4.330  0.3914 -0.0918  0.0196
 6169TIP3    H139998   6.521   6.563   4.361  0.2074  0.5363  2.0278
 6169TIP3    H239999   6.400   6.622   4.292  1.1926 -1.0531 -1.2590
 6170TIP3   OH240000   5.247   4.535   5.544  0.2592 -0.0415  0.2407
 6170TIP3    H140001   5.343   4.540   5.542  0.2622 -0.2344 -0.7152
 6170TIP3    H240002   5.220   4.615   5.589  0.8436  0.6860 -0.6444
 6171TIP3   OH240003   3.789   2.531   5.117 -0.0265  0.1228 -0.1870
 6171TIP3    H140004   3.857   2.597   5.101 -0.3421  0.5482  0.2021
 6171TIP3    H240005   3.706   2.579   5.110 -0.3289 -0.5613 -1.4753
 6172TIP3   OH240006   6.086   3.746  11.196  0.1005 -0.8383  0.1283
 6172TIP3    H140007   6.102   3.656  11.222 -1.1069 -1.2391 -0.4533
 6172TIP3    H240008   6.114   3.751  11.105 -2.8301 -1.5673 -0.9297
 6173TIP3   OH240009   5.532   2.928   0.908 -0.0253  0.1049 -0.2300
 6173TIP3    H140010   5.594   2.875   0.958 -1.2634 -0.6240  0.5685
 6173TIP3    H240011   5.531   2.888   0.821  0.6601  0.1644 -0.2706
 6174TIP3   OH240012   3.475   5.592   5.012  0.1585 -0.3355  0.2745
 6174TIP3    H140013   3.534   5.663   4.988  0.3553 -0.0622  1.5349
 6174TIP3    H240014   3.400   5.635   5.053  1.2101 -0.9124  2.9855
 6175TIP3   OH240015   4.933   0.853   4.172  0.3897 -0.2342 -0.1523
 6175TIP3    H140016   4.841   0.826   4.178  0.1898 -0.2828 -2.5652
 6175TIP3    H240017   4.982   0.772   4.187  0.0663 -0.2429  0.9728
 6176TIP3   OH240018   6.467   2.514   5.316 -1.0789 -0.2213 -0.2335
 6176TIP3    H140019   6.398   2.575   5.342 -0.4950 -0.0254  0.9200
 6176TIP3    H240020   6.426   2.428   5.319 -1.4580 -0.0441 -0.2425
 6177TIP3   OH240021   2.076   3.613   5.950 -0.0535  0.1922 -0.5822
 6177TIP3    H140022   2.127   3.543   5.909  0.3749  0.7877 -1.0992
 6177TIP3    H240023   2.141   3.664   5.998 -0.6277 -0.8519  1.4083
 6178TIP3   OH240024   6.183   6.098  17.081 -0.2948 -0.7587  0.3210
 6178TIP3    H140025   6.206   6.075  16.991  0.1409 -1.3117  0.5726
 6178TIP3    H240026   6.115   6.035  17.106 -2.0453  0.7593 -0.3639
 6179TIP3   OH240027   2.144   1.588   1.679  0.3261  0.1206 -0.1662
 6179TIP3    H140028   2.195   1.551   1.751  0.5116  0.8611  0.0843
 6179TIP3    H240029   2.208   1.633   1.624  0.3557 -1.3304 -1.3970
 6180TIP3   OH240030   6.081   6.355  16.551  0.2079  0.6611  0.0442
 6180TIP3    H140031   6.168   6.389  16.571  1.1773 -1.4848 -0.2621
 6180TIP3    H240032   6.028   6.377  16.627  1.1692  1.4429  0.5098
 6181TIP3   OH240033   3.754   6.271  13.569 -0.6613  0.3720  0.0143
 6181TIP3    H140034   3.748   6.334  13.498  1.6969 -0.2845 -0.8520
 6181TIP3    H240035   3.816   6.310  13.631 -0.5259 -0.2891  0.3145
 6182TIP3   OH240036   0.525   4.628   4.390 -0.4653 -0.5993  0.1260
 6182TIP3    H140037   0.479   4.545   4.407  1.2988 -1.3622  1.5728
 6182TIP3    H240038   0.596   4.603   4.331  0.6776 -0.3502  1.3639
 6183TIP3   OH240039   5.229   5.963   3.927  0.3037 -0.1694  0.3181
 6183TIP3    H140040   5.286   5.888   3.908  1.4151  0.9308 -0.9432
 6183TIP3    H240041   5.149   5.924   3.961  0.5351 -1.9971 -1.0318
 6184TIP3   OH240042   4.182   6.056  12.974 -0.2072  0.5082  0.6691
 6184TIP3    H140043   4.111   6.015  12.925 -2.3187  2.8350  1.5459
 6184TIP3    H240044   4.167   6.028  13.065  0.5916  0.2931  0.7434
 6185TIP3   OH240045   4.131   0.318  16.530 -0.0704 -0.6994 -0.3554
 6185TIP3    H140046   4.115   0.226  16.550 -1.3276 -0.5884 -0.7716
 6185TIP3    H240047   4.165   0.318  16.440 -0.5664 -0.7260 -0.5459
 6186TIP3   OH240048   0.192   3.735  12.966 -0.2554 -0.5617  0.0361
 6186TIP3    H140049   0.275   3.751  13.011 -0.4126  1.0309 -0.1821
 6186TIP3    H240050   0.156   3.822  12.950 -2.1466 -1.2313  0.4288
 6187TIP3   OH240051   6.419   6.238  10.774  0.5462  0.4149  1.1739
 6187TIP3    H140052   6.416   6.174  10.703 -1.1773  0.4352  1.1838
 6187TIP3    H240053   6.492   6.296  10.751  1.3299 -0.7899  0.5198
 6188TIP3   OH240054   2.164   6.611   5.967 -0.0030  0.4962 -0.7839
 6188TIP3    H140055   2.226   6.653   6.027 -1.3637  1.4972 -0.0059
 6188TIP3    H240056   2.184   6.650   5.882 -0.4389  1.8710 -0.2897
 6189TIP3   OH240057   1.520   4.098   4.456  0.3114 -0.0798  0.3625
 6189TIP3    H140058   1.608   4.133   4.466 -0.4936  2.0388  0.4842
 6189TIP3    H240059   1.494   4.122   4.367  0.4169 -2.1418 -0.2809
 6190TIP3   OH240060   2.331   3.694  11.846  0.5883 -0.0513 -0.3409
 6190TIP3    H140061   2.320   3.633  11.919 -0.4913  0.0330 -0.4249
 6190TIP3    H240062   2.277   3.659  11.776  0.0110  0.9437 -0.4188
 6191TIP3   OH240063   4.919   1.793  10.322 -0.0196  0.5332 -0.1237
 6191TIP3    H140064   4.839   1.801  10.374  0.2438 -0.4693  0.4663
 6191TIP3    H240065   4.968   1.722  10.364  0.9259  0.7563 -0.8105
 6192TIP3   OH240066   2.336   3.936  11.640  0.0184 -0.0649  0.2861
 6192TIP3    H140067   2.323   4.030  11.636  1.5262  0.1704  0.3101
 6192TIP3    H240068   2.374   3.921  11.726 -0.7002 -0.7786  0.4929
 6193TIP3   OH240069   6.292   3.858  16.279 -0.1414  0.3624 -0.0987
 6193TIP3    H140070   6.336   3.943  16.270  1.8793 -0.7351 -1.2057
 6193TIP3    H240071   6.260   3.839  16.191 -1.2481  0.2893  0.3109
 6194TIP3   OH240072   6.786   0.021  14.205  0.0717 -0.7441  0.1209
 6194TIP3    H140073   6.860  -0.026  14.167  1.2212  0.0221  1.3275
 6194TIP3    H240074   6.800   0.017  14.299 -0.0469  1.5369  0.3004
 6195TIP3   OH240075   3.615   0.557  11.716  0.1578 -0.9466  0.0236
 6195TIP3    H140076   3.681   0.488  11.723 -0.1185 -1.5010 -2.1470
 6195TIP3    H240077   3.580   0.565  11.805  2.7056 -1.0184  1.1052
 6196TIP3   OH240078   3.419   0.793  12.391  0.0831  0.4284  0.2339
 6196TIP3    H140079   3.484   0.845  12.440  0.9120  0.2539 -0.6467
 6196TIP3    H240080   3.465   0.711  12.370 -0.0771  0.6893 -1.2460
 6197TIP3   OH240081   4.653   0.845  14.733  0.0797  1.0313 -0.6947
 6197TIP3    H140082   4.657   0.928  14.685 -1.3309  1.4584 -0.1313
 6197TIP3    H240083   4.575   0.802  14.698  0.5666  0.1181 -0.6838
 6198TIP3   OH240084   0.934   2.755   2.419 -1.1160 -0.2556 -0.6197
 6198TIP3    H140085   0.969   2.789   2.337  0.5336 -1.9194 -0.6641
 6198TIP3    H240086   0.937   2.831   2.479  0.2496  0.3039 -1.3448
 6199TIP3   OH240087   4.009   5.618  15.753 -0.2832  0.2419  0.3806
 6199TIP3    H140088   4.015   5.540  15.698  0.1616  0.2908  0.3572
 6199TIP3    H240089   3.947   5.594  15.821 -1.6540  0.5348 -0.7232
 6200TIP3   OH240090   4.352   6.772  14.932  0.1077  0.2413  0.0973
 6200TIP3    H140091   4.319   6.797  14.845  0.9270  4.2964  0.7739
 6200TIP3    H240092   4.443   6.800  14.932 -0.0828  1.0908  2.4930
 6201TIP3   OH240093   0.207   2.620  14.689  0.2239 -0.0125  0.6291
 6201TIP3    H140094   0.229   2.584  14.603  0.6699  0.1250  0.6822
 6201TIP3    H240095   0.112   2.633  14.686  0.4474  1.5711 -0.4493
 6202TIP3   OH240096   5.545   5.252   1.677 -0.0156 -0.3367 -0.1578
 6202TIP3    H140097   5.476   5.187   1.688 -0.4841  0.2572  0.4519
 6202TIP3    H240098   5.501   5.336   1.689  0.2411  0.1998 -2.5694
 6203TIP3   OH240099   4.726   3.712  14.013 -0.5150  0.1920 -0.2383
 6203TIP3    H140100   4.782   3.739  14.086 -0.9950  1.0966 -0.1900
 6203TIP3    H240101   4.785   3.667  13.953 -0.0150 -0.1107  0.4742
 6204TIP3   OH240102   4.585   5.120  15.706 -0.7031  0.0642  0.3198
 6204TIP3    H140103   4.593   5.026  15.695  0.1766  0.2089 -0.3360
 6204TIP3    H240104   4.516   5.146  15.645 -0.8189 -0.1189  0.3708
 6205TIP3   OH240105   1.997   6.578  17.178  0.3737 -0.4508  0.5517
 6205TIP3    H140106   1.942   6.630  17.237  1.1969  0.1463  0.7992
 6205TIP3    H240107   1.954   6.492  17.176 -1.9290  0.6345 -1.1430
 6206TIP3   OH240108   5.909   5.524  11.020  0.2812 -0.1922 -0.0431
 6206TIP3    H140109   5.917   5.450  10.959  1.3979 -0.0207 -0.1081
 6206TIP3    H240110   5.928   5.601  10.967  1.4471 -0.0559  0.5614
 6207TIP3   OH240111   0.586   0.495  12.327  0.0836  0.1205 -0.3770
 6207TIP3    H140112   0.522   0.566  12.316  0.5107  0.4017 -1.0627
 6207TIP3    H240113   0.533   0.419  12.351 -0.6886 -0.0388 -2.4028
 6208TIP3   OH240114   5.104   3.506  10.463 -0.8772  0.4764  0.2029
 6208TIP3    H140115   5.102   3.554  10.546 -0.3131  0.8028  0.0361
 6208TIP3    H240116   5.015   3.475  10.451 -0.8498 -0.0038  1.1813
 6209TIP3   OH240117   1.773   0.195  13.733 -0.1273 -0.7029  0.3401
 6209TIP3    H140118   1.820   0.203  13.816 -2.3088  0.0893  1.5810
 6209TIP3    H240119   1.704   0.131  13.750  0.0312 -1.3258 -1.2015
 6210TIP3   OH240120   3.831   4.719   4.504  0.5598 -0.0314 -0.3271
 6210TIP3    H140121   3.816   4.719   4.599  0.2140  0.2148 -0.3801
 6210TIP3    H240122   3.920   4.686   4.494  1.1450  1.3147  0.1830
 6211TIP3   OH240123   0.659   2.628  16.393  0.2528 -0.1934 -0.2307
 6211TIP3    H140124   0.637   2.684  16.319  0.2728 -0.1141 -0.1755
 6211TIP3    H240125   0.747   2.655  16.419  0.2539 -0.2356 -0.1897
 6212TIP3   OH240126   4.260   3.362   5.080  0.1320 -0.4940  0.2772
 6212TIP3    H140127   4.189   3.297   5.083 -0.4353  0.0140 -1.2146
 6212TIP3    H240128   4.239   3.417   5.004  0.1957  1.9197  1.8946
 6213TIP3   OH240129   3.223   5.324   4.258  0.6172 -0.0433 -0.1231
 6213TIP3    H140130   3.135   5.292   4.239  0.1313  1.0325  0.2721
 6213TIP3    H240131   3.227   5.329   4.353  1.0406  0.1100 -0.1450
 6214TIP3   OH240132   3.043   2.557  16.425  0.1667  0.2937  0.3645
 6214TIP3    H140133   3.108   2.526  16.362 -0.0125  0.1435  0.2528
 6214TIP3    H240134   3.014   2.478  16.470  0.4596  0.4303  0.7931
 6215TIP3   OH240135   4.227   2.599   3.952  0.6034 -0.5394  0.9181
 6215TIP3    H140136   4.234   2.650   3.872  2.1344 -0.0761  1.3028
 6215TIP3    H240137   4.179   2.655   4.013 -0.4911 -0.8619  0.3799
 6216TIP3   OH240138   4.874   5.795  15.645  0.3206  0.0113  0.2377
 6216TIP3    H140139   4.801   5.779  15.705  0.7322 -0.9562  0.5045
 6216TIP3    H240140   4.902   5.707  15.619 -0.7001  0.3987 -2.4454
 6217TIP3   OH240141   5.497   1.671  15.693  0.2840  0.2138  0.4068
 6217TIP3    H140142   5.476   1.620  15.615  1.4369 -0.3349  0.4306
 6217TIP3    H240143   5.592   1.665  15.701  0.1995  0.3204  1.8106
 6218TIP3   OH240144   3.142   6.730   3.957  0.2620 -0.1101 -0.2027
 6218TIP3    H140145   3.110   6.728   3.867 -0.6455  1.1695  0.0502
 6218TIP3    H240146   3.201   6.805   3.960 -0.6314  0.5916  0.5231
 6219TIP3   OH240147   1.594   3.213  14.751  0.0284 -0.1488 -0.2214
 6219TIP3    H140148   1.637   3.151  14.692 -0.8452 -0.0560 -0.9761
 6219TIP3    H240149   1.507   3.227  14.713 -0.2080  0.6580  0.5640
 6220TIP3   OH240150   5.405   5.309  12.671  0.1206  0.1354 -0.3124
 6220TIP3    H140151   5.350   5.240  12.635 -0.0074  0.2264 -0.2892
 6220TIP3    H240152   5.404   5.294  12.766  1.2033 -0.6721 -0.4024
 6221TIP3   OH240153   2.233   5.245  13.524 -0.3653  0.6071 -0.6202
 6221TIP3    H140154   2.243   5.321  13.467 -1.9671  0.8956 -0.5460
 6221TIP3    H240155   2.256   5.276  13.611 -2.2479  1.3916 -0.3635
 6222TIP3   OH240156   4.574   2.761   4.736  0.0564 -0.5996  0.3607
 6222TIP3    H140157   4.513   2.741   4.664 -0.1752  1.0100  0.0813
 6222TIP3    H240158   4.619   2.678   4.752  0.6286 -0.8620 -2.1373
 6223TIP3   OH240159   0.398   3.691  15.585  0.1006  0.3139  0.7730
 6223TIP3    H140160   0.374   3.761  15.525 -2.4838 -0.4884  0.7302
 6223TIP3    H240161   0.396   3.611  15.531  1.0401 -0.0384  1.2363
 6224TIP3   OH240162   5.217   5.834   3.343 -0.3675 -0.0452  0.4439
 6224TIP3    H140163   5.235   5.912   3.290 -0.6534 -1.1775 -1.4343
 6224TIP3    H240164   5.279   5.768   3.310 -1.2309 -1.0792  0.8350
 6225TIP3   OH240165   3.225   4.178  14.938 -0.0755 -0.0712  0.1285
 6225TIP3    H140166   3.154   4.134  14.983  0.0780  0.3189  0.7604
 6225TIP3    H240167   3.236   4.129  14.856 -1.3139  0.1020 -0.1545
 6226TIP3   OH240168   6.276   3.693   2.942  0.5098 -0.3283  1.1813
 6226TIP3    H140169   6.250   3.602   2.957  0.8054 -0.4760  0.8297
 6226TIP3    H240170   6.331   3.715   3.017  1.2925 -0.7865  0.7629
 6227TIP3   OH240171   5.806   1.510  17.116 -0.0270  0.0375 -0.4284
 6227TIP3    H140172   5.878   1.504  17.053  1.3792  1.0910  0.9891
 6227TIP3    H240173   5.783   1.603  17.119 -1.7482 -0.3258 -1.1280
 6228TIP3   OH240174   1.960   3.835  16.082  0.5569  0.1219  0.4625
 6228TIP3    H140175   1.912   3.887  16.147  0.3726  1.7634 -0.9025
 6228TIP3    H240176   2.044   3.815  16.123 -0.2014 -0.3828  1.8281
 6229TIP3   OH240177   5.483   3.753   4.338  0.5925 -0.3156  0.1056
 6229TIP3    H140178   5.388   3.756   4.350  0.6467  2.1790  0.4382
 6229TIP3    H240179   5.495   3.733   4.246 -0.2489 -0.3153 -0.0154
 6230TIP3   OH240180   3.722   4.260   5.166 -0.4124 -0.4148 -0.2485
 6230TIP3    H140181   3.644   4.307   5.196  0.5089  0.4549  0.8317
 6230TIP3    H240182   3.766   4.321   5.107  0.2462 -0.3164  0.3411
 6231TIP3   OH240183   3.573   4.723   4.681  0.4835 -0.2666 -0.6057
 6231TIP3    H140184   3.513   4.653   4.707  1.7333 -1.5091 -0.9652
 6231TIP3    H240185   3.520   4.779   4.624 -0.8005 -0.3892  0.4034
 6232TIP3   OH240186   0.798   6.295  11.357 -0.1088  0.2796 -0.3581
 6232TIP3    H140187   0.722   6.246  11.328 -0.2807  0.4305 -0.1617
 6232TIP3    H240188   0.873   6.239  11.334 -0.2849  0.0662 -0.4133
 6233TIP3   OH240189   0.049   1.862   1.762  0.2136  0.6590  0.3810
 6233TIP3    H140190   0.139   1.847   1.791  0.8090  0.0742 -1.6302
 6233TIP3    H240191   0.019   1.936   1.815  1.3214 -0.0960  2.1628
 6234TIP3   OH240192   0.772   6.357  16.590 -0.1032 -0.8616  0.6620
 6234TIP3    H140193   0.809   6.359  16.502 -0.7274 -1.1580  0.3845
 6234TIP3    H240194   0.772   6.448  16.619 -3.0507 -0.1803 -1.0079
 6235TIP3   OH240195   2.763   3.529  13.362 -0.2346 -0.1511  0.2388
 6235TIP3    H140196   2.780   3.623  13.370  0.1224 -0.1163 -0.7529
 6235TIP3    H240197   2.846   3.492  13.331 -1.1419 -0.3733 -2.1284
 6236TIP3   OH240198   0.641   6.817  13.568  0.3457 -0.0037 -0.1453
 6236TIP3    H140199   0.596   6.760  13.630 -0.5838  0.6959 -0.1529
 6236TIP3    H240200   0.723   6.772  13.549  0.7972 -0.0791  1.8236
 6237TIP3   OH240201   4.829   3.305   4.613 -0.3744  0.1146 -0.2566
 6237TIP3    H140202   4.915   3.265   4.604  0.5999  2.1979 -0.7144
 6237TIP3    H240203   4.772   3.252   4.557  0.5461 -1.3606  0.1406
 6238TIP3   OH240204   4.485   3.985   5.356 -0.5531  0.2525  0.4854
 6238TIP3    H140205   4.555   3.962   5.295 -0.1379  0.0781  1.0271
 6238TIP3    H240206   4.438   4.056   5.312  0.1950  0.6392  0.2944
 6239TIP3   OH240207   4.567   2.598   4.405 -0.2214  0.9573  0.4859
 6239TIP3    H140208   4.538   2.549   4.328  0.9916 -1.7554  1.6453
 6239TIP3    H240209   4.490   2.605   4.460 -0.0278 -1.4634  1.1586
 6240TIP3   OH240210   0.585   6.232   3.539 -0.5006  0.1910 -0.1767
 6240TIP3    H140211   0.590   6.172   3.614 -1.5475 -1.8028 -1.5923
 6240TIP3    H240212   0.492   6.252   3.531 -0.3319  0.7936 -0.6516
 6241TIP3   OH240213   4.562   1.761  14.865  0.3411  0.4907  0.1845
 6241TIP3    H140214   4.547   1.668  14.881  1.9412  0.3931  1.4695
 6241TIP3    H240215   4.512   1.806  14.933 -0.2039  0.5593 -0.2596
 6242TIP3   OH240216   3.222   0.557  11.723 -0.2672  0.1602 -0.0221
 6242TIP3    H140217   3.166   0.565  11.646  0.6795 -1.4669 -0.9516
 6242TIP3    H240218   3.223   0.644  11.761  0.1519  1.3479 -2.5258
 6243TIP3   OH240219   0.276   5.786   0.627  0.1100 -0.7920  0.4060
 6243TIP3    H140220   0.306   5.786   0.718  0.0945 -1.4278  0.4153
 6243TIP3    H240221   0.340   5.840   0.580  1.1481 -1.9306  0.4712
 6244TIP3   OH240222   4.582   3.548   1.424  0.0374  0.0989 -0.3390
 6244TIP3    H140223   4.587   3.550   1.520  1.0814  0.7276 -0.3967
 6244TIP3    H240224   4.631   3.624   1.395  0.7357 -0.7189 -1.4088
 6245TIP3   OH240225   4.452   5.458   5.112 -0.3274 -0.0854 -0.1821
 6245TIP3    H140226   4.446   5.544   5.069 -0.5154  0.6292  1.2082
 6245TIP3    H240227   4.528   5.466   5.169 -0.6800 -0.6533  0.3739
 6246TIP3   OH240228   4.585   2.370  14.865  0.4270  0.2468 -0.2463
 6246TIP3    H140229   4.495   2.363  14.896  0.9498 -0.4643  1.1913
 6246TIP3    H240230   4.599   2.291  14.812 -0.2126  1.0611 -1.6815
 6247TIP3   OH240231   5.209   0.925  15.570 -0.7577 -0.8999  0.3201
 6247TIP3    H140232   5.286   0.870  15.554 -1.6871 -1.7366 -1.7990
 6247TIP3    H240233   5.177   0.947  15.482 -1.6537  1.3229  1.1298
 6248TIP3   OH240234   2.745   4.316   2.499 -0.1131 -0.3059  0.0845
 6248TIP3    H140235   2.781   4.359   2.576 -0.2008  0.4393 -0.2798
 6248TIP3    H240236   2.740   4.385   2.433 -1.8507 -0.4437  0.0021
 6249TIP3   OH240237   5.097   5.694  16.432 -0.0800 -0.1591  0.0788
 6249TIP3    H140238   5.076   5.614  16.481  0.4755 -1.3836 -1.5608
 6249TIP3    H240239   5.154   5.743  16.490 -0.3827 -0.9898  1.1157
 6250TIP3   OH240240   2.560   4.878   1.599 -0.6515 -0.2872 -0.6058
 6250TIP3    H140241   2.538   4.887   1.506 -0.5324 -1.5564 -0.7714
 6250TIP3    H240242   2.652   4.904   1.604 -0.5550 -0.5522 -0.9132
 6251TIP3   OH240243   5.976   3.936  12.948  0.1469  0.1977  0.6523
 6251TIP3    H140244   5.895   3.977  12.980 -1.2266 -0.4024 -1.8421
 6251TIP3    H240245   6.025   4.008  12.909  0.4565  0.4128  1.4127
 6252TIP3   OH240246   2.889   5.672  11.332 -0.3117 -0.4152 -0.5472
 6252TIP3    H140247   2.959   5.609  11.348  0.9417  0.7378 -1.2619
 6252TIP3    H240248   2.926   5.756  11.359 -1.9524  0.0525  0.4304
 6253TIP3   OH240249   6.119   4.435   3.280  0.1307 -0.1376  0.4652
 6253TIP3    H140250   6.076   4.350   3.284  0.2874 -0.1792  2.2672
 6253TIP3    H240251   6.051   4.496   3.251 -0.1005 -0.7927 -0.3891
 6254TIP3   OH240252   5.773   2.365  11.187  0.6305 -0.2372  0.2814
 6254TIP3    H140253   5.732   2.450  11.205  1.3191  0.1496  0.0471
 6254TIP3    H240254   5.700   2.303  11.188  0.3597  0.0432  2.4089
 6255TIP3   OH240255   3.905   3.242  11.298  0.1481 -0.7075 -0.4074
 6255TIP3    H140256   3.934   3.197  11.218  2.4321 -2.2633  1.1868
 6255TIP3    H240257   3.905   3.174  11.365 -0.6447  0.7876  1.1652
 6256TIP3   OH240258   6.075   1.680   2.004 -0.3014 -0.3400  0.4424
 6256TIP3    H140259   6.125   1.762   2.000 -1.4014  0.4632  1.9887
 6256TIP3    H240260   6.128   1.622   2.058 -0.1950 -0.1252  0.5700
 6257TIP3   OH240261   3.874   4.311   5.449 -0.7648 -0.1157 -0.0480
 6257TIP3    H140262   3.835   4.304   5.362  0.2988 -0.5996 -0.5105
 6257TIP3    H240263   3.955   4.260   5.443  0.0551  1.0350  0.7918
 6258TIP3   OH240264   1.497   6.047   1.048 -0.2990 -0.4087  0.1851
 6258TIP3    H140265   1.450   6.036   1.131  0.7794 -1.8438  0.6487
 6258TIP3    H240266   1.439   6.101   0.994 -0.7611  1.0589  2.0645
 6259TIP3   OH240267   5.651   3.162  16.519 -0.1256 -0.0910  0.5109
 6259TIP3    H140268   5.659   3.177  16.614  1.4226  0.0464  0.3901
 6259TIP3    H240269   5.590   3.088  16.511  1.1309 -1.3249  1.7311
 6260TIP3   OH240270   0.945   4.384  16.393  0.0480  0.0292  0.0749
 6260TIP3    H140271   0.932   4.476  16.417 -2.4687 -0.0809 -0.5574
 6260TIP3    H240272   1.010   4.387  16.323 -0.7886  1.4870 -0.6962
 6261TIP3   OH240273   2.167   4.599   1.889  0.1224  0.2316  0.4856
 6261TIP3    H140274   2.086   4.560   1.922 -0.9487  0.5565 -1.5545
 6261TIP3    H240275   2.197   4.539   1.821  1.9572 -0.1704  1.5761
 6262TIP3   OH240276   1.726   0.188   6.124 -0.0674  0.1868  1.2767
 6262TIP3    H140277   1.711   0.103   6.164 -0.7588  0.0763  0.8054
 6262TIP3    H240278   1.653   0.243   6.155 -1.9322 -0.5035 -1.4521
 6263TIP3   OH240279   1.926   0.530  14.486 -0.4506 -0.5511 -0.3469
 6263TIP3    H140280   1.873   0.575  14.420  0.1377 -0.9859 -1.1350
 6263TIP3    H240281   2.017   0.546  14.459 -0.2143 -1.1865  0.0486
 6264TIP3   OH240282   5.636   0.070   3.759 -0.0775 -0.6647 -0.0819
 6264TIP3    H140283   5.711   0.047   3.813  1.2877  1.6533 -0.8519
 6264TIP3    H240284   5.617   0.161   3.782 -1.3031 -0.5283 -1.4644
 6265TIP3   OH240285   3.676   2.466  11.980  0.3525  0.5227  0.3184
 6265TIP3    H140286   3.660   2.558  11.999  1.0773  0.6926  0.1066
 6265TIP3    H240287   3.601   2.439  11.927  0.8009  1.3432 -0.7548
 6266TIP3   OH240288   6.334   1.583  17.262  0.1502  0.2921  1.1557
 6266TIP3    H140289   6.328   1.494  17.296 -2.2020  0.9864  2.8317
 6266TIP3    H240290   6.287   1.581  17.179 -1.6887  0.2854  2.1278
 6267TIP3   OH240291   2.846   4.933  11.994 -0.5626  0.2828  0.0337
 6267TIP3    H140292   2.840   5.018  12.038 -1.9913  0.1748  0.0830
 6267TIP3    H240293   2.861   4.871  12.066  0.5581  0.4696 -0.0097
 6268TIP3   OH240294   5.488   1.298   5.820  0.2032 -0.2133  0.2531
 6268TIP3    H140295   5.522   1.218   5.861  0.1191 -0.4388 -0.1142
 6268TIP3    H240296   5.556   1.324   5.758 -0.0569 -0.3696 -0.1015
 6269TIP3   OH240297   0.017   5.532   2.013  0.2332  0.4601 -0.0988
 6269TIP3    H140298  -0.014   5.526   1.923  1.5654 -0.7112 -0.5247
 6269TIP3    H240299   0.113   5.529   2.006  0.3550  0.0367  1.3615
 6270TIP3   OH240300   1.859   1.042  12.046 -0.2082 -0.2911  0.4270
 6270TIP3    H140301   1.768   1.070  12.037  0.4484  1.4567 -1.4334
 6270TIP3    H240302   1.878   0.993  11.966  0.4755 -0.7670  0.8581
 6271TIP3   OH240303   4.670   4.646  12.010 -0.0566  0.4485  0.4535
 6271TIP3    H140304   4.740   4.614  11.954 -0.6118  0.0428 -0.0209
 6271TIP3    H240305   4.597   4.663  11.950 -0.2031  1.3504  0.8697
 6272TIP3   OH240306   3.827   0.179  10.669  0.1884 -0.4491  0.6113
 6272TIP3    H140307   3.774   0.225  10.604  1.4248 -1.4335 -1.1939
 6272TIP3    H240308   3.875   0.113  10.618  0.8771 -1.5777  2.6145
 6273TIP3   OH240309   3.380   0.839  14.154 -0.2228 -0.3028  0.1191
 6273TIP3    H140310   3.317   0.824  14.224  1.6086 -2.8205  1.4058
 6273TIP3    H240311   3.352   0.781  14.083 -0.2983 -0.1805  0.0502
 6274TIP3   OH240312   6.532   2.303   1.608 -0.1855  0.4616  0.3155
 6274TIP3    H140313   6.624   2.278   1.617 -0.2928  0.2137  0.7273
 6274TIP3    H240314   6.534   2.393   1.577  0.1934  1.0849  2.0510
 6275TIP3   OH240315   6.020   1.795  16.832  0.1145  0.3623  0.3155
 6275TIP3    H140316   6.012   1.890  16.825 -0.5565  0.3281  0.5574
 6275TIP3    H240317   6.098   1.773  16.780  0.6537  1.1132  0.7888
 6276TIP3   OH240318   4.251   5.217   1.100  0.1862 -0.1409  0.4797
 6276TIP3    H140319   4.270   5.126   1.124 -1.8509 -0.3690  1.4328
 6276TIP3    H240320   4.328   5.266   1.129  0.8988 -1.4341  0.8433
 6277TIP3   OH240321   4.491   0.616  12.920 -0.5647  0.6710  0.0560
 6277TIP3    H140322   4.535   0.624  12.836  1.0549 -0.1323  0.7705
 6277TIP3    H240323   4.519   0.694  12.969 -0.1594  0.3196  0.4004
 6278TIP3   OH240324   2.556   0.817  14.185 -0.2097 -0.3406 -0.0612
 6278TIP3    H140325   2.516   0.886  14.133  1.4005 -0.4028 -1.4701
 6278TIP3    H240326   2.633   0.858  14.224 -1.4035 -0.2643  2.4634
 6279TIP3   OH240327   1.670   4.720  11.942  0.2222 -0.3851  0.3373
 6279TIP3    H140328   1.601   4.685  11.999  0.2869  0.6084  1.0391
 6279TIP3    H240329   1.674   4.813  11.963 -1.0867  0.4844 -2.6270
 6280TIP3   OH240330   3.891   4.469  15.215  0.0688 -0.1789 -0.5909
 6280TIP3    H140331   3.954   4.436  15.152  1.9307  2.1222 -0.0634
 6280TIP3    H240332   3.944   4.498  15.289 -1.6343  1.4314  0.0779
 6281TIP3   OH240333   5.819   2.029  16.695  0.3076 -0.3304 -0.5699
 6281TIP3    H140334   5.795   1.943  16.662  0.6373 -0.7015  0.1409
 6281TIP3    H240335   5.753   2.088  16.659 -2.3785 -1.4553  2.1351
 6282TIP3   OH240336   2.696   6.798   0.759  0.0530 -0.0262  0.1647
 6282TIP3    H140337   2.713   6.784   0.666 -0.4940 -0.4501  0.1261
 6282TIP3    H240338   2.657   6.886   0.763  0.6343  0.2401  0.0655
 6283TIP3   OH240339   2.608   3.386   0.187 -0.1092 -0.5651 -0.0634
 6283TIP3    H140340   2.682   3.350   0.139 -0.2302 -1.5683  0.4877
 6283TIP3    H240341   2.632   3.376   0.279 -0.3969  0.2566  0.1151
 6284TIP3   OH240342   4.160   0.547   1.426  0.7226 -0.3017  0.3156
 6284TIP3    H140343   4.146   0.503   1.343  0.5134 -0.1527  0.2722
 6284TIP3    H240344   4.073   0.575   1.454  0.8517  0.0689  0.3508
 6285TIP3   OH240345   5.982   2.016   3.615 -0.0430 -0.2874  0.5758
 6285TIP3    H140346   5.958   2.045   3.526  1.5061  0.4323  0.3581
 6285TIP3    H240347   5.902   1.976   3.649  0.2149 -4.0075 -2.4663
 6286TIP3   OH240348   4.928   4.869  14.766 -0.2541 -0.0828  0.1489
 6286TIP3    H140349   4.962   4.877  14.676 -1.4941  0.8580 -0.2671
 6286TIP3    H240350   4.839   4.904  14.761 -0.5477 -0.5500  1.6384
 6287TIP3   OH240351   3.534   2.381  16.134 -0.0004  0.2322 -0.3875
 6287TIP3    H140352   3.520   2.407  16.043  0.5800 -0.1894 -0.6053
 6287TIP3    H240353   3.476   2.306  16.147  0.5827 -0.2789 -0.6909
 6288TIP3   OH240354   6.596   5.496   2.096  0.0080  0.3373 -0.0147
 6288TIP3    H140355   6.689   5.503   2.073  0.6942 -1.9378  1.6160
 6288TIP3    H240356   6.579   5.571   2.153  1.5196 -0.3746  1.4606
 6289TIP3   OH240357   1.865   3.220   2.837  0.6303  0.8354 -0.6663
 6289TIP3    H140358   1.920   3.279   2.888  1.0986 -1.2218  1.3569
 6289TIP3    H240359   1.776   3.239   2.866  0.7184  0.9270 -0.4552
 6290TIP3   OH240360   5.586   6.359   3.836 -0.5219  0.3171  0.0534
 6290TIP3    H140361   5.598   6.318   3.750  0.5932 -1.3122  0.9471
 6290TIP3    H240362   5.499   6.331   3.863 -0.0819 -0.8831  0.3101
 6291TIP3   OH240363   4.996   0.012   5.493  0.6590  0.2020  0.3714
 6291TIP3    H140364   5.010  -0.069   5.442 -1.7407 -0.0435 -0.0383
 6291TIP3    H240365   5.018   0.082   5.432  0.9915 -0.1218  0.1080
 6292TIP3   OH240366   4.223   2.747   4.877 -0.2147 -0.6394  0.7740
 6292TIP3    H140367   4.276   2.748   4.798 -0.3111  1.7144  0.6634
 6292TIP3    H240368   4.285   2.725   4.947  0.3971 -0.3573  0.3312
 6293TIP3   OH240369   0.516   6.683  14.576 -0.3303 -0.1405 -0.2341
 6293TIP3    H140370   0.457   6.622  14.532 -0.5182 -0.7318  0.7962
 6293TIP3    H240371   0.602   6.668  14.537 -0.3630 -1.1128  0.0561
 6294TIP3   OH240372   6.071   1.711   2.725  0.1428  0.9075 -0.0106
 6294TIP3    H140373   5.978   1.719   2.705 -0.3634 -0.6909  1.4069
 6294TIP3    H240374   6.107   1.658   2.653 -0.4789 -0.1132  0.4095
 6295TIP3   OH240375   2.215   2.521   6.603 -0.2457 -0.4391  0.2444
 6295TIP3    H140376   2.235   2.483   6.517  0.3586  0.3783  0.0110
 6295TIP3    H240377   2.231   2.615   6.592  1.3508 -0.4834  1.6661
 6296TIP3   OH240378   1.259   5.839   4.332  0.5563  0.3827  0.0756
 6296TIP3    H140379   1.222   5.920   4.368  0.8539  0.7266 -0.3844
 6296TIP3    H240380   1.183   5.788   4.306  0.3420  0.1930  1.0543
 6297TIP3   OH240381   5.435   0.640  12.565  0.0063 -0.6028 -0.5155
 6297TIP3    H140382   5.401   0.563  12.520 -0.8175 -0.0981 -0.7908
 6297TIP3    H240383   5.386   0.644  12.647  0.2201 -0.5105 -0.3900
 6298TIP3   OH240384   5.991   4.745  14.028  0.9610 -0.0558 -0.1347
 6298TIP3    H140385   5.916   4.802  14.009  0.3089 -0.9195 -0.2356
 6298TIP3    H240386   5.977   4.718  14.119  1.3436  0.0628 -0.0411
 6299TIP3   OH240387   0.166   4.204  14.213 -0.6370 -0.3020  0.9444
 6299TIP3    H140388   0.237   4.169  14.159  1.7541  0.5433  3.3129
 6299TIP3    H240389   0.091   4.149  14.192  0.8665 -1.6755 -1.2295
 6300TIP3   OH240390   5.848   5.369  16.594  0.1187 -0.2172 -0.6916
 6300TIP3    H140391   5.789   5.381  16.519 -0.3696 -0.1970 -0.3101
 6300TIP3    H240392   5.852   5.274  16.605 -1.8697 -0.1985  0.8303
 6301TIP3   OH240393   1.988   6.568   5.414 -0.1168  0.6077 -0.9114
 6301TIP3    H140394   1.975   6.480   5.376  0.1092 -0.2943  0.9815
 6301TIP3    H240395   1.914   6.619   5.382 -0.7906 -0.5550 -1.2873
 6302TIP3   OH240396   2.156   5.864   3.721  0.1903 -0.0125 -0.1141
 6302TIP3    H140397   2.133   5.777   3.688  0.6367  0.2047 -1.0151
 6302TIP3    H240398   2.251   5.864   3.726  0.3249  0.9924 -1.8085
 6303TIP3   OH240399   6.252   0.408  10.771  0.5914 -0.4062  0.3469
 6303TIP3    H140400   6.192   0.480  10.749 -0.7294 -1.3967  0.5836
 6303TIP3    H240401   6.325   0.451  10.816 -1.0100  0.6423  2.1263
 6304TIP3   OH240402   6.508   2.921   2.002  0.1072 -0.0238 -0.2012
 6304TIP3    H140403   6.597   2.912   2.036  0.5624  0.7577 -1.1520
 6304TIP3    H240404   6.460   2.849   2.043  1.2265 -0.6072  0.1316
 6305TIP3   OH240405   1.692   5.007  14.313 -0.5001  0.1743  0.0015
 6305TIP3    H140406   1.727   4.940  14.371 -0.7635  0.5162  0.5592
 6305TIP3    H240407   1.683   5.084  14.368 -3.8889 -0.3628  0.4457
 6306TIP3   OH240408   4.621   6.798  16.772  0.0550 -0.5289 -1.5192
 6306TIP3    H140409   4.654   6.806  16.682 -2.5466 -2.2296 -2.7693
 6306TIP3    H240410   4.654   6.713  16.802  0.2849 -0.3144 -1.1689
 6307TIP3   OH240411   4.614   1.130   2.812 -0.1535  0.1611  0.1894
 6307TIP3    H140412   4.708   1.141   2.828 -0.0718  0.1121 -0.2448
 6307TIP3    H240413   4.607   1.113   2.718 -0.5857  0.0126  0.2447
 6308TIP3   OH240414   5.186   3.549   5.879  0.4787  0.0814  0.4355
 6308TIP3    H140415   5.124   3.490   5.836  0.5301  0.7987 -0.6737
 6308TIP3    H240416   5.153   3.558   5.968  0.6223 -1.8093  0.7209
 6309TIP3   OH240417   6.801   1.255  17.181 -0.4008  0.2743  0.2498
 6309TIP3    H140418   6.746   1.330  17.160 -1.3846 -0.2479  0.9098
 6309TIP3    H240419   6.839   1.277  17.266 -4.3510 -1.8408  2.8679
 6310TIP3   OH240420   2.913   5.421  17.281  0.0460 -0.1400 -0.2658
 6310TIP3    H140421   2.948   5.503  17.245 -0.4096  0.1967  0.0470
 6310TIP3    H240422   2.957   5.411  17.366 -0.3018  0.0733 -0.0553
 6311TIP3   OH240423   6.434   1.313  11.211  0.0155  0.0998  0.0855
 6311TIP3    H140424   6.499   1.308  11.280  0.2821 -0.6691 -0.2046
 6311TIP3    H240425   6.477   1.361  11.140 -0.1934  0.7268  0.3815
 6312TIP3   OH240426   0.552   4.883   3.262  0.3599  0.5045  0.2077
 6312TIP3    H140427   0.508   4.968   3.264 -0.0260  0.3524 -0.9249
 6312TIP3    H240428   0.488   4.822   3.298 -0.6266  0.1968 -1.9185
 6313TIP3   OH240429   2.163   4.709  12.804 -0.5198  1.2337  0.0908
 6313TIP3    H140430   2.135   4.617  12.806  0.4293  0.9247 -0.1756
 6313TIP3    H240431   2.155   4.738  12.894 -2.6229  1.4732 -0.1164
 6314TIP3   OH240432   0.701   0.527   1.983  0.0885 -0.2662 -0.5404
 6314TIP3    H140433   0.654   0.579   1.919  1.3648  1.3045 -0.2776
 6314TIP3    H240434   0.702   0.438   1.947 -1.5027  0.0179 -1.3594
 6315TIP3   OH240435   5.942   2.748  13.278 -0.0682 -0.0186  0.4145
 6315TIP3    H140436   6.013   2.787  13.329  0.3325 -1.5472  1.1148
 6315TIP3    H240437   5.985   2.712  13.201 -0.4377  0.9247 -0.2507
 6316TIP3   OH240438   0.841   3.799   2.911 -0.1368 -0.1033 -0.2027
 6316TIP3    H140439   0.802   3.716   2.939  1.1221 -0.4733  0.5394
 6316TIP3    H240440   0.849   3.791   2.816 -1.2838 -0.2549 -0.3011
 6317TIP3   OH240441   3.100   6.744  13.829  0.4041  0.2801  0.2750
 6317TIP3    H140442   3.161   6.712  13.762 -1.9504 -0.4109 -1.6713
 6317TIP3    H240443   3.046   6.808  13.783 -1.3367 -0.2723  1.4797
 6318TIP3   OH240444   2.967   4.068  16.343 -0.4930 -0.1623  0.3581
 6318TIP3    H140445   2.910   4.050  16.418  1.4080 -0.1011  1.9203
 6318TIP3    H240446   2.957   4.162  16.328 -2.5933 -0.5407 -1.0235
 6319TIP3   OH240447   1.493   0.322   5.108  0.0942 -0.2699 -0.2748
 6319TIP3    H140448   1.581   0.347   5.079  0.2373  1.4197  1.4272
 6319TIP3    H240449   1.437   0.339   5.033  0.9165  0.7943 -0.6692
 6320TIP3   OH240450   6.519   4.674  14.543  0.5679  0.0379  0.6385
 6320TIP3    H140451   6.448   4.660  14.480  2.5606 -1.0989 -1.4714
 6320TIP3    H240452   6.488   4.631  14.623 -2.2504  1.9752  0.7782
 6321TIP3   OH240453   0.240   5.109  11.406 -0.1573 -0.0289  0.5786
 6321TIP3    H140454   0.234   5.127  11.312 -1.3016 -1.2687  0.3656
 6321TIP3    H240455   0.158   5.062  11.426  0.6023 -0.8385  1.9410
 6322TIP3   OH240456   5.331   6.815  11.982 -0.4121 -0.3233 -0.2100
 6322TIP3    H140457   5.244   6.843  11.954  0.2457 -0.3513 -2.4516
 6322TIP3    H240458   5.385   6.894  11.973  0.5009 -1.1149 -2.2571
 6323TIP3   OH240459   3.512   4.929  13.971 -0.0700 -0.0310 -0.1606
 6323TIP3    H140460   3.475   4.910  13.885  0.8204  4.3485 -1.7492
 6323TIP3    H240461   3.450   4.989  14.012  0.9620  0.3267  0.9647
 6324TIP3   OH240462   5.191   4.648  14.942 -0.1537  0.4898  0.3003
 6324TIP3    H140463   5.162   4.612  14.858 -1.0792 -0.8561  1.1538
 6324TIP3    H240464   5.174   4.742  14.935  1.9566  0.8174 -1.8534
 6325TIP3   OH240465   4.168   0.217  14.932 -0.1913  0.2673  0.4389
 6325TIP3    H140466   4.229   0.165  14.984 -0.4185 -0.3467  0.1049
 6325TIP3    H240467   4.081   0.182  14.956 -0.2710 -0.3779 -0.7167
 6326TIP3   OH240468   1.252   0.335   5.718 -0.6977 -0.3279  0.2487
 6326TIP3    H140469   1.301   0.254   5.704  0.2052  0.1579  0.4951
 6326TIP3    H240470   1.160   0.308   5.717 -0.5538 -0.9943 -2.1794
 6327TIP3   OH240471   2.587   5.927   3.031  0.2407 -0.3207 -0.3293
 6327TIP3    H140472   2.550   6.014   3.019  1.3229  0.1328 -0.5489
 6327TIP3    H240473   2.681   5.938   3.013  0.2841 -1.6871 -1.1164
 6328TIP3   OH240474   5.289   1.140   0.015  0.0994 -0.9086 -0.0558
 6328TIP3    H140475   5.294   1.044   0.015 -1.5748 -1.0187  0.1560
 6328TIP3    H240476   5.207   1.159   0.060 -0.2259  0.5979 -1.2462
 6329TIP3   OH240477   1.055   0.953   5.714 -0.0764  0.1600 -0.2559
 6329TIP3    H140478   1.122   0.924   5.652  2.0704 -2.4135  2.9457
 6329TIP3    H240479   1.092   1.032   5.753 -0.9054  1.1189 -1.3369
 6330TIP3   OH240480   2.532   6.420  16.186  0.1631 -0.2549  0.0073
 6330TIP3    H140481   2.592   6.346  16.171 -0.9100 -1.0970 -0.2431
 6330TIP3    H240482   2.564   6.488  16.126 -0.1006 -1.2700 -1.3446
 6331TIP3   OH240483   5.433   1.623   1.439  0.0545 -0.2606 -0.2033
 6331TIP3    H140484   5.374   1.592   1.508 -1.6989 -0.3316 -1.6546
 6331TIP3    H240485   5.494   1.551   1.427 -1.1364 -1.2917 -0.3610
 6332TIP3   OH240486   1.528   4.410  14.223  0.1071  0.6305 -0.2398
 6332TIP3    H140487   1.476   4.340  14.184  1.7095 -0.0862 -1.2209
 6332TIP3    H240488   1.553   4.465  14.149 -0.6173  1.9220  0.4413
 6333TIP3   OH240489   2.864   3.946  16.878 -0.0829 -0.7948 -0.0046
 6333TIP3    H140490   2.938   3.943  16.817  0.1842 -0.6415  0.3107
 6333TIP3    H240491   2.854   3.855  16.907  0.0618 -0.7946  0.0479
 6334TIP3   OH240492   0.127   3.965   3.638 -0.6221 -0.5956  0.6870
 6334TIP3    H140493   0.210   3.981   3.683 -0.0753 -2.2581  0.3760
 6334TIP3    H240494   0.072   3.923   3.704 -0.9430 -0.1769  0.6844
 6335TIP3   OH240495   2.226   4.186  11.602  0.1485  0.1467  0.2370
 6335TIP3    H140496   2.145   4.158  11.559  0.9878 -1.9580 -0.1350
 6335TIP3    H240497   2.204   4.267  11.646 -2.7419 -1.3476  1.8135
 6336TIP3   OH240498   6.662   0.040   0.410  0.2888 -0.0465  0.1066
 6336TIP3    H140499   6.728   0.024   0.478 -1.7188 -0.6349  2.0286
 6336TIP3    H240500   6.582   0.062   0.459 -1.4372 -1.1747 -2.0454
 6337TIP3   OH240501   5.775   5.789  14.124  0.1166  0.4109 -0.7049
 6337TIP3    H140502   5.857   5.776  14.078  0.6820  0.2015  0.3237
 6337TIP3    H240503   5.730   5.705  14.118  1.7672 -0.8462  2.0754
 6338TIP3   OH240504   2.691   0.830   1.469  0.6578  0.0376 -0.2166
 6338TIP3    H140505   2.663   0.897   1.406 -3.4400 -2.0017 -0.8802
 6338TIP3    H240506   2.730   0.762   1.414  0.2209 -0.2674 -0.1487
 6339TIP3   OH240507   3.132   3.549   4.822  0.1124 -0.0795 -0.4946
 6339TIP3    H140508   3.142   3.602   4.902 -0.4560 -0.7519  0.0362
 6339TIP3    H240509   3.087   3.470   4.851  1.6426 -1.2408 -1.1201
 6340TIP3   OH240510   5.416   5.817  14.768  0.8020  0.3086 -0.1559
 6340TIP3    H140511   5.432   5.751  14.835 -0.3701  2.6320  2.6299
 6340TIP3    H240512   5.454   5.780  14.688  0.9710 -3.2652  1.3976
 6341TIP3   OH240513   1.313   2.028  13.783  0.5866 -0.1485  0.8219
 6341TIP3    H140514   1.327   1.933  13.775 -3.7441 -0.8939 -1.4248
 6341TIP3    H240515   1.321   2.046  13.876 -0.9460 -3.3520  1.7239
 6342TIP3   OH240516   5.317   3.761   0.679  0.0931  0.0348  0.3411
 6342TIP3    H140517   5.314   3.850   0.646  1.4496  0.1819  0.5826
 6342TIP3    H240518   5.327   3.706   0.602 -1.2409  0.0371  0.1473
 6343TIP3   OH240519   5.115   4.578  11.272 -0.0962 -0.1169  0.1112
 6343TIP3    H140520   5.024   4.591  11.298 -0.9626 -1.6245 -1.8599
 6343TIP3    H240521   5.109   4.531  11.189  2.5032 -0.2555 -0.0736
 6344TIP3   OH240522   4.901   0.517  12.219  0.1523 -0.1699  0.5834
 6344TIP3    H140523   4.912   0.441  12.276 -3.0329 -0.7913  0.5689
 6344TIP3    H240524   4.875   0.587  12.278 -0.2844 -0.0299  0.2279
 6345TIP3   OH240525   5.569   2.079   2.986  0.2305  0.2184  0.3474
 6345TIP3    H140526   5.577   2.042   2.898  1.0783  0.1572  0.4441
 6345TIP3    H240527   5.597   2.009   3.044 -0.9790  0.0227  0.7221
 6346TIP3   OH240528   1.422   5.463  16.471  0.6682 -0.2156  0.3404
 6346TIP3    H140529   1.381   5.377  16.472 -0.1793  0.1792  0.8909
 6346TIP3    H240530   1.373   5.512  16.405 -0.3128  0.5073  1.5575
 6347TIP3   OH240531   2.356   3.454   2.636 -0.7155 -0.6372  0.5556
 6347TIP3    H140532   2.438   3.502   2.640 -0.2973 -1.2786 -0.2071
 6347TIP3    H240533   2.305   3.488   2.710 -0.5179  1.1003 -0.0649
 6348TIP3   OH240534   4.811   5.085  10.828  0.4432  0.4223  0.3615
 6348TIP3    H140535   4.901   5.061  10.805  0.1321  0.4330 -0.9820
 6348TIP3    H240536   4.799   5.172  10.790 -1.6267 -1.4715 -4.1148
 6349TIP3   OH240537   4.898   4.435   3.375 -0.2203  0.2284 -0.5002
 6349TIP3    H140538   4.804   4.427   3.396 -0.5856  0.8192 -1.8130
 6349TIP3    H240539   4.901   4.428   3.279  0.7517  3.0303 -0.7406
 6350TIP3   OH240540   0.896   3.392   5.491  0.2816 -0.0127 -0.4519
 6350TIP3    H140541   0.808   3.371   5.525  0.2389  0.7783 -0.0446
 6350TIP3    H240542   0.884   3.398   5.396 -0.9979  3.8148 -0.2163
 6351TIP3   OH240543   0.950   3.283  12.059  0.4187  0.2134 -0.3760
 6351TIP3    H140544   0.982   3.362  12.101 -0.1073 -0.1736  0.8151
 6351TIP3    H240545   1.024   3.222  12.061 -0.3718 -0.8489  2.8014
 6352TIP3   OH240546   1.834   6.635  13.233  0.0272 -0.1577 -0.0904
 6352TIP3    H140547   1.755   6.602  13.190  0.2289  1.1935 -1.5911
 6352TIP3    H240548   1.902   6.570  13.211 -0.1449 -0.0969 -0.8424
 6353TIP3   OH240549   5.264   1.652  14.961  0.2295  0.7827 -0.0943
 6353TIP3    H140550   5.193   1.702  15.002  0.5305  0.8310  0.3778
 6353TIP3    H240551   5.322   1.718  14.924  0.1877  0.7550 -0.2087
 6354TIP3   OH240552   6.327   1.412   3.010 -0.2747  0.3375 -0.0422
 6354TIP3    H140553   6.236   1.439   3.020 -0.4700 -0.0867 -0.6388
 6354TIP3    H240554   6.322   1.326   2.968  0.4067  0.5362 -0.5494
 6355TIP3   OH240555   2.220   3.640   3.434  0.2688  0.1546  0.1492
 6355TIP3    H140556   2.171   3.600   3.505 -0.7241  0.9338 -0.0693
 6355TIP3    H240557   2.211   3.735   3.447  1.2778  0.3245 -0.2054
 6356TIP3   OH240558   2.399   0.099  17.063  0.2332  0.2250  0.4203
 6356TIP3    H140559   2.354   0.057  17.137  1.3814 -1.2363  0.3432
 6356TIP3    H240560   2.354   0.064  16.986 -0.1636  0.7931  0.3857
 6357TIP3   OH240561   3.298   3.549   3.407 -0.8096 -0.3322 -0.1373
 6357TIP3    H140562   3.273   3.466   3.446  0.8424 -1.6536 -1.7295
 6357TIP3    H240563   3.248   3.555   3.326  2.2431 -2.0782 -2.3580
 6358TIP3   OH240564   1.075   2.279   6.667 -0.2295  0.1283 -0.0531
 6358TIP3    H140565   1.010   2.310   6.603  2.6963  3.0165 -1.9261
 6358TIP3    H240566   1.079   2.348   6.733  1.3241  0.3289 -0.3238
 6359TIP3   OH240567   3.136   2.855   5.803  0.3720 -0.0156  0.3703
 6359TIP3    H140568   3.076   2.863   5.729  2.1262 -1.5943 -1.3460
 6359TIP3    H240569   3.091   2.798   5.865 -1.2220  1.5178  0.6991
 6360TIP3   OH240570   5.106   2.776   4.808  0.8618  0.1542 -0.2302
 6360TIP3    H140571   5.019   2.802   4.779  1.0341  1.6002  0.5018
 6360TIP3    H240572   5.140   2.852   4.855  1.9107 -0.9388  0.8445
 6361TIP3   OH240573   3.922   1.425   3.374  0.7428  0.3868  0.3485
 6361TIP3    H140574   3.859   1.446   3.442 -0.9408  0.2130 -1.0701
 6361TIP3    H240575   4.006   1.425   3.418 -0.2177  0.8040  2.2955
 6362TIP3   OH240576   5.143   5.793  14.280  0.0719  0.0275 -0.1193
 6362TIP3    H140577   5.069   5.738  14.307  0.2013 -0.1234 -0.0731
 6362TIP3    H240578   5.190   5.740  14.215  0.6217 -0.2170  0.4748
 6363TIP3   OH240579   4.348   5.877  14.970 -0.3069 -0.1223 -0.3559
 6363TIP3    H140580   4.266   5.910  15.007 -0.8319  0.9018 -2.2550
 6363TIP3    H240581   4.411   5.947  14.986  0.4777 -1.2406  1.8132
 6364TIP3   OH240582   4.764   1.846  17.257 -0.4820  0.5297 -0.0940
 6364TIP3    H140583   4.793   1.875  17.344  1.7303  0.7525 -0.8299
 6364TIP3    H240584   4.759   1.751  17.264 -0.0673  0.5276  0.2129
 6365TIP3   OH240585   3.015   1.982  14.921  0.5002 -0.1862  0.2902
 6365TIP3    H140586   3.012   1.991  15.016 -1.5901  0.4789  0.2137
 6365TIP3    H240587   3.037   1.890  14.906 -2.2882 -1.1581  1.5096
 6366TIP3   OH240588   4.518   2.414  13.859  0.3859  0.1707 -0.4143
 6366TIP3    H140589   4.549   2.475  13.926  0.3220 -0.2801  0.0300
 6366TIP3    H240590   4.598   2.378  13.821  0.4171 -0.1184 -0.0758
 6367TIP3   OH240591   2.363   0.914   4.253 -0.4921  0.2900 -0.2837
 6367TIP3    H140592   2.303   0.840   4.260 -0.4669  0.1336 -1.3937
 6367TIP3    H240593   2.429   0.885   4.189  1.0645  0.2728  1.2692
 6368TIP3   OH240594   0.116   5.912   0.843 -0.4890 -0.5242  0.8377
 6368TIP3    H140595   0.097   5.852   0.915  0.5351 -0.9885  0.7302
 6368TIP3    H240596   0.075   5.873   0.766  0.4517 -1.2810  0.7011
 6369TIP3   OH240597   5.226   1.877   4.848 -0.3053 -0.2525  0.1203
 6369TIP3    H140598   5.194   1.952   4.897 -0.6566 -0.0398 -0.4304
 6369TIP3    H240599   5.181   1.881   4.764 -1.4781 -1.9345  0.6119
 6370TIP3   OH240600   6.609   2.054   6.042 -0.1166  0.1201  0.0003
 6370TIP3    H140601   6.645   2.101   5.966  0.9231  2.7310  1.9475
 6370TIP3    H240602   6.677   1.991   6.065 -0.1373 -0.2084 -0.8013
 6371TIP3   OH240603   2.670   3.563   0.426 -0.3836  0.3391 -0.0936
 6371TIP3    H140604   2.581   3.589   0.447  0.4496  2.1379  1.5038
 6371TIP3    H240605   2.720   3.580   0.506  1.4680 -0.2601 -1.0579
 6372TIP3   OH240606   2.943   1.065  12.666 -0.6201 -0.0417 -0.4914
 6372TIP3    H140607   2.877   1.069  12.735 -1.0781  1.8628 -0.9593
 6372TIP3    H240608   2.896   1.032  12.589 -1.0313  1.1613 -0.7812
 6373TIP3   OH240609   1.118   2.194  11.285  0.1757 -0.1831  0.6160
 6373TIP3    H140610   1.175   2.158  11.217  0.5337 -2.2573  1.9074
 6373TIP3    H240611   1.177   2.208  11.360 -0.5515  0.2400  1.1198
 6374TIP3   OH240612   4.735   6.650  12.600 -0.1898  0.3378 -0.1193
 6374TIP3    H140613   4.753   6.557  12.582  0.5494  0.3582  0.4667
 6374TIP3    H240614   4.689   6.680  12.522 -0.2284 -0.4658 -0.4237
 6375TIP3   OH240615   4.585   4.361   0.120 -0.0113 -1.0822 -0.0610
 6375TIP3    H140616   4.631   4.297   0.174  0.8464 -0.7957 -0.4216
 6375TIP3    H240617   4.609   4.337   0.030 -0.7197 -1.0322 -0.2656
 6376TIP3   OH240618   3.925   2.941  11.038  0.2753  0.1684  0.1243
 6376TIP3    H140619   3.946   2.997  10.963  0.3053  0.0945  0.0772
 6376TIP3    H240620   3.989   2.965  11.104  0.2255  0.2600  0.1391
 6377TIP3   OH240621   5.778   4.804  12.302  0.0564 -0.1710 -0.3406
 6377TIP3    H140622   5.686   4.783  12.322  0.1572  0.8033  1.2534
 6377TIP3    H240623   5.783   4.899  12.306  1.4238 -0.2615  1.0144
 6378TIP3   OH240624   5.511   0.889   1.569 -0.8817  0.6702 -0.3007
 6378TIP3    H140625   5.601   0.893   1.601 -0.5259 -1.1960 -0.9437
 6378TIP3    H240626   5.519   0.889   1.474 -1.5406  0.0080 -0.3643
 6379TIP3   OH240627   3.235   3.652   0.724  0.4353  0.1350 -0.0168
 6379TIP3    H140628   3.236   3.645   0.629  1.0632  0.0052 -0.0078
 6379TIP3    H240629   3.149   3.689   0.745  0.0278 -0.4552 -0.5857
 6380TIP3   OH240630   0.386   1.702  13.246  0.1799  0.0715 -0.4660
 6380TIP3    H140631   0.400   1.762  13.173 -1.3498  0.1443 -0.7362
 6380TIP3    H240632   0.410   1.753  13.324 -3.1110  1.9377 -0.4675
 6381TIP3   OH240633   2.022   4.587  11.346 -0.3418  0.1260 -0.7610
 6381TIP3    H140634   1.969   4.514  11.378 -1.1720  0.3404 -1.5974
 6381TIP3    H240635   2.026   4.573  11.251 -0.6678  1.2621 -0.9552
 6382TIP3   OH240636   6.734   0.332   2.395  0.5612 -0.4687 -0.4865
 6382TIP3    H140637   6.760   0.240   2.382 -0.0921 -0.4498 -2.1819
 6382TIP3    H240638   6.642   0.334   2.370  0.3585  0.5049  0.3212
 6383TIP3   OH240639   3.706   6.224   4.794  0.2769 -0.4686  0.0471
 6383TIP3    H140640   3.689   6.190   4.707 -0.4748 -2.3688  0.8878
 6383TIP3    H240641   3.761   6.301   4.779  0.3865 -0.8955 -2.0661
 6384TIP3   OH240642   3.848   4.591   2.781 -0.1488  0.0167 -0.2228
 6384TIP3    H140643   3.895   4.630   2.707  0.8485 -1.9241 -0.6836
 6384TIP3    H240644   3.910   4.598   2.854 -0.6278  0.7633  0.1258
 6385TIP3   OH240645   4.639   3.988  11.679  0.1652 -0.2634 -0.1546
 6385TIP3    H140646   4.578   3.958  11.612 -0.4713 -0.8855  0.6717
 6385TIP3    H240647   4.703   4.042  11.632 -2.2123  2.2468 -0.7771
 6386TIP3   OH240648   1.300   1.084   2.548  0.3198  0.0813 -0.0045
 6386TIP3    H140649   1.360   1.137   2.601  1.8535 -2.0299  0.4922
 6386TIP3    H240650   1.280   1.008   2.603 -2.1717  0.3046 -0.5141
 6387TIP3   OH240651   0.658   0.119   0.770 -0.4265  0.2748 -0.3091
 6387TIP3    H140652   0.590   0.054   0.786 -0.3899  0.3795  0.2894
 6387TIP3    H240653   0.715   0.113   0.847 -1.0211  1.7589  0.2706
 6388TIP3   OH240654   5.172   4.240   2.651  0.1771  0.1955 -0.5227
 6388TIP3    H140655   5.209   4.188   2.580 -0.4962  1.2178 -1.6710
 6388TIP3    H240656   5.234   4.312   2.663  1.1139 -0.8195  1.0715
 6389TIP3   OH240657   1.719   4.440  13.742  0.2744  0.2408  0.0201
 6389TIP3    H140658   1.758   4.522  13.712 -0.2568  0.2749 -0.6177
 6389TIP3    H240659   1.768   4.372  13.695  0.9593  0.1596  0.8262
 6390TIP3   OH240660   5.754   4.459   5.657 -0.2216  0.2709  0.2653
 6390TIP3    H140661   5.720   4.370   5.663  0.1591  0.1060  0.0624
 6390TIP3    H240662   5.679   4.513   5.635 -0.5768  0.0891  1.0114
 6391TIP3   OH240663   4.132   4.098   4.923 -0.4077 -0.9753 -0.6245
 6391TIP3    H140664   4.202   4.051   4.879 -1.0294 -1.2715 -1.3201
 6391TIP3    H240665   4.058   4.092   4.863 -0.0988  2.2211 -1.5068
 6392TIP3   OH240666   4.969   2.603  11.199  0.3834 -0.5194 -0.4087
 6392TIP3    H140667   4.979   2.585  11.106  0.1595 -1.8256 -0.2003
 6392TIP3    H240668   4.934   2.522  11.236  1.0098 -0.2292  0.9100
 6393TIP3   OH240669   5.298   1.509  12.500  0.8963  0.2150  0.4914
 6393TIP3    H140670   5.234   1.568  12.538  0.3315  1.0524 -1.6021
 6393TIP3    H240671   5.328   1.455  12.573  0.0603  1.8392  2.1035
 6394TIP3   OH240672   4.190   1.944  16.860 -0.1426  0.3853 -0.3753
 6394TIP3    H140673   4.096   1.958  16.867 -0.1007  1.6085 -1.7775
 6394TIP3    H240674   4.209   1.956  16.767  1.5479  1.2263  0.0357
 6395TIP3   OH240675   6.480   6.165   5.443  0.5351  0.7610 -0.4223
 6395TIP3    H140676   6.497   6.220   5.520 -0.7423  1.2586 -0.4665
 6395TIP3    H240677   6.520   6.080   5.464 -0.5147  0.6259  1.1527
 6396TIP3   OH240678   0.001   0.439  10.683  0.3383 -0.1517  0.2287
 6396TIP3    H140679   0.011   0.507  10.617 -1.5455 -0.7092 -0.6976
 6396TIP3    H240680   0.074   0.379  10.666  0.7267  0.4711 -0.3741
 6397TIP3   OH240681   5.009   3.695   1.007 -0.4530  0.3840  0.1978
 6397TIP3    H140682   5.038   3.736   1.088  0.1283 -0.4353  0.4259
 6397TIP3    H240683   4.933   3.642   1.032  0.3210 -0.6617  0.4432
 6398TIP3   OH240684   3.114   5.130   1.151 -0.7197  0.2726  0.3180
 6398TIP3    H140685   3.039   5.107   1.206  0.8713 -0.5068  2.2841
 6398TIP3    H240686   3.120   5.057   1.089 -0.5607 -0.5771  1.2991
 6399TIP3   OH240687   1.653   0.954  12.711  0.0612  0.0460  0.6558
 6399TIP3    H140688   1.594   0.891  12.753 -1.1276  1.4020  1.1308
 6399TIP3    H240689   1.595   1.011  12.661  0.8262  1.9805  1.8467
 6400TIP3   OH240690   3.297   3.333   6.446  0.3160  0.1246  0.1289
 6400TIP3    H140691   3.309   3.243   6.415  0.2740 -0.0655  0.6525
 6400TIP3    H240692   3.307   3.327   6.541 -1.0690  0.4181  0.3239
 6401TIP3   OH240693   1.620   3.378   1.095 -0.4901 -0.4094 -0.0440
 6401TIP3    H140694   1.667   3.461   1.090 -0.3925 -0.4923 -3.7419
 6401TIP3    H240695   1.684   3.312   1.070 -1.5838 -0.9877 -1.5043
 6402TIP3   OH240696   4.255   5.115   2.544 -0.1268 -0.1126 -0.0946
 6402TIP3    H140697   4.210   5.082   2.466 -1.1792  1.1455 -0.0431
 6402TIP3    H240698   4.339   5.149   2.510 -0.5675  0.4054 -0.6951
 6403TIP3   OH240699   5.506   6.344  13.534  0.2273  0.4296 -0.1379
 6403TIP3    H140700   5.498   6.435  13.506  0.5693 -0.0212 -1.8405
 6403TIP3    H240701   5.539   6.298  13.456 -2.1654 -1.5678 -0.1066
 6404TIP3   OH240702   2.083   2.131   4.735 -0.4606  0.0607 -0.0662
 6404TIP3    H140703   2.093   2.099   4.646 -1.4183 -0.7799  0.1156
 6404TIP3    H240704   2.133   2.213   4.736 -1.8341  0.9837 -1.8575
 6405TIP3   OH240705   0.537   0.546   5.070 -0.1520  0.4540  0.1301
 6405TIP3    H140706   0.556   0.531   5.163 -0.4348 -1.1418 -0.0291
 6405TIP3    H240707   0.553   0.461   5.029 -3.0722  0.2191 -0.7629
 6406TIP3   OH240708   0.219   0.714  15.934 -0.1081 -0.0067  0.2473
 6406TIP3    H140709   0.192   0.760  15.855 -0.7693 -0.8581 -0.0348
 6406TIP3    H240710   0.136   0.690  15.977  0.2167 -1.0974  0.2854
 6407TIP3   OH240711   0.811   0.779  14.741 -0.2942 -0.4858  0.3272
 6407TIP3    H140712   0.740   0.801  14.680  0.2164 -0.7259 -0.3720
 6407TIP3    H240713   0.791   0.690  14.769 -0.7876 -0.2048  0.8918
 6408TIP3   OH240714   4.563   5.171  12.979  0.0305  0.7416  0.4005
 6408TIP3    H140715   4.577   5.264  12.965  0.9625  0.4625 -0.6506
 6408TIP3    H240716   4.588   5.130  12.896  1.6667 -0.6243  1.4930
 6409TIP3   OH240717   6.794   5.709  14.628 -0.7641 -0.2533 -0.2936
 6409TIP3    H140718   6.756   5.623  14.611  1.1709 -1.1998 -0.0560
 6409TIP3    H240719   6.866   5.717  14.566 -1.0122  1.2885 -0.4242
 6410TIP3   OH240720   1.466   3.108   6.120 -0.1598 -0.7356 -0.5995
 6410TIP3    H140721   1.412   3.144   6.049  1.2278  2.0822 -0.3438
 6410TIP3    H240722   1.541   3.069   6.075 -0.1596 -0.5433 -0.7678
 6411TIP3   OH240723   3.818   5.940  15.908  0.6250 -0.1776  0.0523
 6411TIP3    H140724   3.831   5.963  15.815  0.0308  0.9910  0.2462
 6411TIP3    H240725   3.750   6.000  15.938  1.1673 -0.2088  1.3839
 6412TIP3   OH240726   0.507   6.344  12.931 -0.1230 -0.0037 -0.8543
 6412TIP3    H140727   0.423   6.299  12.924 -1.3709  1.8496  0.9129
 6412TIP3    H240728   0.513   6.396  12.851  0.1698 -1.3842 -1.7591
 6413TIP3   OH240729   5.032   4.480  11.044  0.1006 -0.3466 -0.0543
 6413TIP3    H140730   5.081   4.524  10.974 -0.0627  0.2873  0.2235
 6413TIP3    H240731   4.950   4.452  11.003  0.9370 -1.9865 -0.6907
 6414TIP3   OH240732   5.248   3.203   5.084 -0.4034 -0.2264 -0.1737
 6414TIP3    H140733   5.324   3.262   5.081 -1.0500  0.5725 -1.9291
 6414TIP3    H240734   5.267   3.145   5.158  0.0299  2.4860  2.0521
 6415TIP3   OH240735   3.334   5.567  13.021  0.1205  0.4123  0.0034
 6415TIP3    H140736   3.255   5.513  13.014  0.6344 -0.2516 -0.8711
 6415TIP3    H240737   3.372   5.544  13.106  0.7148 -1.1760 -0.6494
 6416TIP3   OH240738   5.471   3.103   5.602  0.1788  0.3528 -0.5991
 6416TIP3    H140739   5.416   3.181   5.597 -1.4395 -0.7956 -3.2690
 6416TIP3    H240740   5.560   3.135   5.592 -0.3457  1.9497 -0.4645
 6417TIP3   OH240741   3.624   3.784   3.058 -0.3831  0.0734  0.3976
 6417TIP3    H140742   3.647   3.788   3.151  0.9630  1.1741  0.0491
 6417TIP3    H240743   3.708   3.794   3.013 -1.0024 -0.5875 -0.9411
 6418TIP3   OH240744   1.254   2.046   1.134  0.5280 -0.1177 -0.1487
 6418TIP3    H140745   1.230   1.959   1.166 -0.0904 -0.0315 -0.3650
 6418TIP3    H240746   1.171   2.091   1.125  0.8849  0.7095  0.5465
 6419TIP3   OH240747   5.200   4.886  13.403 -0.4043 -0.6063  0.7109
 6419TIP3    H140748   5.184   4.947  13.475  2.6824  2.2805 -0.7683
 6419TIP3    H240749   5.291   4.858  13.415 -0.7977 -2.5574 -0.3941
 6420TIP3   OH240750   0.364   1.594  17.270 -0.4951 -0.8178  0.0400
 6420TIP3    H140751   0.383   1.612  17.178  0.4177 -0.3593  0.3074
 6420TIP3    H240752   0.273   1.620  17.281 -0.5094 -0.5471 -0.6474
 6421TIP3   OH240753   1.672   0.900  15.942  0.2526  0.2404 -0.6417
 6421TIP3    H140754   1.711   0.967  15.997 -0.3474 -1.8012  2.5599
 6421TIP3    H240755   1.745   0.842  15.919  0.0259 -0.7182  0.9233
 6422TIP3   OH240756   2.626   3.393  13.122  0.8807  0.1620  0.4612
 6422TIP3    H140757   2.655   3.438  13.202 -1.2557  2.5156  0.0298
 6422TIP3    H240758   2.565   3.454  13.081 -1.1047 -2.5598 -0.9722
 6423TIP3   OH240759   3.547   1.993   1.866 -0.0723 -0.1329 -0.0939
 6423TIP3    H140760   3.471   1.937   1.884 -1.4695  1.3215 -1.2361
 6423TIP3    H240761   3.520   2.048   1.793  1.8043  0.9993 -0.0027
 6424TIP3   OH240762   2.691   3.076  11.959 -0.1682  0.9458  0.4656
 6424TIP3    H140763   2.611   3.080  12.012 -1.0340 -1.7202 -0.4659
 6424TIP3    H240764   2.716   3.167  11.945 -2.6655  1.8320  1.3482
 6425TIP3   OH240765   1.099   3.572   4.662 -0.8168  0.0216  0.1341
 6425TIP3    H140766   1.120   3.663   4.642  0.4677 -0.1079  0.7981
 6425TIP3    H240767   1.129   3.523   4.585  0.4024 -0.0409  0.6237
 6426TIP3   OH240768   0.881   4.213   2.606  0.3810 -0.4355  0.1107
 6426TIP3    H140769   0.901   4.248   2.519 -1.4320 -1.2485 -0.7001
 6426TIP3    H240770   0.824   4.279   2.645 -0.9452 -1.2291 -0.4037
 6427TIP3   OH240771   2.666   6.559   1.344 -0.1019 -0.0164 -0.4912
 6427TIP3    H140772   2.614   6.505   1.285 -0.1674 -2.0824  1.3567
 6427TIP3    H240773   2.609   6.577   1.418  0.6262  0.8039 -0.1056
 6428TIP3   OH240774   1.614   3.992  14.897 -0.3488 -0.2466  0.5059
 6428TIP3    H140775   1.689   4.010  14.840 -1.7624  2.0990 -0.8202
 6428TIP3    H240776   1.627   4.050  14.972  0.4016 -1.7389  1.5822
 6429TIP3   OH240777   6.368   1.067   4.331  0.2573 -0.1209  0.3855
 6429TIP3    H140778   6.285   1.040   4.291  0.1809  1.1952 -0.4061
 6429TIP3    H240779   6.410   0.985   4.358 -1.1172 -0.8282  0.4363
 6430TIP3   OH240780   4.824   4.756   5.206 -0.8314 -0.2982  0.1227
 6430TIP3    H140781   4.824   4.810   5.285  0.5557 -0.4973  0.2843
 6430TIP3    H240782   4.880   4.682   5.227 -1.3423 -0.9406 -0.6803
 6431TIP3   OH240783   5.859   6.618  13.595  0.1335  0.1945  0.1877
 6431TIP3    H140784   5.829   6.605  13.505  1.1862  2.1996 -0.5352
 6431TIP3    H240785   5.783   6.653  13.641  0.0569  0.8039 -0.3911
 6432TIP3   OH240786   5.598   4.702   0.853 -0.8750  0.2943  0.1845
 6432TIP3    H140787   5.681   4.666   0.886  0.0583 -1.2651 -3.4478
 6432TIP3    H240788   5.539   4.627   0.850 -1.8181  0.9874  0.8285
 6433TIP3   OH240789   3.918   0.250   5.245  0.3253 -0.4004 -0.5519
 6433TIP3    H140790   3.925   0.226   5.338 -0.4134  3.3011  0.6478
 6433TIP3    H240791   3.948   0.341   5.242 -0.4075 -0.1447 -3.8452
 6434TIP3   OH240792   5.966   1.439   1.922  0.6486  0.0577 -0.0644
 6434TIP3    H140793   6.019   1.519   1.928 -0.9149  1.3110 -1.8460
 6434TIP3    H240794   5.982   1.407   1.834 -0.0772 -0.6277  0.0480
 6435TIP3   OH240795   1.817   6.485  16.693 -0.2698  0.0182 -0.3738
 6435TIP3    H140796   1.878   6.548  16.654 -0.8619  1.9515  1.6361
 6435TIP3    H240797   1.740   6.487  16.635 -0.0552  0.7178 -0.6390
 6436TIP3   OH240798   5.658   3.108   2.232  0.2452  0.5012  0.2843
 6436TIP3    H140799   5.640   3.078   2.321 -0.9936 -1.2328 -0.4947
 6436TIP3    H240800   5.702   3.192   2.244  1.5985 -0.4279  2.5620
 6437TIP3   OH240801   0.742   6.693  15.840 -1.1600 -0.6524  0.1786
 6437TIP3    H140802   0.799   6.695  15.918 -0.0857  0.3149 -0.5997
 6437TIP3    H240803   0.738   6.600  15.817  0.7158 -0.7165 -0.1236
 6438TIP3   OH240804   1.607   6.445   5.018  0.3302  0.1158 -0.2864
 6438TIP3    H140805   1.701   6.457   5.015  0.5044 -0.0915  2.3196
 6438TIP3    H240806   1.594   6.350   5.020  0.2486  0.1305  1.6832
 6439TIP3   OH240807   0.426   4.818  13.775 -0.1233  0.2436  0.6545
 6439TIP3    H140808   0.446   4.731  13.809  0.4665  1.1160  2.7385
 6439TIP3    H240809   0.510   4.852  13.745 -0.3129  0.1813  0.0488
 6440TIP3   OH240810   2.661   1.144   5.158  0.7117 -0.0098 -0.0078
 6440TIP3    H140811   2.584   1.188   5.194  2.9886  3.5459  1.1901
 6440TIP3    H240812   2.689   1.084   5.227 -0.8644 -1.2739 -0.4263
 6441TIP3   OH240813   6.780   0.780  16.231 -0.3806  0.6786 -0.4391
 6441TIP3    H140814   6.851   0.716  16.225 -0.2045  0.9145 -0.9169
 6441TIP3    H240815   6.742   0.782  16.143 -1.0792  0.4423 -0.1466
 6442TIP3   OH240816   5.005   1.508  15.493  0.5211 -0.0900  0.6170
 6442TIP3    H140817   5.034   1.416  15.494 -2.0248 -0.9824  0.1418
 6442TIP3    H240818   5.010   1.534  15.401  2.2974  0.6987  0.8790
 6443TIP3   OH240819   5.979   1.544  13.163 -0.2193 -0.0580 -0.1089
 6443TIP3    H140820   5.920   1.604  13.117 -0.0760  0.6178  0.5646
 6443TIP3    H240821   6.027   1.499  13.093 -1.0332 -0.1079 -0.6445
 6444TIP3   OH240822   3.713   4.626  14.524 -0.1303 -0.2346  0.1356
 6444TIP3    H140823   3.683   4.617  14.615  2.3462 -1.7427  0.9090
 6444TIP3    H240824   3.797   4.672  14.531 -0.4429  0.6994 -1.5548
 6445TIP3   OH240825   4.441   1.776  12.779 -0.1132  0.4179 -0.2971
 6445TIP3    H140826   4.381   1.771  12.705  1.2443 -0.7425 -1.3884
 6445TIP3    H240827   4.444   1.869  12.801 -1.1138  0.6926 -1.2051
 6446TIP3   OH240828   1.832   2.529   3.401  0.4411 -0.2227  0.3873
 6446TIP3    H140829   1.786   2.451   3.434  0.6328 -0.2160  0.6742
 6446TIP3    H240830   1.873   2.567   3.479 -0.4798  0.7272  0.4287
 6447TIP3   OH240831   1.236   2.607   4.638  0.1755  0.1406 -0.2664
 6447TIP3    H140832   1.184   2.564   4.569 -1.0147  2.8382 -1.1797
 6447TIP3    H240833   1.179   2.607   4.715 -0.5199  1.4530 -0.7435
 6448TIP3   OH240834   1.919   3.458   4.605  0.8718 -0.6921  0.0737
 6448TIP3    H140835   1.827   3.461   4.578  0.6401 -0.4584  0.8670
 6448TIP3    H240836   1.946   3.550   4.609  1.0413 -0.7456  0.1773
 6449TIP3   OH240837   0.026   1.197  12.193  0.0061  0.4545  0.1389
 6449TIP3    H140838  -0.013   1.233  12.113 -0.0494  1.6330  0.6805
 6449TIP3    H240839   0.019   1.102  12.182  0.6954  0.5745 -1.5911
 6450TIP3   OH240840   0.943   2.581  12.861  0.4405  1.1011  0.0251
 6450TIP3    H140841   0.874   2.544  12.915  1.9263  0.4797  1.5956
 6450TIP3    H240842   0.966   2.663  12.905  1.0643  1.0384 -0.1783
 6451TIP3   OH240843   2.260   5.429   2.765 -0.0315  0.3353  0.3760
 6451TIP3    H140844   2.345   5.463   2.793 -0.7518  1.3747  1.3805
 6451TIP3    H240845   2.201   5.504   2.771 -1.0157 -0.3647 -0.3394
 6452TIP3   OH240846   2.064   0.805   6.452 -0.5068 -0.1411 -0.6202
 6452TIP3    H140847   1.982   0.847   6.426 -0.8257  1.0345  1.9914
 6452TIP3    H240848   2.041   0.753   6.528  1.0748 -0.2191 -0.1649
 6453TIP3   OH240849   0.381   2.256   2.285 -0.3105 -0.2727 -0.1308
 6453TIP3    H140850   0.432   2.187   2.243  0.3637  1.3358 -2.1037
 6453TIP3    H240851   0.447   2.313   2.327 -0.7141  0.1473 -0.0558
 6454TIP3   OH240852   4.767   0.848   0.479  0.0561  0.1516  0.1287
 6454TIP3    H140853   4.793   0.791   0.551  1.3558 -0.3414 -0.6823
 6454TIP3    H240854   4.849   0.869   0.434 -0.7466  0.0935 -1.4511
 6455TIP3   OH240855   6.214   2.671   4.209  0.3281  0.5373  0.6538
 6455TIP3    H140856   6.203   2.670   4.114  1.5016 -0.4190  0.5007
 6455TIP3    H240857   6.213   2.764   4.232  2.6670  0.9868 -0.6734
 6456TIP3   OH240858   1.867   0.364   2.162 -0.0002  0.1410 -0.3308
 6456TIP3    H140859   1.905   0.325   2.083  0.4311  0.9709 -0.5414
 6456TIP3    H240860   1.942   0.390   2.215 -0.2489  1.8078 -0.7566
 6457TIP3   OH240861   5.719   6.475  15.699 -0.0801  0.7597  0.0776
 6457TIP3    H140862   5.780   6.467  15.773 -0.6437 -0.2781  0.4556
 6457TIP3    H240863   5.644   6.422  15.725 -0.5968  0.9861 -0.9367
 6458TIP3   OH240864   3.661   0.831  16.984  0.4738 -0.0646  0.1392
 6458TIP3    H140865   3.576   0.867  16.956  0.9519  2.3744  1.5824
 6458TIP3    H240866   3.721   0.855  16.913 -0.0189 -2.1001 -1.0557
 6459TIP3   OH240867   5.694   0.341  11.325 -0.0275  0.0162 -0.1699
 6459TIP3    H140868   5.643   0.268  11.290  1.5117 -0.2717 -1.9630
 6459TIP3    H240869   5.777   0.303  11.351  0.6051  1.0164 -0.6468
 6460TIP3   OH240870   2.699   5.610   5.457  0.2472 -0.4211  0.3845
 6460TIP3    H140871   2.638   5.643   5.523 -0.4532  1.2336 -0.9983
 6460TIP3    H240872   2.783   5.651   5.481 -0.5198  2.2570 -1.0554
 6461TIP3   OH240873   0.511   3.484  11.166  0.4115 -0.1282  0.2272
 6461TIP3    H140874   0.478   3.481  11.077  2.1171 -0.6114 -0.4452
 6461TIP3    H240875   0.570   3.559  11.167 -0.7972  0.8504  1.4403
 6462TIP3   OH240876   6.620   3.748  14.852 -0.1413  0.0479 -0.0787
 6462TIP3    H140877   6.578   3.834  14.860 -1.3303 -0.6700  2.5984
 6462TIP3    H240878   6.673   3.740  14.931  1.1437 -1.1059 -1.0253
 6463TIP3   OH240879   3.654   1.235  15.792 -0.1782  0.8612  0.2394
 6463TIP3    H140880   3.639   1.304  15.856 -1.0715 -1.5364  2.8406
 6463TIP3    H240881   3.568   1.194  15.781  0.7147 -1.1998  0.5543
 6464TIP3   OH240882   6.128   6.353  13.262 -0.0045  0.3999 -0.1219
 6464TIP3    H140883   6.178   6.273  13.251 -0.8093 -0.3745  1.4581
 6464TIP3    H240884   6.187   6.413  13.308 -0.1976 -0.2049  0.9548
 6465TIP3   OH240885   3.369   0.607  13.920 -0.4382 -0.0646  0.6928
 6465TIP3    H140886   3.357   0.587  14.013 -1.1750  0.0630  0.6300
 6465TIP3    H240887   3.463   0.602  13.907 -0.2241  1.0445  1.6941
 6466TIP3   OH240888   0.351   4.297  13.592  0.0074  0.4794  0.0528
 6466TIP3    H140889   0.381   4.206  13.600 -0.2888  0.0212 -2.9644
 6466TIP3    H240890   0.431   4.346  13.572 -0.1473  0.4860 -0.5682
 6467TIP3   OH240891   6.695   0.911  14.348  0.5105 -0.2573 -0.1058
 6467TIP3    H140892   6.746   0.956  14.280  0.6558  1.6309  1.1581
 6467TIP3    H240893   6.631   0.976  14.376  2.3498  0.2283  3.6162
 6468TIP3   OH240894   2.051   6.445  12.933  0.3504 -0.1503 -0.0896
 6468TIP3    H140895   2.085   6.523  12.977 -1.2098  0.7723 -0.4321
 6468TIP3    H240896   2.102   6.372  12.970 -0.0224  0.7124  2.3009
 6469TIP3   OH240897   4.897   4.936   5.707 -0.3957 -0.1960  0.6975
 6469TIP3    H140898   4.965   4.987   5.663 -0.8747  0.3513  0.5926
 6469TIP3    H240899   4.825   4.997   5.721 -1.6310 -1.1995 -0.8684
 6470TIP3   OH240900   0.976   1.276  17.023 -0.5201  0.3670  0.1853
 6470TIP3    H140901   1.030   1.275  17.102 -0.3468 -0.2884  0.0601
 6470TIP3    H240902   0.911   1.207  17.037 -0.4750  0.2353 -0.2581
 6471TIP3   OH240903   3.121   3.812  15.569  0.0176  0.4846  0.1215
 6471TIP3    H140904   3.120   3.862  15.487 -0.3016  1.6803  0.8401
 6471TIP3    H240905   3.186   3.743  15.554  0.9020  1.4641 -0.6913
 6472TIP3   OH240906   3.978   3.721  11.672  0.0424 -1.2452  0.4339
 6472TIP3    H140907   3.931   3.697  11.592  1.9905 -4.2997  0.0353
 6472TIP3    H240908   3.916   3.703  11.743 -0.6300 -1.6058 -0.2311
 6473TIP3   OH240909   1.542   3.157   5.487 -0.3618 -0.3347  0.3638
 6473TIP3    H140910   1.483   3.226   5.456 -0.2929 -0.6840 -0.5715
 6473TIP3    H240911   1.629   3.186   5.461 -0.0532  0.3146  1.9854
 6474TIP3   OH240912   1.401   1.046  11.309 -0.5145 -0.4387  0.4912
 6474TIP3    H140913   1.455   1.058  11.387  0.1179 -0.9619  0.1450
 6474TIP3    H240914   1.369   0.957  11.315  2.4647 -1.8520 -1.5627
 6475TIP3   OH240915   1.314   6.719  15.635  0.0751  0.2823  0.3133
 6475TIP3    H140916   1.387   6.695  15.578 -0.3296 -0.0787 -0.0619
 6475TIP3    H240917   1.334   6.808  15.664  1.1081 -0.1341  0.9283
 6476TIP3   OH240918   0.914   5.225   4.061 -0.3613  0.2000  0.1238
 6476TIP3    H140919   0.868   5.291   4.113  0.2040 -0.7698  1.9394
 6476TIP3    H240920   0.845   5.184   4.008 -0.8972  1.4483 -0.1872
 6477TIP3   OH240921   2.770   5.889  16.307 -0.1763  0.0192 -0.4189
 6477TIP3    H140922   2.708   5.820  16.328 -0.3110 -0.7262 -2.8943
 6477TIP3    H240923   2.781   5.938  16.388 -3.0174 -0.5924  0.4361
 6478TIP3   OH240924   2.779   5.930   5.992 -0.1404 -0.4078  0.1382
 6478TIP3    H140925   2.757   5.943   6.084 -0.0915 -0.4936  0.1613
 6478TIP3    H240926   2.872   5.909   5.992  0.2281  1.0883 -0.0556
 6479TIP3   OH240927   5.590   3.864   5.763  0.9449 -0.2179  0.2797
 6479TIP3    H140928   5.594   3.782   5.714  0.5512 -0.4740  0.6658
 6479TIP3    H240929   5.496   3.877   5.780  0.7691  1.3917 -1.5537
 6480TIP3   OH240930   6.584   5.759   3.488 -0.1327  0.0101 -0.6172
 6480TIP3    H140931   6.659   5.811   3.516 -1.4382  1.1191  1.0433
 6480TIP3    H240932   6.573   5.693   3.557 -0.6362 -0.1752 -0.8681
 6481TIP3   OH240933   2.114   6.751   2.178  0.7327 -0.2133  0.3754
 6481TIP3    H140934   2.062   6.749   2.098 -1.1138 -0.0270  1.5235
 6481TIP3    H240935   2.135   6.843   2.191  0.7593 -0.2087  0.3042
 6482TIP3   OH240936   0.721   2.411  16.219 -0.2773 -0.0721  0.3039
 6482TIP3    H140937   0.794   2.366  16.262  0.1966 -0.6976 -1.0692
 6482TIP3    H240938   0.688   2.473  16.284  2.2370  1.0799  0.5965
 6483TIP3   OH240939   3.922   3.387   5.701 -0.4023  0.1127 -0.1823
 6483TIP3    H140940   3.924   3.451   5.630 -3.1571 -0.2788 -0.7394
 6483TIP3    H240941   3.857   3.322   5.672 -1.0640 -0.4503  2.3610
 6484TIP3   OH240942   6.410   2.901  15.058 -0.0212 -0.4556  0.1290
 6484TIP3    H140943   6.503   2.908  15.039 -0.1635  0.3820 -0.3216
 6484TIP3    H240944   6.406   2.891  15.153  0.4773  1.1494  0.3455
 6485TIP3   OH240945   6.176   2.041  11.368  0.3536  0.4153 -0.4464
 6485TIP3    H140946   6.149   2.043  11.460  1.6142 -0.9901  0.0077
 6485TIP3    H240947   6.136   1.960  11.334  2.7860 -1.0362 -0.0918
 6486TIP3   OH240948   2.019   0.790  14.087  0.1152 -0.0930 -0.6742
 6486TIP3    H140949   2.087   0.832  14.139  2.8383 -0.9306 -3.2853
 6486TIP3    H240950   2.036   0.696  14.096 -2.7835 -0.5923  1.0913
 6487TIP3   OH240951   6.777   3.901  15.498  0.1312 -0.0155  0.1781
 6487TIP3    H140952   6.773   3.980  15.553 -1.6946  0.8054 -1.0115
 6487TIP3    H240953   6.693   3.857  15.513  1.3815 -2.1562  1.3280
 6488TIP3   OH240954   2.700   6.011  11.799 -0.1036  0.5334 -0.4046
 6488TIP3    H140955   2.642   6.038  11.870  0.3696 -0.2884  0.3121
 6488TIP3    H240956   2.788   6.012  11.839  0.0236 -1.2142 -0.5793
 6489TIP3   OH240957   1.178   0.874  11.425  0.0794 -0.6732 -0.3385
 6489TIP3    H140958   1.093   0.835  11.445 -0.0258 -0.0895  0.4326
 6489TIP3    H240959   1.157   0.958  11.384  0.2754 -0.4319  0.0477
 6490TIP3   OH240960   4.517   6.104  14.971  0.0405  0.2826 -0.5127
 6490TIP3    H140961   4.495   6.109  14.878  1.4763 -1.0246 -0.9698
 6490TIP3    H240962   4.604   6.145  14.977  0.2626 -0.2670  0.1389
 6491TIP3   OH240963   0.280   1.165   2.030  0.3374  0.4384  0.0847
 6491TIP3    H140964   0.191   1.131   2.039  0.4489 -0.0807 -0.6493
 6491TIP3    H240965   0.273   1.230   1.960  0.5855  0.1773 -0.1867
 6492TIP3   OH240966   3.868   1.925   2.848 -0.3050 -0.1605 -0.6003
 6492TIP3    H140967   3.880   1.897   2.758  1.6227 -1.6296  0.0346
 6492TIP3    H240968   3.818   1.853   2.889  1.4201 -0.9807  0.1609
 6493TIP3   OH240969   4.586   3.816   4.879 -0.2724  0.2879  0.5455
 6493TIP3    H140970   4.539   3.736   4.901  0.4264 -0.0646  0.7881
 6493TIP3    H240971   4.549   3.842   4.794  0.0212 -0.7296  0.0751
 6494TIP3   OH240972   3.302   6.409   3.699 -0.5747  0.2977  0.0801
 6494TIP3    H140973   3.224   6.388   3.648  0.0877  0.5623 -1.0819
 6494TIP3    H240974   3.365   6.341   3.677  0.0934  1.0269 -0.3280
 6495TIP3   OH240975   6.146   0.958   0.450 -0.2537 -0.0383  0.1662
 6495TIP3    H140976   6.091   0.907   0.509 -0.6568  0.5571  0.3239
 6495TIP3    H240977   6.185   0.894   0.392 -0.5874 -0.5439  0.4877
 6496TIP3   OH240978   4.691   2.583   1.360 -0.2856 -0.2676  0.2548
 6496TIP3    H140979   4.690   2.547   1.449  1.2035  0.2246  0.5086
 6496TIP3    H240980   4.750   2.526   1.311  0.5442  0.6475  0.1505
 6497TIP3   OH240981   5.691   5.547  15.143 -0.1848  0.3266  0.0475
 6497TIP3    H140982   5.640   5.599  15.206 -2.1671  0.3991 -1.5259
 6497TIP3    H240983   5.643   5.465  15.136  0.8011 -0.2349 -0.3521
 6498TIP3   OH240984   1.858   1.461   4.651  0.1436  0.9536  0.0509
 6498TIP3    H140985   1.950   1.436   4.655 -0.0015  0.2432 -0.7567
 6498TIP3    H240986   1.859   1.545   4.604  0.2705  0.1778 -1.3905
 6499TIP3   OH240987   1.961   3.810  15.198  0.2566 -0.2300 -0.9349
 6499TIP3    H140988   1.924   3.723  15.211  0.0008  0.0724  0.5017
 6499TIP3    H240989   2.000   3.806  15.111  3.7111 -3.0912  0.4699
 6500TIP3   OH240990   4.251   2.003  16.588  0.3443  0.1204 -0.1335
 6500TIP3    H140991   4.234   2.050  16.506  0.8574 -0.0371 -0.3333
 6500TIP3    H240992   4.301   1.926  16.561 -0.1308 -0.3268  0.2387
 6501TIP3   OH240993   6.370   2.170  13.647  0.0715 -0.0193 -0.7949
 6501TIP3    H140994   6.317   2.216  13.581  0.9196  0.7305 -0.9742
 6501TIP3    H240995   6.449   2.144  13.599 -0.4675 -1.8337 -0.7366
 6502TIP3   OH240996   0.407   3.230   2.878 -0.4273 -0.1536  0.1991
 6502TIP3    H140997   0.401   3.159   2.815  0.1815 -0.3406  0.3487
 6502TIP3    H240998   0.478   3.285   2.845  2.0271 -1.8690  2.3078
 6503TIP3   OH240999   6.460   6.088  12.072  0.0206  0.4854 -0.5468
 6503TIP3    H141000   6.383   6.124  12.116 -0.8311 -2.5869  0.7390
 6503TIP3    H241001   6.444   6.103  11.979 -1.6757  0.7133 -0.2427
 6504TIP3   OH241002   1.466   0.747   5.234  0.5046 -0.2036 -0.5300
 6504TIP3    H141003   1.373   0.726   5.229  0.4452  0.0444 -0.5281
 6504TIP3    H241004   1.479   0.810   5.162 -0.1803  2.8455  1.8031
 6505TIP3   OH241005   6.429   3.922   3.094 -0.5449  0.2147 -0.0899
 6505TIP3    H141006   6.427   3.845   3.150 -0.5484  1.6834  2.0298
 6505TIP3    H241007   6.514   3.918   3.050 -0.1787 -0.5381  0.6609
 6506TIP3   OH241008   3.256   2.971   3.710  0.4053  0.2478  0.0145
 6506TIP3    H141009   3.279   2.964   3.803  0.7562 -2.0251 -0.2056
 6506TIP3    H241010   3.323   3.030   3.673  0.9763  0.2151  0.9650
 6507TIP3   OH241011   3.725   1.051   5.243  0.3502 -0.0077  0.4327
 6507TIP3    H141012   3.778   1.022   5.169  0.6839 -0.6362  0.9111
 6507TIP3    H241013   3.635   1.042   5.213  0.4674  2.2354 -0.8378
 6508TIP3   OH241014   2.887   6.192  14.407 -0.2273  0.3411 -0.0605
 6508TIP3    H141015   2.917   6.119  14.353  0.3461  0.6153 -0.1230
 6508TIP3    H241016   2.808   6.159  14.449  0.3668 -0.5446  0.4061
 6509TIP3   OH241017   3.349   4.876   2.553  0.1860  0.2264 -0.5856
 6509TIP3    H141018   3.415   4.944   2.566  1.0018 -0.3467 -1.5946
 6509TIP3    H241019   3.353   4.823   2.632 -1.2409  1.9494  0.7221
 6510TIP3   OH241020   6.343   1.171  12.957 -0.2390 -0.7988 -0.2916
 6510TIP3    H141021   6.314   1.160  13.047  0.7889 -3.7093 -0.1904
 6510TIP3    H241022   6.266   1.148  12.904 -1.1819  1.9918 -0.2591
 6511TIP3   OH241023   2.802   3.964  12.604 -0.7601  0.0876  0.1259
 6511TIP3    H141024   2.869   3.983  12.538 -1.1085 -0.8532 -0.5152
 6511TIP3    H241025   2.850   3.965  12.687 -0.0539 -0.0004 -0.2653
 6512TIP3   OH241026   3.785   6.367   5.679 -0.0737 -0.2561  0.3445
 6512TIP3    H141027   3.880   6.380   5.675 -0.0458 -0.4985  0.2539
 6512TIP3    H241028   3.749   6.445   5.636  0.1319 -0.9712 -1.2062
 6513TIP3   OH241029   5.797   5.855   5.889 -0.2547  0.5702  0.2035
 6513TIP3    H141030   5.809   5.938   5.843 -1.7191  0.2513 -0.8155
 6513TIP3    H241031   5.702   5.844   5.895 -0.0928 -0.9608  0.4323
 6514TIP3   OH241032   0.956   6.691   3.196 -0.8114  0.2545 -0.1799
 6514TIP3    H141033   0.934   6.783   3.188 -0.5396  0.3259 -0.1129
 6514TIP3    H241034   0.898   6.658   3.265 -1.3062  0.2451 -0.6041
 6515TIP3   OH241035   4.784   6.421   6.844 -0.8862 -0.3871 -0.1065
 6515TIP3    H141036   4.751   6.333   6.827  1.0447 -1.1557 -0.1622
 6515TIP3    H241037   4.873   6.420   6.807 -0.3851  1.1857  0.9924
 6516TIP3   OH241038   5.570   4.314   3.108 -0.0409  0.3345 -0.6128
 6516TIP3    H141039   5.634   4.242   3.113  0.5511  0.8896  0.1028
 6516TIP3    H241040   5.496   4.283   3.159  0.9162  0.8924  1.2210
 6517TIP3   OH241041   5.758   4.125  13.001 -0.4281  0.2170 -0.7157
 6517TIP3    H141042   5.703   4.047  12.994 -1.4710  0.7873  0.7365
 6517TIP3    H241043   5.753   4.151  13.093  2.0085  0.5104 -0.5948
 6518TIP3   OH241044   2.101   4.824  13.347  0.5563  0.0340  0.0289
 6518TIP3    H141045   2.132   4.763  13.414  1.7580 -0.4684 -0.9486
 6518TIP3    H241046   2.005   4.821  13.354  0.6355  0.8907  2.4885
 6519TIP3   OH241047   4.942   3.232  13.170 -0.0299 -0.0240 -0.6781
 6519TIP3    H141048   4.861   3.269  13.204  0.1342  0.1649 -0.4939
 6519TIP3    H241049   5.000   3.308  13.159  0.5957 -0.3166  0.4765
 6520TIP3   OH241050   3.001   5.384   4.730  0.3041 -1.0445 -0.1226
 6520TIP3    H141051   2.989   5.290   4.744  0.5634 -1.0641 -0.0269
 6520TIP3    H241052   3.068   5.409   4.793 -0.6450 -0.5520  0.7257
 6521TIP3   OH241053   2.754   4.354   5.929  0.0641 -0.0673  0.4943
 6521TIP3    H141054   2.661   4.343   5.908  0.2129  0.5455 -0.5872
 6521TIP3    H241055   2.794   4.270   5.907 -0.1456 -0.1376  0.3775
 6522TIP3   OH241056   6.462   3.573  13.850  0.7710 -0.4171 -0.5601
 6522TIP3    H141057   6.550   3.536  13.837  1.4548  1.0298 -0.2934
 6522TIP3    H241058   6.456   3.642  13.785 -1.1060 -1.9681 -2.1319
 6523TIP3   OH241059   0.303   0.665  16.495  0.3117 -0.8436  0.1169
 6523TIP3    H141060   0.356   0.715  16.433 -0.7700 -1.0375 -1.0105
 6523TIP3    H241061   0.339   0.576  16.489 -0.0405 -0.9508 -0.5608
 6524TIP3   OH241062   6.177   4.422  10.730 -0.5403  0.2563  0.3657
 6524TIP3    H141063   6.122   4.440  10.807 -0.0658  0.3064  0.6941
 6524TIP3    H241064   6.194   4.508  10.692 -1.4171  0.1745 -0.2539
 6525TIP3   OH241065   1.201   2.878  16.012  0.1741  0.3812 -0.2490
 6525TIP3    H141066   1.234   2.807  16.067 -0.4040  0.0270 -0.3450
 6525TIP3    H241067   1.190   2.838  15.926 -1.7760  0.1041  0.0926
 6526TIP3   OH241068   0.655   2.664  13.641  0.2109  0.0422 -0.3476
 6526TIP3    H141069   0.614   2.581  13.662 -0.8383  0.5279 -0.4240
 6526TIP3    H241070   0.636   2.677  13.548 -0.9586  1.0849  0.0172
 6527TIP3   OH241071   5.612   3.037   4.484  0.0242  0.2004  0.2158
 6527TIP3    H141072   5.631   3.030   4.390  0.6248  1.6754  0.1976
 6527TIP3    H241073   5.608   2.946   4.514 -1.6729 -0.3579 -1.5022
 6528TIP3   OH241074   0.224   3.155  16.075 -1.0104  0.1284 -0.4418
 6528TIP3    H141075   0.301   3.099  16.060 -1.0943 -0.2298  0.3916
 6528TIP3    H241076   0.208   3.198  15.991  0.0026  0.0817 -0.6644
 6529TIP3   OH241077   1.660   4.213  10.899  0.5590  0.0317  0.1258
 6529TIP3    H141078   1.745   4.195  10.940  0.6288 -1.0449 -0.4519
 6529TIP3    H241079   1.671   4.187  10.808 -0.6275 -0.8986  0.2270
 6530TIP3   OH241080   6.089   2.910  11.160  0.1794 -0.3921  0.1227
 6530TIP3    H141081   6.033   2.832  11.152 -0.6684  0.2773 -0.6340
 6530TIP3    H241082   6.143   2.892  11.237  0.5488 -2.0702 -0.4801
 6531TIP3   OH241083   3.212   1.724   5.716 -0.4101  0.5252  0.2205
 6531TIP3    H141084   3.193   1.630   5.705 -1.5298  0.9471 -2.2278
 6531TIP3    H241085   3.263   1.729   5.797 -1.5831 -2.0123  1.2349
 6532TIP3   OH241086   4.727   6.575   1.925  0.0439 -0.1133  0.5940
 6532TIP3    H141087   4.819   6.602   1.920  0.3223 -0.8900  1.5083
 6532TIP3    H241088   4.730   6.480   1.934 -0.9193 -0.4350 -1.7970
 6533TIP3   OH241089   1.985   0.615  12.669 -0.1127  0.0205 -0.4713
 6533TIP3    H141090   2.010   0.563  12.592 -1.3010 -0.1906 -0.7368
 6533TIP3    H241091   1.927   0.682  12.634  1.3960  1.5685 -0.1280
 6534TIP3   OH241092   3.955   1.906  11.536 -0.0711  0.0401 -0.1836
 6534TIP3    H141093   3.953   1.952  11.452 -1.2845 -1.5247 -1.0765
 6534TIP3    H241094   4.018   1.835  11.523 -0.5312 -0.4287  0.0776
 6535TIP3   OH241095   4.035   6.337  17.043 -0.4464 -0.1400 -0.3629
 6535TIP3    H141096   3.984   6.371  17.117  0.7130  0.3001  0.2734
 6535TIP3    H241097   4.014   6.396  16.970  0.6403  1.3105  0.4205
 6536TIP3   OH241098   2.144   5.558  11.514 -0.6089  0.2803 -0.7263
 6536TIP3    H141099   2.115   5.645  11.541  0.0388  0.0596  0.7955
 6536TIP3    H241100   2.240   5.564  11.512 -0.5361 -0.5173 -0.1106
 6537TIP3   OH241101   6.212   2.388   4.561  0.6383  0.3724 -0.5051
 6537TIP3    H141102   6.153   2.391   4.635  0.5299 -1.2245 -0.4751
 6537TIP3    H241103   6.276   2.320   4.584  0.9777  0.2937 -1.5982
 6538TIP3   OH241104   5.770   4.825  16.039  0.0137 -0.6952  0.2770
 6538TIP3    H141105   5.775   4.756  16.105  0.5281 -1.0841 -0.1692
 6538TIP3    H241106   5.705   4.794  15.976 -1.0372  0.0103  0.9711
 6539TIP3   OH241107   6.397   3.657   3.183 -0.2018 -0.7425 -0.2600
 6539TIP3    H141108   6.345   3.578   3.167 -0.7181 -0.7854  1.4354
 6539TIP3    H241109   6.466   3.628   3.243  0.1303 -0.0930 -0.3262
 6540TIP3   OH241110   6.035   6.752   4.798 -0.3240 -0.6560  0.2164
 6540TIP3    H141111   6.063   6.716   4.882 -0.5152 -0.1424  0.5016
 6540TIP3    H241112   6.109   6.738   4.740 -0.1326 -0.8746  0.5108
 6541TIP3   OH241113   0.624   5.980   4.949 -0.3614 -0.6323  0.2618
 6541TIP3    H141114   0.534   6.007   4.965 -0.2367 -1.2461  2.3659
 6541TIP3    H241115   0.653   6.034   4.876 -2.2024  0.0684 -0.0049
 6542TIP3   OH241116   6.312   2.237   5.326  0.0471  0.2329 -0.3470
 6542TIP3    H141117   6.259   2.219   5.248 -1.4226 -1.4460  0.9397
 6542TIP3    H241118   6.383   2.173   5.322 -1.5967 -1.8262  0.9951
 6543TIP3   OH241119   1.572   2.884  12.860  0.1114  0.2848 -0.1017
 6543TIP3    H141120   1.595   2.977  12.861  1.4353  0.0006 -1.0910
 6543TIP3    H241121   1.639   2.843  12.805 -1.4400 -1.0104 -1.1259
 6544TIP3   OH241122   6.119   6.616   4.094  0.1449 -0.1000 -0.0732
 6544TIP3    H141123   6.146   6.698   4.134  0.5752 -0.6192  0.7034
 6544TIP3    H241124   6.096   6.640   4.004 -1.0378  1.1046  0.5273
 6545TIP3   OH241125   5.688   4.024  14.139  0.1743 -0.3994  0.0673
 6545TIP3    H141126   5.701   4.058  14.228  1.1319  0.7948 -0.4977
 6545TIP3    H241127   5.774   3.991  14.114 -0.1357 -0.8893 -0.3567
 6546TIP3   OH241128   2.717   2.374  12.145 -0.5052 -0.8630  0.3143
 6546TIP3    H141129   2.626   2.376  12.115 -0.3476  3.1629 -0.5255
 6546TIP3    H241130   2.764   2.325  12.078 -1.6212 -0.3568 -0.8641
 6547TIP3   OH241131   4.581   5.232   3.775  0.6732 -0.2427 -0.8207
 6547TIP3    H141132   4.639   5.285   3.721 -0.8828  0.8470 -1.4825
 6547TIP3    H241133   4.584   5.273   3.861  0.3800  0.2188 -1.0277
 6548TIP3   OH241134   2.066   2.769   0.411 -0.1470 -0.4616 -0.6744
 6548TIP3    H141135   1.987   2.805   0.370 -0.3037 -1.7746 -1.5707
 6548TIP3    H241136   2.121   2.846   0.428 -2.3687  0.7587  1.7796
 6549TIP3   OH241137   1.777   2.932  16.538 -0.1333 -0.4909 -0.2899
 6549TIP3    H141138   1.786   2.839  16.563 -0.8534 -0.5690 -0.3163
 6549TIP3    H241139   1.727   2.930  16.457  0.5722 -0.1190 -0.7385
 6550TIP3   OH241140   0.361   1.926  11.969 -0.3091  0.2883 -0.2213
 6550TIP3    H141141   0.418   1.903  11.896 -0.0623 -0.5676  0.2192
 6550TIP3    H241142   0.416   1.980  12.026 -0.7599  1.6791 -1.0522
 6551TIP3   OH241143   0.362   2.051  16.736 -0.3369 -0.3805  0.1386
 6551TIP3    H141144   0.416   2.011  16.804  0.6002  0.9976  0.2605
 6551TIP3    H241145   0.381   2.145  16.743 -2.7705  0.1781  0.1812
 6552TIP3   OH241146   1.613   5.592  14.896 -0.0028  0.5357 -0.3024
 6552TIP3    H141147   1.628   5.686  14.883 -0.9755  0.4781 -2.1142
 6552TIP3    H241148   1.528   5.587  14.939 -0.8057  0.4558 -1.8480
 6553TIP3   OH241149   4.130   3.913   1.472 -0.3153  0.1001  0.0154
 6553TIP3    H141150   4.221   3.941   1.483 -0.6262  0.5497  1.7646
 6553TIP3    H241151   4.135   3.818   1.465  0.3934  0.2267 -1.4380
 6554TIP3   OH241152   3.585   3.811  11.663 -0.0372  0.0613  0.3525
 6554TIP3    H141153   3.639   3.740  11.629  0.3100 -0.0644  1.1694
 6554TIP3    H241154   3.503   3.804  11.613  1.2406  1.3014 -2.1325
 6555TIP3   OH241155   3.397   4.381   4.206  0.1582  0.1813  0.0591
 6555TIP3    H141156   3.332   4.390   4.275 -1.1816  2.0030 -1.3630
 6555TIP3    H241157   3.375   4.449   4.142  3.3227  0.7542 -0.6056
 6556TIP3   OH241158   1.708   0.989  16.616  0.6291 -0.2787  0.2026
 6556TIP3    H141159   1.729   1.003  16.524 -0.8736 -1.0531 -0.2957
 6556TIP3    H241160   1.637   1.050  16.634 -0.1940 -1.2539  0.3634
 6557TIP3   OH241161   4.202   0.790   2.524  0.6332 -1.3741 -0.0450
 6557TIP3    H141162   4.123   0.770   2.573  0.1908  0.5232  0.0778
 6557TIP3    H241163   4.223   0.709   2.477 -1.8380 -1.6797 -0.7259
 6558TIP3   OH241164   1.173   6.331  11.062  0.6862 -0.0659  0.3684
 6558TIP3    H141165   1.267   6.314  11.049  0.5255 -2.2485  1.4883
 6558TIP3    H241166   1.146   6.266  11.127 -2.0258 -0.8100 -1.3346
 6559TIP3   OH241167   0.526   0.473   0.782  0.8500 -0.5261  0.0268
 6559TIP3    H141168   0.609   0.450   0.823  1.9836 -1.5979 -2.6433
 6559TIP3    H241169   0.550   0.511   0.697 -1.3611 -0.0346 -0.4597
 6560TIP3   OH241170   3.433   2.095  13.261  0.1909 -0.1280  0.5866
 6560TIP3    H141171   3.361   2.157  13.262  0.7066  0.6181 -1.9304
 6560TIP3    H241172   3.511   2.149  13.248  0.9247 -1.1248  0.6916
 6561TIP3   OH241173   3.003   4.580   6.419 -0.4709 -0.7972  0.3302
 6561TIP3    H141174   2.921   4.629   6.425 -0.7405 -1.0665 -0.8230
 6561TIP3    H241175   2.998   4.515   6.489 -1.3632 -0.9681  0.1196
 6562TIP3   OH241176   1.484   2.958  13.098 -0.0107  0.3238  0.6483
 6562TIP3    H141177   1.485   2.891  13.166  1.5186  0.1931  0.5382
 6562TIP3    H241178   1.543   2.924  13.030 -0.1293  1.2437  0.0658
 6563TIP3   OH241179   1.999   6.359   5.224  0.3166 -0.3103  0.2820
 6563TIP3    H141180   2.072   6.320   5.177 -1.3984 -0.9400 -2.0675
 6563TIP3    H241181   1.965   6.287   5.278 -0.5308 -1.0431 -1.1650
 6564TIP3   OH241182   4.346   1.035  15.653  0.4702 -0.3142  0.0954
 6564TIP3    H141183   4.286   1.107  15.669 -1.3661 -1.6254 -0.4672
 6564TIP3    H241184   4.317   0.966  15.713  1.5295 -0.9261 -0.0792
 6565TIP3   OH241185   4.788   5.781   2.183 -0.3339 -0.0108  0.2732
 6565TIP3    H141186   4.826   5.752   2.100  0.8517 -2.1049  1.4555
 6565TIP3    H241187   4.714   5.836   2.158  0.0782 -0.4470 -2.1547
 6566TIP3   OH241188   5.251   2.539  10.334 -0.3726 -0.6718  0.0003
 6566TIP3    H141189   5.184   2.597  10.298 -0.8113 -0.9230  0.4066
 6566TIP3    H241190   5.229   2.453  10.300 -0.9675 -0.9658  1.0937
 6567TIP3   OH241191   0.916   5.481   3.718 -0.3535  0.1455 -0.2068
 6567TIP3    H141192   0.940   5.410   3.658  0.9167  1.1280 -0.9116
 6567TIP3    H241193   0.999   5.508   3.757 -0.8699  0.9780  0.3405
 6568TIP3   OH241194   2.982   0.380   4.961 -0.2697  0.3597  0.2617
 6568TIP3    H141195   3.004   0.436   4.886 -0.1693 -0.8747 -0.6654
 6568TIP3    H241196   2.919   0.317   4.925 -2.1453  1.2269  1.8235
 6569TIP3   OH241197   3.936   2.674  14.373 -0.0692  0.1419  0.1109
 6569TIP3    H141198   4.020   2.708  14.405  0.2886 -0.8351  0.2344
 6569TIP3    H241199   3.918   2.598  14.429  0.1746 -1.1344 -1.4793
 6570TIP3   OH241200   5.377   3.511  10.370 -0.2632  0.0040  0.6489
 6570TIP3    H141201   5.368   3.564  10.291 -0.3312  0.5671  1.0263
 6570TIP3    H241202   5.287   3.495  10.398 -0.2303  0.2640  0.9085
 6571TIP3   OH241203   0.815   4.862   5.372  0.1048 -0.4236 -0.3232
 6571TIP3    H141204   0.785   4.772   5.389 -0.4200 -0.3578 -0.8894
 6571TIP3    H241205   0.847   4.860   5.282 -2.1058  0.4972 -1.2143
 6572TIP3   OH241206   0.516   6.372  16.028 -0.4192  0.2498  0.1805
 6572TIP3    H141207   0.491   6.293  16.078  1.0459 -0.9430 -0.9002
 6572TIP3    H241208   0.600   6.398  16.065 -0.2554  0.5075 -0.3656
 6573TIP3   OH241209   6.477   5.746   1.496  0.2157 -0.3305 -0.2366
 6573TIP3    H141210   6.390   5.712   1.478  0.4222 -0.1347 -1.8015
 6573TIP3    H241211   6.463   5.821   1.553 -1.0240  1.6201 -2.8802
 6574TIP3   OH241212   6.047   4.767  12.194 -0.0020 -0.6060  0.0096
 6574TIP3    H141213   6.083   4.684  12.226 -0.1368 -0.0883  1.6368
 6574TIP3    H241214   5.953   4.762  12.214  0.4376  1.2092  3.4144
 6575TIP3   OH241215   3.806   1.315   0.753  0.2896 -0.1946 -0.5008
 6575TIP3    H141216   3.771   1.398   0.721 -0.3825 -0.2621  0.0403
 6575TIP3    H241217   3.757   1.248   0.705  0.6427 -0.2875 -0.7393
 6576TIP3   OH241218   1.857   0.282  12.594 -0.3876 -0.0395  0.6932
 6576TIP3    H141219   1.930   0.261  12.652  1.0076  0.7356 -0.6674
 6576TIP3    H241220   1.779   0.252  12.640  0.9116 -2.5349  1.4641
 6577TIP3   OH241221   1.920   0.396   5.496  0.0364  0.1493 -1.0610
 6577TIP3    H141222   1.929   0.302   5.511  0.5949  0.2797 -0.5131
 6577TIP3    H241223   1.825   0.411   5.493 -0.1031 -0.1786  0.6137
 6578TIP3   OH241224   5.906   4.391   3.917 -0.4873 -0.4415  0.0071
 6578TIP3    H141225   5.982   4.360   3.866  0.4475 -2.8711  2.6285
 6578TIP3    H241226   5.834   4.334   3.889 -0.4422 -0.5066  0.0220
 6579TIP3   OH241227   0.541   3.254  12.876  0.9841 -0.0588 -0.0396
 6579TIP3    H141228   0.537   3.160  12.892 -0.5407  0.0714  0.4089
 6579TIP3    H241229   0.553   3.261  12.781  0.6286 -0.6910 -0.1366
 6580TIP3   OH241230   2.622   3.619   4.702  0.1110 -0.2780 -0.1340
 6580TIP3    H141231   2.672   3.653   4.776  0.9880  0.4316 -1.0209
 6580TIP3    H241232   2.685   3.565   4.655 -0.2247 -0.1279 -0.7620
 6581TIP3   OH241233   2.731   2.657  12.593  0.3169 -0.3743  0.1223
 6581TIP3    H141234   2.723   2.594  12.522 -0.8384 -0.1043 -0.0038
 6581TIP3    H241235   2.730   2.604  12.673  0.6901 -0.6025 -0.0205
 6582TIP3   OH241236   0.366   5.582  14.452 -0.2581  0.0150  0.0369
 6582TIP3    H141237   0.444   5.527  14.444  0.3543  0.7836  0.6364
 6582TIP3    H241238   0.335   5.592  14.362  0.9314  0.5488 -0.3358
 6583TIP3   OH241239   1.753   0.162  16.985 -0.3490 -0.0372  0.2802
 6583TIP3    H141240   1.819   0.125  17.044  1.3939  2.0044 -0.2459
 6583TIP3    H241241   1.749   0.100  16.912  2.3591  0.5727 -0.5056
 6584TIP3   OH241242   0.318   3.489   0.622  0.0607  0.5659  0.4892
 6584TIP3    H141243   0.301   3.561   0.684  2.5467  2.0607 -0.4381
 6584TIP3    H241244   0.402   3.453   0.650 -0.5031 -1.1177  0.0853
 6585TIP3   OH241245   0.141   0.157   2.138  0.8544 -0.2874 -0.3877
 6585TIP3    H141246   0.074   0.124   2.197  0.8082  0.1116 -0.2156
 6585TIP3    H241247   0.211   0.091   2.142  0.2766 -0.9458 -0.9350
 6586TIP3   OH241248   0.598   3.058  13.634 -0.5996 -0.0963 -0.5033
 6586TIP3    H141249   0.541   3.133  13.618 -1.5357 -0.5857  0.4256
 6586TIP3    H241250   0.554   3.009  13.703  0.2074 -1.2815 -0.8010
 6587TIP3   OH241251   2.039   5.651  14.334 -0.1607  0.0927  0.1338
 6587TIP3    H141252   2.107   5.660  14.402 -0.1089 -3.1432  0.6544
 6587TIP3    H241253   2.082   5.602  14.264 -0.9049  1.3797 -1.2667
 6588TIP3   OH241254   1.018   2.578   5.337  0.0952 -0.3942  0.3505
 6588TIP3    H141255   1.025   2.515   5.409 -2.5570  1.1761  2.1518
 6588TIP3    H241256   1.075   2.650   5.362  0.7543 -0.7245 -0.1762
 6589TIP3   OH241257   5.229   1.452  15.689  0.0586 -0.3198 -0.4175
 6589TIP3    H141258   5.272   1.371  15.661  0.8955 -0.4443  1.0823
 6589TIP3    H241259   5.213   1.501  15.608  0.7438 -1.4006 -1.2308
 6590TIP3   OH241260   4.868   5.109   1.461  0.2914 -0.0300 -0.3105
 6590TIP3    H141261   4.836   5.055   1.534  0.4547  0.7911  0.3798
 6590TIP3    H241262   4.909   5.046   1.401 -1.4943 -0.9780 -0.6332
 6591TIP3   OH241263   2.376   0.275  13.467  0.6942  0.1367  0.0767
 6591TIP3    H141264   2.292   0.236  13.489  1.3497 -0.8081  1.0071
 6591TIP3    H241265   2.422   0.208  13.417  0.2291  1.3186 -2.0201
 6592TIP3   OH241266   4.349   5.442   4.782  0.1026  0.4815 -0.2248
 6592TIP3    H141267   4.292   5.479   4.850  0.7937  1.4133 -0.1271
 6592TIP3    H241268   4.328   5.349   4.781  0.2636  0.3954  1.4769
 6593TIP3   OH241269   3.032   4.581   5.362 -0.8290 -0.1850  0.4949
 6593TIP3    H141270   3.039   4.587   5.267  0.2033  0.0902  0.5712
 6593TIP3    H241271   3.088   4.651   5.395 -2.2630  0.6044  1.3119
 6594TIP3   OH241272   3.076   6.728   0.759 -0.1218  0.4512 -0.3232
 6594TIP3    H141273   3.045   6.809   0.799  3.1482  1.6332  0.0615
 6594TIP3    H241274   3.054   6.736   0.667 -0.4249  1.4395 -0.1707
 6595TIP3   OH241275   2.285   2.953   2.135 -0.0450  0.2814  0.1827
 6595TIP3    H141276   2.360   2.982   2.186 -0.4955 -0.0954  1.0671
 6595TIP3    H241277   2.259   2.870   2.174 -0.2425 -0.1521 -0.8217
 6596TIP3   OH241278   2.337   2.434  12.265  0.1792  0.5472  0.2227
 6596TIP3    H141279   2.277   2.373  12.222 -0.3853  0.7325  0.7308
 6596TIP3    H241280   2.304   2.521  12.241  0.1700  0.6504  0.5999
 6597TIP3   OH241281   3.719   1.271   5.933  0.1719 -0.2398  0.0850
 6597TIP3    H141282   3.669   1.274   6.015 -0.8754  1.4987 -0.5438
 6597TIP3    H241283   3.800   1.317   5.953  0.5181 -1.0252  0.5019
 6598TIP3   OH241284   3.624   6.281  15.321 -0.5998  0.2116 -0.1375
 6598TIP3    H141285   3.561   6.327  15.265 -0.0867  1.9137  0.6092
 6598TIP3    H241286   3.699   6.263  15.264 -0.7738  0.3928 -0.4235
 6599TIP3   OH241287   3.651   0.260  12.039  0.1867  0.2624  0.3265
 6599TIP3    H141288   3.671   0.207  11.962 -1.4082  0.0570  0.0205
 6599TIP3    H241289   3.711   0.229  12.106 -0.6576 -1.9279  0.1537
 6600TIP3   OH241290   1.928   5.870   0.548 -0.1372  0.3263  0.0962
 6600TIP3    H141291   1.912   5.881   0.642  1.5104  2.3907  0.1985
 6600TIP3    H241292   1.858   5.811   0.519 -0.3178 -0.9045  2.7174
 6601TIP3   OH241293   1.240   1.440   5.030  0.0493  0.0658 -0.0338
 6601TIP3    H141294   1.326   1.399   5.020  0.4183  0.9198 -0.4177
 6601TIP3    H241295   1.256   1.519   5.082 -0.1571  1.3164 -1.7929
 6602TIP3   OH241296   6.365   6.236  11.120  0.1560  0.1289 -0.1843
 6602TIP3    H141297   6.333   6.312  11.169 -1.6866 -0.5978 -0.2091
 6602TIP3    H241298   6.307   6.231  11.044  1.9882  0.2993 -1.6707
 6603TIP3   OH241299   1.730   2.821   2.098  0.1505  0.5397  0.3490
 6603TIP3    H141300   1.786   2.744   2.100  1.3490  1.2673 -1.5567
 6603TIP3    H241301   1.746   2.865   2.182  0.4803 -0.5814  0.8898
 6604TIP3   OH241302   3.617   0.979   0.078 -0.6926 -0.3974 -0.1719
 6604TIP3    H141303   3.645   1.056   0.029 -2.0198  0.8577  0.9628
 6604TIP3    H241304   3.686   0.915   0.062 -0.3059  0.4746 -2.3801
 6605TIP3   OH241305   2.650   4.734   3.671 -0.6416 -0.1360 -0.3465
 6605TIP3    H141306   2.697   4.779   3.601 -2.1434  1.8828 -0.1389
 6605TIP3    H241307   2.710   4.735   3.746  0.2617 -0.6760 -1.0407
 6606TIP3   OH241308   4.876   1.550   3.658  0.4810  0.2723  0.0628
 6606TIP3    H141309   4.829   1.534   3.740  2.0481 -1.5220  0.6935
 6606TIP3    H241310   4.878   1.646   3.650 -1.0309  0.4438  1.2937
 6607TIP3   OH241311   2.864   3.427  16.639  0.1515 -0.0888  0.2387
 6607TIP3    H141312   2.890   3.354  16.695 -0.0283  1.0765  1.9226
 6607TIP3    H241313   2.769   3.421  16.634  0.1567 -0.1113  0.1613
 6608TIP3   OH241314   4.738   2.319   5.181 -0.0782  0.0055 -0.5202
 6608TIP3    H141315   4.716   2.347   5.269  2.2825 -0.7674  0.4092
 6608TIP3    H241316   4.779   2.233   5.192  0.3978 -0.0607 -2.3322
 6609TIP3   OH241317   3.421   2.677   2.960 -0.1481 -0.2385 -0.3107
 6609TIP3    H141318   3.460   2.617   3.023 -0.0324  0.8120  0.6458
 6609TIP3    H241319   3.461   2.761   2.978 -0.7511  0.2688 -1.2248
 6610TIP3   OH241320   1.013   2.068   2.352 -0.3904 -0.0026 -1.0022
 6610TIP3    H141321   0.983   2.004   2.287  1.1622 -0.9420 -0.8372
 6610TIP3    H241322   1.054   2.138   2.300  1.3407 -1.0116 -1.0790
 6611TIP3   OH241323   4.265   6.282  16.615  0.0587  0.0537 -0.7335
 6611TIP3    H141324   4.295   6.338  16.685  1.2996 -1.0204 -0.3675
 6611TIP3    H241325   4.345   6.250  16.573 -0.6360  0.6676 -2.6669
 6612TIP3   OH241326   0.410   6.090   5.306 -0.2923 -0.0194  0.6858
 6612TIP3    H141327   0.379   6.102   5.396  2.5440  0.1658  1.7132
 6612TIP3    H241328   0.449   6.174   5.282  0.3893 -0.5460 -0.1195
 6613TIP3   OH241329   0.650   4.093  13.072  0.0146 -0.5136  0.6970
 6613TIP3    H141330   0.574   4.120  13.021  0.4609  0.0764  0.3347
 6613TIP3    H241331   0.641   4.140  13.155 -0.8242 -1.6382  1.2685
 6614TIP3   OH241332   5.040   1.923  14.082  0.0123  0.0599  0.9515
 6614TIP3    H141333   4.950   1.920  14.049  0.4529 -0.6783 -0.2406
 6614TIP3    H241334   5.069   1.832  14.083  1.9798  0.4560 -2.4004
 6615TIP3   OH241335   6.073   5.358  11.943  0.5484  0.3514  1.0183
 6615TIP3    H141336   6.122   5.302  12.002  1.4469 -0.0331 -0.0517
 6615TIP3    H241337   6.098   5.447  11.968  1.2317  0.1782  0.9595
 6616TIP3   OH241338   2.436   2.792   3.979 -0.1074 -0.1240 -0.1939
 6616TIP3    H141339   2.347   2.759   3.972  1.0355 -3.2345 -3.0628
 6616TIP3    H241340   2.486   2.720   4.017  1.3170  1.4512  1.1328
 6617TIP3   OH241341   5.470   2.151  15.747 -0.5953 -0.7707 -0.9452
 6617TIP3    H141342   5.428   2.197  15.819  2.7330  0.5321  0.3705
 6617TIP3    H241343   5.488   2.063  15.782  2.6187  0.3842  0.7063
 6618TIP3   OH241344   5.571   2.191  11.503 -0.2343  0.2115  0.0206
 6618TIP3    H141345   5.649   2.135  11.498  0.1118  0.7364 -0.8533
 6618TIP3    H241346   5.557   2.218  11.412  0.6852  2.9777  0.6078
 6619TIP3   OH241347   3.634   4.457  12.690  0.0764  0.3543 -0.1525
 6619TIP3    H141348   3.652   4.369  12.655  2.6509  0.7853 -0.1353
 6619TIP3    H241349   3.587   4.502  12.621 -1.2064 -0.9830 -0.2010
 6620TIP3   OH241350   4.062   0.580  16.387 -0.6071  0.0365  0.3605
 6620TIP3    H141351   4.115   0.592  16.308 -1.2807  0.1439 -0.0882
 6620TIP3    H241352   4.103   0.506  16.432 -1.3799 -1.3951 -1.1243
 6621TIP3   OH241353   3.189   0.301  10.699 -0.0942  0.3190  0.3679
 6621TIP3    H141354   3.172   0.332  10.788  2.3994 -0.5432  1.2344
 6621TIP3    H241355   3.258   0.236  10.710 -1.3891 -1.5889 -1.9650
 6622TIP3   OH241356   4.602   0.524  10.600  0.0462  0.6764  0.5269
 6622TIP3    H141357   4.536   0.458  10.578  0.3989  0.7213 -0.7647
 6622TIP3    H241358   4.685   0.475  10.603  0.4768  1.1823 -1.5183
 6623TIP3   OH241359   1.918   0.642   4.838 -0.6946 -0.1109  0.1822
 6623TIP3    H141360   1.952   0.587   4.909 -2.0115 -1.1548  0.0500
 6623TIP3    H241361   1.978   0.627   4.765 -0.5931 -0.7621  0.3940
 6624TIP3   OH241362   5.495   2.471   0.143  0.5318 -0.4478  0.0115
 6624TIP3    H141363   5.436   2.496   0.071 -0.6152 -0.1554  1.0113
 6624TIP3    H241364   5.565   2.537   0.141  0.6812 -0.6280 -1.0231
 6625TIP3   OH241365   1.457   1.300   5.437  0.2828 -0.3451  0.0837
 6625TIP3    H141366   1.392   1.262   5.377  1.8170 -2.4750 -0.3390
 6625TIP3    H241367   1.460   1.240   5.511  1.3777  0.0083  0.3498
 6626TIP3   OH241368   3.378   4.898  15.440 -0.1910  0.9439 -0.2033
 6626TIP3    H141369   3.301   4.919  15.494  0.5342 -0.5736  1.5319
 6626TIP3    H241370   3.352   4.822  15.388 -0.3116  1.3066 -0.6785
 6627TIP3   OH241371   4.853   6.439   1.047 -0.3485 -0.8547  0.0683
 6627TIP3    H141372   4.873   6.532   1.045 -0.9704 -0.7217 -0.9818
 6627TIP3    H241373   4.909   6.401   0.980 -1.4649 -0.9099 -0.8806
 6628TIP3   OH241374   4.745   3.652   2.153  0.3063 -1.1061 -0.1326
 6628TIP3    H141375   4.835   3.681   2.135  0.2784  0.8792  2.3196
 6628TIP3    H241376   4.704   3.727   2.195 -1.7323 -2.7928  1.0848
 6629TIP3   OH241377   3.100   0.839   2.248 -0.2823  0.1760  0.1778
 6629TIP3    H141378   3.070   0.773   2.312  1.6973  0.3281  1.3809
 6629TIP3    H241379   3.085   0.798   2.163  2.4056 -2.7148  0.8815
 6630TIP3   OH241380   2.153   6.384  11.635 -0.0970  0.2604 -0.0241
 6630TIP3    H141381   2.222   6.362  11.697 -1.0457 -1.4178  0.4781
 6630TIP3    H241382   2.191   6.454  11.581  2.3251 -1.2252 -0.3591
 6631TIP3   OH241383   4.539   6.192  14.369  0.0069 -0.8015 -0.4438
 6631TIP3    H141384   4.603   6.215  14.301  0.7630  0.5098  0.6508
 6631TIP3    H241385   4.455   6.191  14.323  0.3473  1.2315 -1.2163
 6632TIP3   OH241386   6.555   3.135  15.950  0.3823 -0.1223 -0.3956
 6632TIP3    H141387   6.515   3.058  15.991  1.0183 -0.8954 -1.1850
 6632TIP3    H241388   6.498   3.208  15.975 -1.7550 -1.2174 -1.7768
 6633TIP3   OH241389   6.161   0.971   4.181  0.0656  0.7523 -0.0609
 6633TIP3    H141390   6.116   0.979   4.097 -0.4664  2.0561  0.3120
 6633TIP3    H241391   6.124   0.892   4.221 -1.0201  1.1282 -0.2854
 6634TIP3   OH241392   4.431   0.804  14.265 -0.1568 -0.1684 -0.0882
 6634TIP3    H141393   4.392   0.731  14.313  0.8786  0.4796  1.8118
 6634TIP3    H241394   4.359   0.837  14.211 -1.4204 -0.8475  1.1018
 6635TIP3   OH241395   0.636   3.136   2.261  0.0813 -0.0638  0.7498
 6635TIP3    H141396   0.689   3.119   2.184  2.6221  0.2814  2.3071
 6635TIP3    H241397   0.551   3.164   2.227  1.2541  0.5410 -1.8883
 6636TIP3   OH241398   3.502   0.275   2.921  0.1482 -0.2461 -0.4612
 6636TIP3    H141399   3.564   0.271   2.848  1.3152 -0.8602  0.5343
 6636TIP3    H241400   3.451   0.355   2.904  2.9773  1.7959  0.0416
 6637TIP3   OH241401   0.617   6.215   5.890  0.0896  0.1995 -0.2994
 6637TIP3    H141402   0.540   6.159   5.894 -0.9003  1.5821  1.1988
 6637TIP3    H241403   0.585   6.298   5.856  0.9525  0.7270  0.1269
 6638TIP3   OH241404   1.450   3.724  11.244  0.1056 -0.0710  0.2390
 6638TIP3    H141405   1.437   3.632  11.218 -1.5067  0.3800 -0.6882
 6638TIP3    H241406   1.522   3.754  11.189  0.1103 -0.5602 -0.0316
 6639TIP3   OH241407   6.654   0.789  12.955 -0.4884  0.1462  0.0792
 6639TIP3    H141408   6.699   0.839  12.887 -0.1556 -0.0279  0.1710
 6639TIP3    H241409   6.642   0.702  12.918 -0.8230  0.2166  0.0250
 6640TIP3   OH241410   1.238   5.784  12.059 -0.3767 -0.0048 -0.3055
 6640TIP3    H141411   1.218   5.691  12.046  1.2497 -0.2257 -1.5549
 6640TIP3    H241412   1.330   5.792  12.035  0.2286  1.4963  2.1363
 6641TIP3   OH241413   3.693   3.776   3.862 -0.1315 -0.1045 -0.0920
 6641TIP3    H141414   3.623   3.841   3.863  0.0250  0.0663  0.2367
 6641TIP3    H241415   3.683   3.730   3.779  0.5040  1.1602 -0.9094
 6642TIP3   OH241416   3.975   1.288   4.617  0.4080  0.5503 -0.1002
 6642TIP3    H141417   4.055   1.296   4.669  0.1590  0.3366  0.3191
 6642TIP3    H241418   3.944   1.199   4.634  0.2498  0.5263 -0.5079
 6643TIP3   OH241419   6.579   5.714  15.521  0.0367 -0.7570 -0.3126
 6643TIP3    H141420   6.663   5.693  15.479 -0.1916 -1.3815 -0.4681
 6643TIP3    H241421   6.546   5.629  15.550  0.3839 -0.2953  1.5064
 6644TIP3   OH241422   4.976   6.766  15.284  0.3326  0.2340  0.3265
 6644TIP3    H141423   4.924   6.708  15.228  0.2823 -0.3140  0.9366
 6644TIP3    H241424   5.053   6.787  15.232  0.4489 -0.5457  0.1840
 6645TIP3   OH241425   3.440   4.963  12.957 -0.0135  0.2765  0.0932
 6645TIP3    H141426   3.493   5.036  12.925 -0.1124  0.8450  1.1469
 6645TIP3    H241427   3.475   4.946  13.045 -1.0907  0.1875  0.5196
 6646TIP3   OH241428   3.113   1.619   1.950  0.6218  0.3032  0.3053
 6646TIP3    H141429   3.119   1.550   1.884 -0.6924 -1.1835  1.6645
 6646TIP3    H241430   3.094   1.698   1.900 -2.9961 -1.2094 -1.0219
 6647TIP3   OH241431   2.345   1.507   0.168  0.6262 -0.0216  1.1535
 6647TIP3    H141432   2.395   1.538   0.244 -1.4247  2.7061  1.5488
 6647TIP3    H241433   2.260   1.481   0.205 -0.1555  0.6940 -0.0806
 6648TIP3   OH241434   0.634   2.822  12.048 -0.0891  0.1275 -0.5544
 6648TIP3    H141435   0.569   2.874  12.001  1.6939  1.9725 -1.1726
 6648TIP3    H241436   0.681   2.886  12.102  0.3843 -1.3479  0.8667
 6649TIP3   OH241437   4.282   0.460  10.869  0.3812  0.2364  0.2289
 6649TIP3    H141438   4.358   0.456  10.927 -0.2206  0.5467  1.0633
 6649TIP3    H241439   4.261   0.369  10.849  1.0037  0.1517 -0.0618
 6650TIP3   OH241440   0.424   1.037  16.958 -0.1406 -0.4088 -1.0237
 6650TIP3    H141441   0.507   0.992  16.944  0.5999  0.7482 -0.5182
 6650TIP3    H241442   0.403   1.075  16.873 -0.1569 -0.7047 -1.1531
 6651TIP3   OH241443   4.655   4.919  17.197  0.4219  0.1698  0.0006
 6651TIP3    H141444   4.712   4.843  17.206  0.6828  0.2878 -0.6053
 6651TIP3    H241445   4.606   4.923  17.279 -0.1679 -1.1116 -0.2621
 6652TIP3   OH241446   4.300   3.735   5.952  0.1830 -0.0814 -0.0029
 6652TIP3    H141447   4.280   3.753   5.860  0.6782  0.0648 -0.0850
 6652TIP3    H241448   4.217   3.747   5.998 -0.6572 -2.5253 -0.7568
 6653TIP3   OH241449   4.583   0.473  13.515 -0.5909  0.2730  0.4146
 6653TIP3    H141450   4.544   0.538  13.457 -0.7552  0.3810  0.6435
 6653TIP3    H241451   4.670   0.457  13.479 -1.5051 -1.3528 -1.2039
 6654TIP3   OH241452   2.075   2.023   5.279  0.0004  0.0325 -0.6675
 6654TIP3    H141453   2.095   2.097   5.337  0.6304  0.6263 -1.6088
 6654TIP3    H241454   2.109   2.050   5.194 -0.6200 -0.9569 -1.2457
 6655TIP3   OH241455   1.812   3.143   3.697 -0.0793 -0.1998 -0.2666
 6655TIP3    H141456   1.802   3.206   3.768 -0.9857  0.6254 -1.0898
 6655TIP3    H241457   1.883   3.178   3.644  0.0827 -0.4050 -0.1866
 6656TIP3   OH241458   3.567   4.765   3.617  0.1907 -0.3174 -0.0814
 6656TIP3    H141459   3.601   4.827   3.682  3.6707  0.6936 -2.5512
 6656TIP3    H241460   3.530   4.821   3.548 -0.0128 -1.1614 -0.6706
 6657TIP3   OH241461   3.591   0.094  15.238  0.2019 -0.2180 -0.3243
 6657TIP3    H141462   3.582   0.105  15.332 -0.7548  1.0349 -0.5389
 6657TIP3    H241463   3.660   0.155  15.213 -1.1391  1.1703 -0.7330
 6658TIP3   OH241464   3.963   1.721  16.816  0.0100 -0.2427 -0.3626
 6658TIP3    H141465   3.888   1.749  16.763 -1.1345 -0.5097  1.0290
 6658TIP3    H241466   3.942   1.753  16.904  1.5443 -0.3424  0.0598
 6659TIP3   OH241467   0.461   4.018   5.892  0.6948  0.3267  0.2518
 6659TIP3    H141468   0.513   3.941   5.917 -0.7200 -0.5988  0.4939
 6659TIP3    H241469   0.513   4.092   5.923  1.6006 -0.5709  0.9913
 6660TIP3   OH241470   1.814   5.653  11.969  0.1779 -0.0687  0.3876
 6660TIP3    H141471   1.860   5.604  12.038 -0.3240  0.9995  1.5150
 6660TIP3    H241472   1.881   5.673  11.904  0.7032 -0.9055  0.6535
 6661TIP3   OH241473   4.545   0.579   0.928 -0.1425  0.2784 -0.4602
 6661TIP3    H141474   4.493   0.543   0.856  0.2283  0.7055 -0.9450
 6661TIP3    H241475   4.487   0.643   0.970 -0.5259 -0.3039 -0.0777
 6662TIP3   OH241476   3.461   2.385  11.814 -0.1174  0.7177 -0.5417
 6662TIP3    H141477   3.480   2.332  11.737 -1.7622  0.2179 -0.6438
 6662TIP3    H241478   3.371   2.363  11.837  0.0871  1.3955  1.0979
 6663TIP3   OH241479   0.038   3.795   2.625 -0.1518 -0.2800 -0.2513
 6663TIP3    H141480  -0.049   3.804   2.664 -0.5559  1.0260 -1.3629
 6663TIP3    H241481   0.099   3.812   2.696 -0.7186 -2.9739  0.9844
 6664TIP3   OH241482   0.012   2.032  11.117 -0.3336 -0.3306 -0.4865
 6664TIP3    H141483  -0.061   1.992  11.069  0.3356 -1.7704 -0.3788
 6664TIP3    H241484   0.079   2.046  11.050  0.2783 -1.5410 -0.1617
 6665TIP3   OH241485   1.837   0.895  15.338  0.2556  0.2732  0.3285
 6665TIP3    H141486   1.748   0.869  15.361 -0.3571  2.5283  0.7918
 6665TIP3    H241487   1.827   0.941  15.254  1.3969 -1.6266 -0.9072
 6666TIP3   OH241488   4.055   2.033  15.834  0.0966  0.1397 -0.3124
 6666TIP3    H141489   4.047   2.128  15.845  1.7773  0.2862 -0.1000
 6666TIP3    H241490   3.971   2.006  15.798 -1.0544  1.4616  1.2384
 6667TIP3   OH241491   6.331   5.504   1.059  0.0561 -0.1831 -0.2770
 6667TIP3    H141492   6.369   5.420   1.032  0.6387 -0.6603  1.8267
 6667TIP3    H241493   6.236   5.491   1.050  0.0814 -1.4224  0.8448
 6668TIP3   OH241494   0.518   4.268   4.279 -0.1188  0.4872 -0.7617
 6668TIP3    H141495   0.501   4.176   4.300 -1.4902  0.7121 -0.7635
 6668TIP3    H241496   0.461   4.317   4.338  0.4908  1.3420 -0.8596
 6669TIP3   OH241497   5.002   1.494   3.214 -0.3465 -0.4783 -0.1734
 6669TIP3    H141498   4.922   1.546   3.221  0.3803  0.8647 -1.1665
 6669TIP3    H241499   5.071   1.554   3.243  0.4274 -1.2231 -0.4389
 6670TIP3   OH241500   3.324   0.832  15.160  0.5114 -0.4509 -0.4037
 6670TIP3    H141501   3.356   0.757  15.209 -1.7075 -0.9414  0.4154
 6670TIP3    H241502   3.391   0.900  15.173  1.3865 -1.5081  0.8527
 6671TIP3   OH241503   2.495   1.318   1.056 -0.3117 -0.2105 -0.0404
 6671TIP3    H141504   2.423   1.381   1.064  0.1257  0.1405  1.4877
 6671TIP3    H241505   2.457   1.245   1.007 -1.9373 -0.3000  1.2290
 6672TIP3   OH241506   6.433   1.480   1.602 -0.4950 -0.0536  0.6473
 6672TIP3    H141507   6.411   1.496   1.694  0.6181  1.0175  0.7480
 6672TIP3    H241508   6.524   1.507   1.594 -0.2392 -1.1952 -0.5323
 6673TIP3   OH241509   0.865   0.717   3.639 -0.2378 -0.0672 -0.4063
 6673TIP3    H141510   0.801   0.782   3.668 -0.9989  0.3138 -2.7673
 6673TIP3    H241511   0.848   0.641   3.695 -3.2187 -0.2135 -1.3388
 6674TIP3   OH241512   6.773   5.197  10.868 -0.6681 -1.0571  0.3586
 6674TIP3    H141513   6.730   5.267  10.916  1.0580 -0.4829  1.1688
 6674TIP3    H241514   6.845   5.241  10.822  1.1936 -2.3984  1.8313
 6675TIP3   OH241515   6.734   1.064  12.565 -0.7754  0.2916 -0.2543
 6675TIP3    H141516   6.797   1.036  12.499 -0.4437 -0.1461  0.2283
 6675TIP3    H241517   6.786   1.116  12.627 -1.2637  1.4777 -0.8093
 6676TIP3   OH241518   4.853   3.110   5.887 -0.4197 -0.1781  0.3129
 6676TIP3    H141519   4.914   3.051   5.932  0.5429  0.2593 -0.3933
 6676TIP3    H241520   4.900   3.194   5.883 -2.1758  1.0148  2.2937
 6677TIP3   OH241521   0.181   0.273  14.764 -0.5208  0.5532 -0.0985
 6677TIP3    H141522   0.251   0.291  14.826 -0.3487  1.1726 -0.4620
 6677TIP3    H241523   0.215   0.203  14.708  0.0724  1.3085 -0.6912
 6678TIP3   OH241524   1.031   3.825   4.591 -0.7164  0.2491  0.4262
 6678TIP3    H141525   0.944   3.798   4.620 -0.8311  0.3809  0.2051
 6678TIP3    H241526   1.040   3.915   4.620 -0.8100  0.3632  0.1012
 6679TIP3   OH241527   4.445   4.395   4.719 -0.6117 -0.7272 -0.1955
 6679TIP3    H141528   4.424   4.417   4.628  2.0190  3.0595 -0.1053
 6679TIP3    H241529   4.518   4.333   4.712  1.7415  1.9076 -0.9342
 6680TIP3   OH241530   1.422   3.178   3.916 -0.2228  0.1021  0.3294
 6680TIP3    H141531   1.442   3.168   4.009 -2.1023 -3.0436  0.5271
 6680TIP3    H241532   1.327   3.175   3.911 -0.1437 -0.3437 -1.7539
 6681TIP3   OH241533   2.845   1.373   6.220 -0.3159 -0.3967  0.2077
 6681TIP3    H141534   2.806   1.290   6.191 -0.7363 -0.4111  0.8055
 6681TIP3    H241535   2.792   1.440   6.176  0.1151 -0.4363 -0.3919
 6682TIP3   OH241536   0.544   3.194   3.894 -0.8519  0.2168  0.2302
 6682TIP3    H141537   0.561   3.288   3.889  1.9993 -0.2366 -0.3318
 6682TIP3    H241538   0.453   3.184   3.865 -0.9621  2.7102 -0.4902
 6683TIP3   OH241539   1.576   0.886  13.828 -0.0911  0.6333  0.0787
 6683TIP3    H141540   1.541   0.798  13.813 -1.5217  1.0720  0.7504
 6683TIP3    H241541   1.525   0.942  13.771  1.8473  0.8808 -1.5233
 6684TIP3   OH241542   1.795   2.311   2.301 -0.0705 -0.6095  0.3442
 6684TIP3    H141543   1.780   2.337   2.392 -0.6500 -0.3950  0.1904
 6684TIP3    H241544   1.855   2.237   2.307 -0.8001 -1.1694  0.9528
 6685TIP3   OH241545   1.211   2.504   1.020  0.2060 -0.3001  0.3012
 6685TIP3    H141546   1.182   2.415   0.999 -2.4765  0.2994  1.1612
 6685TIP3    H241547   1.160   2.561   0.962 -0.5810  0.8384  2.0331
 6686TIP3   OH241548   1.661   1.253   4.795  0.4616 -0.2030  0.6818
 6686TIP3    H141549   1.728   1.232   4.730  1.2013  1.0963  0.9849
 6686TIP3    H241550   1.674   1.346   4.814  0.1195 -0.4831  2.5142
 6687TIP3   OH241551   3.579   2.404   1.643 -0.3859  0.2563 -0.1418
 6687TIP3    H141552   3.529   2.473   1.687  1.9506  2.3839 -0.5534
 6687TIP3    H241553   3.648   2.451   1.597  1.0973 -2.3810 -0.8032
 6688TIP3   OH241554   4.084   3.261  15.871  0.3227  0.1328 -0.0935
 6688TIP3    H141555   4.081   3.347  15.912  1.2703  0.5610 -0.8711
 6688TIP3    H241556   4.177   3.240  15.865  0.0915 -2.1781  2.5021
 6689TIP3   OH241557   5.914   4.521  11.896  0.4032 -0.5796 -0.0054
 6689TIP3    H141558   5.832   4.472  11.901 -0.2886  0.3791 -1.3813
 6689TIP3    H241559   5.936   4.522  11.803  0.5818  1.3785  0.0138
 6690TIP3   OH241560   3.894   6.575  16.467 -0.0720  0.2074  0.1937
 6690TIP3    H141561   3.989   6.566  16.473  0.1319  0.3706 -1.9049
 6690TIP3    H241562   3.865   6.591  16.556  1.7386 -1.0376  1.0494
 6691TIP3   OH241563   1.187   4.742   2.294 -0.0417 -0.0821  0.1348
 6691TIP3    H141564   1.241   4.672   2.332  0.4201 -0.3695 -1.0135
 6691TIP3    H241565   1.109   4.744   2.349  0.0718 -1.3035  0.3761
 6692TIP3   OH241566   5.254   6.251   2.543 -0.1459 -0.0770  0.3018
 6692TIP3    H141567   5.238   6.247   2.638  0.7963 -2.4764  0.4184
 6692TIP3    H241568   5.202   6.179   2.507 -0.3526  0.7025 -1.0051
 6693TIP3   OH241569   5.320   6.355  13.277 -0.5539 -0.1273  0.1394
 6693TIP3    H141570   5.357   6.442  13.259  1.3352 -1.0212 -0.5075
 6693TIP3    H241571   5.229   6.363  13.250 -0.1859  1.3876 -0.8306
 6694TIP3   OH241572   4.114   3.916  11.473  0.0036  0.3734 -0.8456
 6694TIP3    H141573   4.193   3.959  11.505 -0.9583  0.8052  1.1135
 6694TIP3    H241574   4.088   3.858  11.545 -2.3456  1.4803 -0.6963
 6695TIP3   OH241575   6.656   4.192  11.914  0.5553  0.3560  0.0915
 6695TIP3    H141576   6.671   4.098  11.906 -0.5405  0.2540 -1.0069
 6695TIP3    H241577   6.655   4.225  11.824 -1.1161  1.0595  0.3174
 6696TIP3   OH241578   0.188   4.693   3.584  0.1745 -0.7747  0.1675
 6696TIP3    H141579   0.223   4.690   3.673 -1.1499 -0.4699  0.7269
 6696TIP3    H241580   0.095   4.715   3.596  0.2624  0.6519 -1.3578
 6697TIP3   OH241581   4.295   2.334   4.024  0.1979 -0.2073  0.1698
 6697TIP3    H141582   4.212   2.285   4.016 -0.8746  1.5295  0.2460
 6697TIP3    H241583   4.274   2.422   3.992  1.8592  0.4436  0.8002
 6698TIP3   OH241584   0.852   2.780  13.780  0.0997 -0.2555  0.3439
 6698TIP3    H141585   0.798   2.788  13.859  0.2573 -0.5596  0.4857
 6698TIP3    H241586   0.795   2.735  13.718  0.3724 -1.0635  0.6734
 6699TIP3   OH241587   5.515   3.195  11.563 -0.2503 -0.2632  0.1733
 6699TIP3    H141588   5.531   3.174  11.471 -1.2681 -1.6231  0.2685
 6699TIP3    H241589   5.506   3.110  11.605  2.6288  0.2160  2.0542
 6700TIP3   OH241590   4.767   2.298   4.168  0.0674  0.3456 -0.1955
 6700TIP3    H141591   4.747   2.218   4.120  0.2005 -0.3034  0.8222
 6700TIP3    H241592   4.723   2.288   4.252  2.4268  0.0337  1.0806
 6701TIP3   OH241593   2.609   3.557   2.971  0.9729  0.2826 -0.2979
 6701TIP3    H141594   2.616   3.557   2.875  0.9764  0.7128 -0.2979
 6701TIP3    H241595   2.616   3.464   2.995 -0.9871 -0.0502 -0.8628
 6702TIP3   OH241596   1.903   6.302  15.210  0.2705 -0.0834  0.5425
 6702TIP3    H141597   1.985   6.349  15.225 -0.6106  2.7148 -2.3250
 6702TIP3    H241598   1.835   6.366  15.229 -1.1990 -1.5849  0.5360
 6703TIP3   OH241599   1.795   0.608  15.352  0.5157  0.3469 -0.2240
 6703TIP3    H141600   1.719   0.658  15.383 -0.9165 -1.4794 -0.6141
 6703TIP3    H241601   1.868   0.671  15.354 -1.2542  2.5593 -1.1416
 6704TIP3   OH241602   2.211   2.051  11.424 -0.7974 -0.1465 -0.2519
 6704TIP3    H141603   2.266   2.051  11.346 -0.2917 -1.8477  0.0530
 6704TIP3    H241604   2.235   1.970  11.469 -3.0440 -0.5591  0.2835
 6705TIP3   OH241605   1.968   5.312   1.119  0.6960  0.0937 -0.0282
 6705TIP3    H141606   2.021   5.256   1.062 -1.3843 -1.8155 -0.2380
 6705TIP3    H241607   1.893   5.337   1.065  1.2402  2.7117  0.2696
 6706TIP3   OH241608   1.253   3.651  16.375  0.0519  0.4498 -0.0312
 6706TIP3    H141609   1.277   3.596  16.301  1.9545  0.7826  0.2801
 6706TIP3    H241610   1.162   3.628  16.395  0.1982 -1.1732 -1.1014
 6707TIP3   OH241611   5.987   6.465   0.614  0.2482 -0.0462  0.4946
 6707TIP3    H141612   5.931   6.411   0.559  0.8122 -0.0747 -0.0734
 6707TIP3    H241613   5.934   6.541   0.636  0.1077  0.1009 -0.3295
 6708TIP3   OH241614   4.405   6.775  11.898 -0.8352  0.0030 -0.3790
 6708TIP3    H141615   4.472   6.832  11.936  0.4394 -2.0786  0.6578
 6708TIP3    H241616   4.324   6.827  11.905  0.1783  1.5336  0.8580
 6709TIP3   OH241617   4.099   0.662  17.241 -0.1951 -0.3392 -0.4849
 6709TIP3    H141618   4.023   0.620  17.201 -1.5502  1.0103  0.5644
 6709TIP3    H241619   4.093   0.754  17.213  0.3841  0.0274  0.5539
 6710TIP3   OH241620   6.650   3.655  12.364  0.2922  0.1061 -0.4830
 6710TIP3    H141621   6.618   3.565  12.358  0.0949  0.2164 -1.2514
 6710TIP3    H241622   6.745   3.648  12.355  0.1658  0.0884 -2.3108
 6711TIP3   OH241623   0.602   5.488   4.806 -0.2165  0.4290 -0.2048
 6711TIP3    H141624   0.673   5.543   4.842 -0.8183  2.6195 -2.1138
 6711TIP3    H241625   0.527   5.507   4.862  0.2267 -0.5435  0.7524
 6712TIP3   OH241626   2.790   2.516  14.203  0.4347 -0.3399 -0.3055
 6712TIP3    H141627   2.866   2.574  14.200  2.2905 -2.4132  2.1088
 6712TIP3    H241628   2.791   2.471  14.119 -0.3288  2.1372 -1.7266
 6713TIP3   OH241629   5.430   3.582   2.915 -0.1353 -0.5439  0.4839
 6713TIP3    H141630   5.491   3.578   2.988  0.1025 -1.3663  0.2519
 6713TIP3    H241631   5.484   3.599   2.838 -0.4961  1.3870  0.6172
 6714TIP3   OH241632   2.616   3.151  14.713 -0.2822  0.5564  0.2022
 6714TIP3    H141633   2.591   3.063  14.686  2.1984  0.1929 -1.1045
 6714TIP3    H241634   2.551   3.208  14.671 -0.1985 -0.4611 -1.3699
 6715TIP3   OH241635   5.693   2.258  15.614 -0.4164 -0.2688  0.3379
 6715TIP3    H141636   5.740   2.287  15.693 -1.3558  1.8875  0.1682
 6715TIP3    H241637   5.630   2.194  15.646 -0.0652 -0.2033  1.1937
 6716TIP3   OH241638   3.815   3.504   0.313  0.4397  0.4277 -0.0329
 6716TIP3    H141639   3.768   3.499   0.230 -0.0533 -0.8138  0.3001
 6716TIP3    H241640   3.905   3.480   0.291 -0.0362 -1.5503  0.0398
 6717TIP3   OH241641   3.987   3.697   3.450  0.2518  0.6073 -0.2371
 6717TIP3    H141642   3.970   3.621   3.396 -0.0254 -0.3945  1.1953
 6717TIP3    H241643   4.074   3.727   3.423 -0.1793  0.6081 -1.7241
 6718TIP3   OH241644   2.363   0.264  12.426  0.0591 -0.2639 -0.1499
 6718TIP3    H141645   2.431   0.199  12.444  0.0838 -0.4322 -0.8265
 6718TIP3    H241646   2.326   0.237  12.342 -1.3272 -0.6026  0.5281
 6719TIP3   OH241647   3.524   1.371   4.519  0.2947  0.1467  0.2544
 6719TIP3    H141648   3.537   1.283   4.484 -0.1593 -0.1112  0.7251
 6719TIP3    H241649   3.431   1.375   4.542 -0.6552  2.0269 -3.2343
 6720TIP3   OH241650   5.866   5.590   0.978 -0.0261  0.0811  0.1437
 6720TIP3    H141651   5.869   5.497   0.957  0.1848  0.4297 -1.4757
 6720TIP3    H241652   5.782   5.621   0.943  1.5033  1.2333 -2.8410
 6721TIP3   OH241653   0.213   0.735   0.712 -0.5004 -0.1420  0.2980
 6721TIP3    H141654   0.210   0.803   0.644  0.4390  2.2582  2.4757
 6721TIP3    H241655   0.166   0.773   0.786  0.2669 -1.7704  1.6992
 6722TIP3   OH241656   3.453   6.107   6.220 -0.2500  0.6262 -0.2776
 6722TIP3    H141657   3.520   6.096   6.287 -0.1727 -0.0609 -0.4609
 6722TIP3    H241658   3.404   6.184   6.248  0.8408  1.3593 -0.3395
 6723TIP3   OH241659   0.809   5.534  15.594 -0.2072 -0.4489 -0.0653
 6723TIP3    H141660   0.808   5.628  15.612  1.5787 -0.0248 -1.9200
 6723TIP3    H241661   0.781   5.527  15.503 -1.2689 -1.8329  0.3354
 6724TIP3   OH241662   3.312   2.813  11.140 -0.5198 -0.6049  0.1373
 6724TIP3    H141663   3.357   2.896  11.124  0.2120 -0.9942  0.1562
 6724TIP3    H241664   3.237   2.815  11.081 -1.5542  0.8780  1.4175
 6725TIP3   OH241665   1.490   1.722   3.063  0.6365 -0.5023  0.1246
 6725TIP3    H141666   1.554   1.776   3.109  0.9564 -1.1840  0.4782
 6725TIP3    H241667   1.533   1.638   3.051 -0.1823 -0.9606  0.3456
 6726TIP3   OH241668   1.772   2.902  13.234  0.1232 -0.1238  0.2894
 6726TIP3    H141669   1.719   2.980  13.217  0.3750  0.2201  1.0660
 6726TIP3    H241670   1.863   2.932  13.224  0.2044 -0.9950 -2.2935
 6727TIP3   OH241671   5.311   0.615   3.388 -0.2293 -0.1602  0.0031
 6727TIP3    H141672   5.355   0.563   3.455 -1.1074 -0.7996  0.1027
 6727TIP3    H241673   5.282   0.694   3.434  0.3429  0.0164  0.0599
 6728TIP3   OH241674   3.368   2.958   1.084  0.1061  0.4294  0.6458
 6728TIP3    H141675   3.323   2.949   1.000  1.3143 -0.2244  0.0408
 6728TIP3    H241676   3.301   2.941   1.150 -0.1590 -2.5960 -0.2564
 6729TIP3   OH241677   5.221   4.511  14.193 -0.1154 -0.5445 -0.3846
 6729TIP3    H141678   5.172   4.509  14.110  0.2161  0.7032 -0.6410
 6729TIP3    H241679   5.158   4.481  14.258 -0.7612 -0.4142 -0.9290
 6730TIP3   OH241680   4.516   5.243  15.184  0.0717  0.0006  0.3305
 6730TIP3    H141681   4.504   5.321  15.129 -1.7287 -0.9529 -0.7378
 6730TIP3    H241682   4.524   5.171  15.121  1.9569 -0.6900  1.2946
 6731TIP3   OH241683   4.842   1.401   1.422 -0.1769  0.6303  0.0182
 6731TIP3    H141684   4.820   1.309   1.410 -0.5161  0.7170 -0.0511
 6731TIP3    H241685   4.918   1.401   1.480  0.9218  0.2447 -1.3861
 6732TIP3   OH241686   4.745   2.364   5.918  0.4873 -0.1106 -0.1987
 6732TIP3    H141687   4.651   2.383   5.927  0.9494  1.6626  1.7486
 6732TIP3    H241688   4.753   2.271   5.941 -0.5435  0.3296  2.2724
 6733TIP3   OH241689   3.443   1.019  17.113  0.1729  0.5674 -0.4423
 6733TIP3    H141690   3.504   1.076  17.067 -0.4458 -0.1896 -2.2868
 6733TIP3    H241691   3.493   0.984  17.187  2.8975 -1.9760 -3.2070
 6734TIP3   OH241692   4.020   6.575  16.188 -0.2881 -0.2073 -0.8964
 6734TIP3    H141693   4.039   6.489  16.225 -0.5642 -0.2446 -0.8384
 6734TIP3    H241694   4.070   6.636  16.243 -0.8348 -0.2479 -0.3493
 6735TIP3   OH241695   2.598   3.468  12.190 -0.2382 -0.0190 -0.3679
 6735TIP3    H141696   2.612   3.523  12.267  3.7533 -0.6100 -0.4789
 6735TIP3    H241697   2.559   3.388  12.225  3.0599 -0.9895  1.4978
 6736TIP3   OH241698   1.272   4.801  16.306  0.3842 -0.3485  0.1773
 6736TIP3    H141699   1.339   4.832  16.368  0.3225 -1.2251  0.7053
 6736TIP3    H241700   1.250   4.713  16.337  0.5975 -0.9491 -1.3059
 6737TIP3   OH241701   3.390   0.952   0.690  0.3066  0.1606  0.3228
 6737TIP3    H141702   3.334   0.915   0.622 -0.2706 -0.2376  0.9858
 6737TIP3    H241703   3.470   0.900   0.686  0.1242 -0.1158  0.1982
 6738TIP3   OH241704   5.913   3.786  14.815  0.3809  0.2510  0.0816
 6738TIP3    H141705   5.984   3.755  14.758 -0.5141  1.1819 -1.5914
 6738TIP3    H241706   5.871   3.705  14.846  0.8832 -0.2792 -0.5810
 6739TIP3   OH241707   0.873   1.780   1.173  0.1099  0.2622  0.5316
 6739TIP3    H141708   0.867   1.865   1.130  1.4748 -0.7234 -1.7548
 6739TIP3    H241709   0.791   1.736   1.151 -0.3824  0.7708  1.3016
 6740TIP3   OH241710   3.201   2.334   4.837  0.8355 -0.1717  0.5820
 6740TIP3    H141711   3.158   2.419   4.843  0.2376 -0.5318  1.6100
 6740TIP3    H241712   3.239   2.320   4.924 -0.1793 -1.5250  0.8451
 6741TIP3   OH241713   2.144   1.755  13.357 -0.0345 -0.0224 -1.1037
 6741TIP3    H141714   2.138   1.851  13.362  2.1362  0.1049  1.3587
 6741TIP3    H241715   2.064   1.729  13.311 -1.6890  2.8466 -0.1747
 6742TIP3   OH241716   2.951   4.851   7.200  0.0267  0.2047  0.3304
 6742TIP3    H141717   2.987   4.921   7.145  0.1040  1.7451  2.2295
 6742TIP3    H241718   3.013   4.779   7.190  0.3473  0.6416 -1.1133
 6743TIP3   OH241719   1.430   4.058   0.049 -0.5672  0.0727  0.2918
 6743TIP3    H141720   1.437   4.127   0.116 -1.0071  0.1063  0.3038
 6743TIP3    H241721   1.443   4.104  -0.034  1.6640 -0.2110  0.4076
 6744TIP3   OH241722   1.599   1.571  14.268  0.3991 -0.1121  0.1893
 6744TIP3    H141723   1.658   1.628  14.220  0.3254  0.7093  1.0410
 6744TIP3    H241724   1.532   1.630  14.304  0.3743 -0.7046  1.1638
 6745TIP3   OH241725   4.651   6.538   6.055 -0.0349 -0.1171 -0.3773
 6745TIP3    H141726   4.594   6.467   6.026  0.3501 -0.0163 -1.4472
 6745TIP3    H241727   4.718   6.494   6.108 -0.8054 -0.2978  0.4737
 6746TIP3   OH241728   4.361   4.537   0.172 -0.1467 -0.6027  0.9469
 6746TIP3    H141729   4.312   4.454   0.171  0.0297 -0.8723 -2.8185
 6746TIP3    H241730   4.442   4.517   0.125 -0.5706  1.8781 -1.0578
 6747TIP3   OH241731   2.876   2.838  13.996 -0.0321 -0.4331  0.2042
 6747TIP3    H141732   2.819   2.793  13.934  0.1237 -0.6566  0.2218
 6747TIP3    H241733   2.877   2.929  13.967 -1.9962  0.0002  1.3602
 6748TIP3   OH241734   1.604   2.731   5.430  0.2315 -0.1023  0.3613
 6748TIP3    H141735   1.549   2.724   5.508 -0.3278 -1.4054 -0.1147
 6748TIP3    H241736   1.546   2.709   5.358  0.4814  2.0851 -0.5646
 6749TIP3   OH241737   5.748   5.500   2.127  0.0190  0.1797 -0.1022
 6749TIP3    H141738   5.675   5.541   2.080  1.4807 -0.0036 -2.7204
 6749TIP3    H241739   5.706   5.438   2.187 -2.0026  0.6089 -0.9690
 6750TIP3   OH241740   6.397   5.937   3.401  0.4549 -0.2225 -0.7018
 6750TIP3    H141741   6.469   5.881   3.429  1.6075  1.2028 -0.6936
 6750TIP3    H241742   6.426   6.026   3.422 -0.8798  0.4737 -1.6276
 6751TIP3   OH241743   5.311   2.348  14.223 -0.5127  0.2139  0.0365
 6751TIP3    H141744   5.371   2.368  14.151  0.2934 -1.0336  0.3153
 6751TIP3    H241745   5.262   2.429  14.237  1.8354  1.6735  0.4930
 6752TIP3   OH241746   5.703   5.452  17.106 -0.5265  0.0426 -0.1974
 6752TIP3    H141747   5.676   5.376  17.056  0.0290 -1.3922  1.5778
 6752TIP3    H241748   5.731   5.516  17.040  1.8965 -2.3899 -1.6870
 6753TIP3   OH241749   3.055   0.467   3.758 -0.0281  0.3144 -0.2310
 6753TIP3    H141750   3.148   0.457   3.776  0.1859  1.1525 -0.8353
 6753TIP3    H241751   3.012   0.440   3.839  0.7922  1.2942  0.5569
 6754TIP3   OH241752   2.967   0.233   1.842  0.2258  0.1143 -0.4126
 6754TIP3    H141753   3.000   0.305   1.896 -1.9977  1.4172 -0.6993
 6754TIP3    H241754   3.010   0.245   1.757 -1.2737  2.1034 -0.9503
 6755TIP3   OH241755   6.797   3.317   0.973 -0.1782  0.3949 -0.4968
 6755TIP3    H141756   6.787   3.394   0.916  1.5744  0.7999 -0.3077
 6755TIP3    H241757   6.877   3.334   1.023 -0.5886 -0.8761  0.6517
 6756TIP3   OH241758   2.164   3.905  15.608 -0.1711  0.2451 -0.7073
 6756TIP3    H141759   2.183   3.840  15.540 -1.0153 -1.3343  0.4987
 6756TIP3    H241760   2.105   3.967  15.565  1.5799  0.9555 -2.2402
 6757TIP3   OH241761   1.334   3.116   2.528 -0.3801 -0.1985 -0.0984
 6757TIP3    H141762   1.304   3.202   2.498  0.9310  0.6870  1.0024
 6757TIP3    H241763   1.403   3.136   2.591  1.5910 -2.0715 -1.5205
 6758TIP3   OH241764   5.477   3.699  11.467  0.1077 -0.0288  0.0012
 6758TIP3    H141765   5.571   3.694  11.486  0.1367  1.0413  0.2133
 6758TIP3    H241766   5.471   3.759  11.393 -0.3510 -0.7504 -0.5465
 6759TIP3   OH241767   2.700   2.719   3.329  0.2112  0.0304  0.2047
 6759TIP3    H141768   2.640   2.792   3.344  0.1694  0.0569 -0.0853
 6759TIP3    H241769   2.786   2.755   3.351  0.1251  0.0047  0.5781
 6760TIP3   OH241770   3.899   6.049  15.662 -0.0801  0.6037 -0.3821
 6760TIP3    H141771   3.990   6.076  15.657 -0.1633  0.7795 -1.1109
 6760TIP3    H241772   3.851   6.120  15.620 -0.6090  0.7663  0.4774
 6761TIP3   OH241773   0.344   4.984   0.302 -0.0154  0.2910  0.2144
 6761TIP3    H141774   0.288   5.061   0.292 -1.4257 -0.6137  0.8014
 6761TIP3    H241775   0.311   4.922   0.238  0.2687 -0.2880  0.6212
 6762TIP3   OH241776   4.915   0.419  15.114  0.3467  0.5248  0.6337
 6762TIP3    H141777   4.851   0.490  15.119  0.2690  0.3863  2.0157
 6762TIP3    H241778   4.970   0.441  15.039 -1.7378  0.2594 -1.0648
 6763TIP3   OH241779   1.450   4.692   6.070  0.8083 -0.2145 -0.2134
 6763TIP3    H141780   1.391   4.753   6.026  0.0521  0.6334  1.9008
 6763TIP3    H241781   1.424   4.606   6.036  0.0341  0.3597 -1.1447
 6764TIP3   OH241782   4.575   5.085  16.266  0.0203 -0.0995 -0.8683
 6764TIP3    H141783   4.591   5.011  16.208  0.1614 -0.2935 -0.5878
 6764TIP3    H241784   4.483   5.076  16.291  0.8453 -2.2796  1.9791
 6765TIP3   OH241785   4.712   3.046  17.107 -0.1546 -0.6394 -0.1243
 6765TIP3    H141786   4.784   3.042  17.170 -0.3701  2.6110  0.5078
 6765TIP3    H241787   4.751   3.088  17.030 -0.8977 -0.6483 -0.5119
 6766TIP3   OH241788   5.408   4.118   1.212 -0.0401 -0.1547  0.3727
 6766TIP3    H141789   5.374   4.032   1.186 -0.4850  0.0965  0.1278
 6766TIP3    H241790   5.374   4.179   1.147  1.3302  0.0301 -0.1984
 6767TIP3   OH241791   2.311   2.546   3.934  0.2743  0.7408  0.4087
 6767TIP3    H141792   2.289   2.460   3.899 -0.2292  1.4569 -1.1329
 6767TIP3    H241793   2.394   2.533   3.979 -0.0520 -0.6527  0.6509
 6768TIP3   OH241794   1.933   3.882   3.826 -0.1657  0.5613 -0.2727
 6768TIP3    H141795   1.946   3.961   3.773 -0.0078  0.8466  0.1859
 6768TIP3    H241796   1.885   3.913   3.903  1.5589  0.6035  0.8638
 6769TIP3   OH241797   2.817   0.912  14.274  0.0515 -0.4084 -0.4127
 6769TIP3    H141798   2.886   0.847  14.261  0.2618 -0.2990  0.1242
 6769TIP3    H241799   2.844   0.986  14.220  1.3533  0.3660  1.2110
 6770TIP3   OH241800   1.549   4.248  15.048 -0.1128 -0.0612  0.1653
 6770TIP3    H141801   1.586   4.306  14.982 -0.0589  0.0603  0.3027
 6770TIP3    H241802   1.600   4.266  15.127  0.1043 -0.5096  0.1312
 6771TIP3   OH241803   6.454   3.116   2.977 -0.2204  0.3612 -0.3000
 6771TIP3    H141804   6.359   3.123   2.988 -0.0476  1.9569  0.4928
 6771TIP3    H241805   6.466   3.048   2.911 -1.9117  0.1576 -0.4370
 6772TIP3   OH241806   6.102   3.776  11.875 -0.0025  0.4154  0.1040
 6772TIP3    H141807   6.015   3.814  11.879  0.8138  2.3834 -0.0234
 6772TIP3    H241808   6.144   3.802  11.957 -0.0984 -2.1129  1.0594
 6773TIP3   OH241809   3.149   0.407   0.832  0.1908 -0.1235  0.0763
 6773TIP3    H141810   3.074   0.362   0.793  1.2876 -0.9291 -1.1471
 6773TIP3    H241811   3.126   0.500   0.828 -0.6971 -0.3531 -0.3521
 6774TIP3   OH241812   0.172   1.286  15.196  0.0151 -0.3805 -0.2169
 6774TIP3    H141813   0.177   1.193  15.217 -1.6212 -0.9125 -1.9339
 6774TIP3    H241814   0.151   1.289  15.103 -0.6612  1.6855 -0.0533
 6775TIP3   OH241815   5.219   4.332  12.971  0.4546 -0.0552  0.0562
 6775TIP3    H141816   5.170   4.402  12.928  1.4503  0.8127  0.2796
 6775TIP3    H241817   5.163   4.255  12.964 -0.7784  0.8194  0.0117
 6776TIP3   OH241818   1.916   2.625  12.981  0.0815  0.2435 -0.6638
 6776TIP3    H141819   1.840   2.599  13.033 -0.4356  1.4804 -0.7640
 6776TIP3    H241820   1.991   2.609  13.039 -0.4255  0.9121  0.1975
 6777TIP3   OH241821   0.180   1.275   4.240 -0.3161 -0.4011  0.0672
 6777TIP3    H141822   0.095   1.305   4.207 -0.0760  0.0738 -0.1162
 6777TIP3    H241823   0.159   1.196   4.290 -0.7422 -0.8706 -0.8268
 6778TIP3   OH241824   5.094   2.124  13.901  0.5243 -0.2421 -0.6403
 6778TIP3    H141825   5.078   2.089  13.813 -0.9592  1.6966 -1.2354
 6778TIP3    H241826   5.091   2.048  13.958 -1.6464 -1.2275 -1.9392
 6779TIP3   OH241827   2.920   4.520  11.982 -0.3923  0.5372  0.2837
 6779TIP3    H141828   2.859   4.573  11.930 -0.4610  1.5404  1.3510
 6779TIP3    H241829   2.980   4.484  11.918  0.0668  2.4605 -0.4429
 6780TIP3   OH241830   6.219   6.508   0.268  0.1338  0.3672 -0.0903
 6780TIP3    H141831   6.294   6.453   0.244 -1.9038 -2.3993 -0.6342
 6780TIP3    H241832   6.199   6.557   0.188  0.8569  0.5345 -0.1779
 6781TIP3   OH241833   1.697   5.212  13.195 -0.1500  0.4795 -0.3569
 6781TIP3    H141834   1.663   5.237  13.281  1.1089  2.2671 -0.3201
 6781TIP3    H241835   1.676   5.286  13.138 -0.0071 -0.2114 -1.3399
 6782TIP3   OH241836   5.647   1.089  15.656 -0.0820 -0.1162  0.3255
 6782TIP3    H141837   5.589   1.060  15.726 -2.4234  0.3505 -1.3146
 6782TIP3    H241838   5.682   1.009  15.618 -1.2008 -0.5250  0.1234
 6783TIP3   OH241839   2.252   6.788  15.511 -0.0735 -0.3219  0.1930
 6783TIP3    H141840   2.335   6.806  15.553 -0.7503  0.5673  1.1831
 6783TIP3    H241841   2.237   6.694  15.526  0.8366 -0.5331 -0.1808
 6784TIP3   OH241842   6.645   1.474   5.277  0.4177  0.0406 -0.6918
 6784TIP3    H141843   6.708   1.403   5.268 -0.7748 -1.3758  1.4562
 6784TIP3    H241844   6.560   1.431   5.278 -0.6311  1.8349 -2.6768
 6785TIP3   OH241845   6.049   6.071  15.563 -0.1309  0.5875 -0.0800
 6785TIP3    H141846   6.107   6.061  15.639  0.5792 -1.9761 -0.8759
 6785TIP3    H241847   5.962   6.078  15.601  0.3107  0.4771  1.0076
 6786TIP3   OH241848   3.926   0.640   0.981 -0.1880 -0.2388 -0.3846
 6786TIP3    H141849   3.844   0.637   0.933  0.8145  0.1989 -2.2085
 6786TIP3    H241850   3.918   0.718   1.037 -0.7711  0.1609 -1.0173
 6787TIP3   OH241851   1.876   1.699   4.547 -0.0160 -0.4561  0.4765
 6787TIP3    H141852   1.820   1.766   4.588  0.4191 -1.6108  3.1027
 6787TIP3    H241853   1.961   1.741   4.540 -0.2910  0.0318 -0.0455
 6788TIP3   OH241854   3.788   0.413  16.416  0.0337  0.3633 -0.1806
 6788TIP3    H141855   3.870   0.458  16.435 -0.4271  1.6521 -1.0126
 6788TIP3    H241856   3.791   0.333  16.467  2.1126  0.0329 -0.7230
 6789TIP3   OH241857   2.279   1.258  14.651  0.2935 -0.0298 -0.3310
 6789TIP3    H141858   2.196   1.279  14.607 -0.2573  1.6784  1.3563
 6789TIP3    H241859   2.331   1.213  14.585 -1.2330  0.6240 -2.0651
 6790TIP3   OH241860   5.460   4.084  13.587 -0.3049  0.1960 -0.0920
 6790TIP3    H141861   5.544   4.120  13.561  0.0421 -0.7881 -0.3877
 6790TIP3    H241862   5.395   4.149  13.559  0.2268  0.1772 -1.4114
 6791TIP3   OH241863   0.413   3.090  11.301  0.8045 -0.2972 -0.4178
 6791TIP3    H141864   0.414   3.054  11.213 -2.5689 -0.7917 -0.3911
 6791TIP3    H241865   0.392   3.183  11.289  2.1569  0.0548 -0.1791
 6792TIP3   OH241866   2.675   0.017  11.604 -0.3791  0.0050 -0.2433
 6792TIP3    H141867   2.668  -0.038  11.681 -3.4552 -3.0868 -2.4114
 6792TIP3    H241868   2.756  -0.011  11.561  0.4957  0.6097  0.9556
 6793TIP3   OH241869   3.184   0.889  12.971  0.1400 -0.0914  0.2067
 6793TIP3    H141870   3.143   0.840  12.900  0.0607  1.3251 -0.7813
 6793TIP3    H241871   3.199   0.825  13.040  0.2891 -1.5278 -1.1177
 6794TIP3   OH241872   3.893   5.110   0.904  0.9103  0.7824  0.1286
 6794TIP3    H141873   3.822   5.138   0.962 -0.7383 -1.5641 -0.6360
 6794TIP3    H241874   3.862   5.132   0.816  0.6199 -1.1154 -0.2891
 6795TIP3   OH241875   6.249   2.533   2.718  0.1066  0.5724 -0.1248
 6795TIP3    H141876   6.313   2.481   2.668  0.4894 -1.2715  2.0852
 6795TIP3    H241877   6.281   2.529   2.808 -2.8029  0.0444  0.9988
 6796TIP3   OH241878   3.742   2.896   1.431  0.2529 -0.2193  0.2691
 6796TIP3    H141879   3.709   2.842   1.359  0.6512 -0.6441  0.4009
 6796TIP3    H241880   3.665   2.911   1.486 -0.2697  0.9106 -0.7270
 6797TIP3   OH241881   3.443   0.748   6.111  0.0541  0.0304  0.1036
 6797TIP3    H141882   3.430   0.840   6.134 -0.4598 -0.0276  0.0531
 6797TIP3    H241883   3.522   0.722   6.158  0.5716  0.6781 -0.3930
 6798TIP3   OH241884   0.415   5.881   2.936  0.3065 -0.2502 -0.1757
 6798TIP3    H141885   0.458   5.928   2.865 -0.8531  1.8095  0.3689
 6798TIP3    H241886   0.445   5.926   3.016 -0.9899 -0.2825  0.3598
 6799TIP3   OH241887   2.277   0.338  13.009 -0.4219  0.2453  0.2083
 6799TIP3    H141888   2.204   0.276  13.020 -0.0389  0.0659  1.9215
 6799TIP3    H241889   2.253   0.389  12.931 -0.3237 -2.6107 -1.8543
 6800TIP3   OH241890   1.696   5.351   2.885 -0.8731 -0.5576  0.0218
 6800TIP3    H141891   1.780   5.377   2.923 -1.2745 -0.2839  0.7357
 6800TIP3    H241892   1.682   5.262   2.916 -0.9165 -0.5475  0.0315
 6801TIP3   OH241893   5.818   5.068  15.762 -0.3864 -0.0018 -0.3617
 6801TIP3    H141894   5.743   5.014  15.787 -0.7046  1.2253  1.5467
 6801TIP3    H241895   5.819   5.139  15.826  2.9043 -0.4124  0.2280
 6802TIP3   OH241896   0.671   6.364   5.557  0.4412  0.0596  0.0872
 6802TIP3    H141897   0.636   6.300   5.495  0.1667  0.8552 -0.5897
 6802TIP3    H241898   0.757   6.387   5.521  0.4675  0.1919  0.2343
 6803TIP3   OH241899   6.567   6.580  10.308  0.1658  0.0608  0.4354
 6803TIP3    H141900   6.618   6.652  10.346 -0.6037  0.2194  1.1775
 6803TIP3    H241901   6.628   6.506  10.307  0.6024  0.4100  0.7502
 6804TIP3   OH241902   1.586   0.032  12.525 -0.2710 -0.2500  1.1222
 6804TIP3    H141903   1.493   0.035  12.503 -0.0907  0.7508  0.3978
 6804TIP3    H241904   1.608   0.123  12.546  0.9586 -0.0984 -0.6093
 6805TIP3   OH241905   0.463   4.765  16.497 -0.3915  0.0274 -0.2260
 6805TIP3    H141906   0.398   4.808  16.552  0.6957 -1.2177  2.1744
 6805TIP3    H241907   0.539   4.824  16.498  0.8372 -1.4487  2.4758
 6806TIP3   OH241908   6.550   6.802  15.864 -0.3573  0.4707  0.7032
 6806TIP3    H141909   6.531   6.711  15.843  0.2432  0.2775  0.9529
 6806TIP3    H241910   6.583   6.799  15.954 -0.2020  0.9158  0.6647
 6807TIP3   OH241911   2.901   5.904  14.557  0.4099 -0.7142 -1.0237
 6807TIP3    H141912   2.916   5.817  14.518  0.0766 -1.2947  0.1074
 6807TIP3    H241913   2.985   5.927  14.596  0.0256 -1.3644  0.2518
 6808TIP3   OH241914   5.832   1.594   1.461 -0.2086 -0.4696 -0.1080
 6808TIP3    H141915   5.925   1.581   1.475  0.0083  0.7147 -0.3023
 6808TIP3    H241916   5.796   1.606   1.549 -0.1540 -0.8189 -0.0401
 6809TIP3   OH241917   5.608   3.249   3.916  0.0255  0.4768  0.0245
 6809TIP3    H141918   5.552   3.291   3.982  1.9479  5.0838 -0.8768
 6809TIP3    H241919   5.694   3.244   3.958  0.6249  0.7943 -1.1215
 6810TIP3   OH241920   4.143   4.018   5.716  0.2978  0.7311  0.2470
 6810TIP3    H141921   4.171   3.927   5.726 -2.2654 -0.2065 -0.5590
 6810TIP3    H241922   4.137   4.031   5.621 -0.3748  1.4003  0.3736
 6811TIP3   OH241923   4.654   0.314  12.512  0.5193  0.4544  0.4269
 6811TIP3    H141924   4.740   0.336  12.476 -0.1145  1.9810 -0.2574
 6811TIP3    H241925   4.593   0.364  12.458 -0.7731 -0.3243  1.1347
 6812TIP3   OH241926   3.482   2.553  15.900 -0.1081 -0.3001 -0.2401
 6812TIP3    H141927   3.490   2.588  15.811 -0.7374 -1.0966 -0.6268
 6812TIP3    H241928   3.389   2.532  15.909  0.1354 -1.2398  0.2081
 6813TIP3   OH241929   3.752   0.328  11.722 -0.1678  0.1373 -0.1052
 6813TIP3    H141930   3.756   0.234  11.701 -0.5960  0.0325  0.2807
 6813TIP3    H241931   3.762   0.332  11.817 -1.0833  0.4208 -0.0192
 6814TIP3   OH241932   3.435   0.020  14.738 -0.0614 -0.0748  0.5863
 6814TIP3    H141933   3.485   0.041  14.817 -1.2592  0.8003  1.1564
 6814TIP3    H241934   3.431  -0.075  14.736  2.2150 -0.2125  0.1103
 6815TIP3   OH241935   2.890   5.578  11.653  0.4429 -0.1095 -0.0515
 6815TIP3    H141936   2.849   5.654  11.694 -0.9145 -0.4343 -0.7638
 6815TIP3    H241937   2.851   5.502  11.696  1.1569 -0.4238  0.0578
 6816TIP3   OH241938   0.671   5.945  11.847 -0.4642 -0.2329  0.0952
 6816TIP3    H141939   0.612   5.949  11.922 -0.7550  0.3448 -0.1532
 6816TIP3    H241940   0.651   6.024  11.797 -0.0322 -0.4355 -0.4100
 6817TIP3   OH241941   0.122   2.696  12.184 -0.2288 -0.4844 -0.1449
 6817TIP3    H141942   0.182   2.747  12.238 -0.2327 -0.3570 -0.2585
 6817TIP3    H241943   0.038   2.700  12.230  0.1099 -1.5885  0.5830
 6818TIP3   OH241944   6.380   5.364  13.712  0.1073 -0.0158  0.0817
 6818TIP3    H141945   6.407   5.443  13.760 -0.0923  0.4419 -0.5457
 6818TIP3    H241946   6.383   5.294  13.777 -2.4201  0.9755  1.4129
 6819TIP3   OH241947   4.336   0.639  11.661  0.1527 -0.7824 -0.1729
 6819TIP3    H141948   4.412   0.652  11.604 -1.1196  1.8254 -1.4709
 6819TIP3    H241949   4.366   0.577  11.727  1.6018 -4.4715 -3.8521
 6820TIP3   OH241950   4.965   6.359  12.112 -0.1861 -0.2185 -0.3662
 6820TIP3    H141951   4.974   6.331  12.203 -1.4000 -0.5814 -0.3347
 6820TIP3    H241952   4.988   6.451  12.112  0.8906 -0.4723  0.0988
 6821TIP3   OH241953   6.391   1.713  11.871  0.3896 -0.4277  0.3705
 6821TIP3    H141954   6.311   1.719  11.818 -1.3040 -3.0518  2.3619
 6821TIP3    H241955   6.359   1.707  11.961  2.8885 -1.1484  1.2832
 6822TIP3   OH241956   3.120   6.813   2.302 -0.5178  0.5318  0.2401
 6822TIP3    H141957   3.184   6.832   2.234 -1.0071  0.1053 -0.3508
 6822TIP3    H241958   3.055   6.758   2.259 -2.6798  3.0117  0.0290
 6823TIP3   OH241959   2.742   0.939   6.072 -0.0593  0.3233  0.2436
 6823TIP3    H141960   2.685   1.013   6.092  0.6209  0.3985  2.1222
 6823TIP3    H241961   2.705   0.866   6.121  1.7703  0.5320  2.0417
 6824TIP3   OH241962   4.340   0.294   0.410 -0.0195 -0.6841 -0.2853
 6824TIP3    H141963   4.272   0.227   0.405 -0.6617 -0.1023  0.4417
 6824TIP3    H241964   4.357   0.318   0.319 -1.1944 -0.4274 -0.4512
 6825TIP3   OH241965   1.685   3.076  16.752 -0.4515  0.3964  0.1739
 6825TIP3    H141966   1.740   3.014  16.704 -0.6938 -0.2188  0.6801
 6825TIP3    H241967   1.616   3.098  16.689  0.3245  1.1306 -0.4443
 6826TIP3   OH241968   5.812   2.318  14.989 -0.2546 -0.2878  0.0683
 6826TIP3    H141969   5.891   2.289  15.037 -1.2258 -1.3191  1.1125
 6826TIP3    H241970   5.787   2.242  14.937 -0.2980  0.2056 -0.6411
 6827TIP3   OH241971   4.151   1.882   1.589  0.2029  0.2773  0.3451
 6827TIP3    H141972   4.091   1.808   1.577  0.1366  0.3522  0.2153
 6827TIP3    H241973   4.210   1.877   1.513  0.4748  0.0971  0.5649
 6828TIP3   OH241974   4.441   3.604   4.955 -0.1068 -0.6678  0.1984
 6828TIP3    H141975   4.365   3.554   4.923 -1.4844  1.4248  0.0390
 6828TIP3    H241976   4.437   3.597   5.050 -1.2261  0.3942  0.2470
 6829TIP3   OH241977   1.267   3.659   2.672  0.2635  0.3471 -0.3961
 6829TIP3    H141978   1.217   3.736   2.700 -0.1434 -0.1332  0.2212
 6829TIP3    H241979   1.356   3.676   2.700  0.3071  0.8910 -0.8563
 6830TIP3   OH241980   4.017   4.131  15.412 -0.3618  0.1224  0.0782
 6830TIP3    H141981   3.968   4.137  15.330  0.2953 -1.4305 -0.4616
 6830TIP3    H241982   4.042   4.222  15.432 -2.0167  0.7465 -0.4780
 6831TIP3   OH241983   3.574   2.382   5.114  0.2576  0.2897  0.3710
 6831TIP3    H141984   3.665   2.391   5.142 -0.0586  1.8699  0.9966
 6831TIP3    H241985   3.532   2.463   5.144 -1.5311 -0.7515  0.7813
 6832TIP3   OH241986   0.534   0.882  16.654  0.4582 -0.1046  0.1589
 6832TIP3    H141987   0.624   0.852  16.644  1.0673  2.0038 -1.6425
 6832TIP3    H241988   0.482   0.822  16.600  1.5432  1.3919 -2.8313
 6833TIP3   OH241989   2.491   6.160   2.902 -0.1557  0.0919  0.0252
 6833TIP3    H141990   2.453   6.230   2.956 -1.6184 -0.9101  0.3753
 6833TIP3    H241991   2.417   6.127   2.851  0.2281 -1.9307  0.7015
 6834TIP3   OH241992   3.313   0.627  13.047  0.4992 -0.9831  0.2915
 6834TIP3    H141993   3.241   0.626  13.110  1.5072 -0.5991  1.4960
 6834TIP3    H241994   3.391   0.606  13.100  1.4818  0.1100 -0.6702
 6835TIP3   OH241995   5.493   1.922  15.890 -0.3442  0.0063  0.5974
 6835TIP3    H141996   5.508   1.834  15.858 -2.5962 -0.2480  0.0573
 6835TIP3    H241997   5.502   1.915  15.985  0.7674 -0.4811  0.4733
 6836TIP3   OH241998   3.874   2.681   2.588  0.2273 -0.2642 -0.1062
 6836TIP3    H141999   3.792   2.637   2.609  0.1209  0.4075  0.9698
 6836TIP3    H242000   3.857   2.725   2.505 -0.3189 -0.5694 -0.1620
 6837TIP3   OH242001   4.740   3.208  14.740 -0.0317 -0.1143 -0.2391
 6837TIP3    H142002   4.785   3.216  14.824 -1.4732  0.5181  0.4917
 6837TIP3    H242003   4.768   3.123  14.707  0.6600 -0.3207  0.8148
 6838TIP3   OH242004   6.020   4.862   4.674  0.1209  0.1943 -0.0811
 6838TIP3    H142005   6.047   4.816   4.594 -0.9253 -0.9197  0.1716
 6838TIP3    H242006   5.996   4.950   4.645 -1.0970 -0.4594 -1.1678
 6839TIP3   OH242007   2.927   2.086  15.743  0.3181 -0.0590  0.4060
 6839TIP3    H142008   2.974   2.003  15.732  0.6891  0.2025  0.0020
 6839TIP3    H242009   2.863   2.087  15.672  0.0997 -0.1380  0.5984
 6840TIP3   OH242010   6.656   1.366  15.277  0.4601 -0.2354  0.1216
 6840TIP3    H142011   6.639   1.385  15.184  0.9248 -2.1811 -0.4091
 6840TIP3    H242012   6.571   1.339  15.312  0.2472  0.6710  0.3283
 6841TIP3   OH242013   6.570   1.359   0.585  0.2484 -0.2852  0.1771
 6841TIP3    H142014   6.533   1.334   0.501  1.5339  0.3727 -0.6213
 6841TIP3    H242015   6.614   1.280   0.616 -0.6266 -0.6657  0.4764
 6842TIP3   OH242016   6.049   3.000   3.165  0.3885  0.4130  0.4715
 6842TIP3    H142017   6.040   3.001   3.260 -0.9530  0.1415  0.3603
 6842TIP3    H242018   6.054   2.907   3.142  0.3346  0.4659  0.2423
 6843TIP3   OH242019   1.560   3.352  14.129 -0.3361 -0.4907  0.5079
 6843TIP3    H142020   1.579   3.401  14.049  0.3010 -0.5474  0.6239
 6843TIP3    H242021   1.566   3.260  14.103 -1.8232 -0.5403  0.2181
 6844TIP3   OH242022   2.894   1.520   4.843  0.0712 -0.4353  0.6665
 6844TIP3    H142023   2.849   1.457   4.900  1.7155 -2.0152  0.3018
 6844TIP3    H242024   2.887   1.482   4.756 -1.0737  1.1886  0.0067
 6845TIP3   OH242025   0.026   5.613   5.854 -0.3229 -0.2647 -0.6470
 6845TIP3    H142026  -0.040   5.583   5.791  2.2574 -2.1548 -2.6730
 6845TIP3    H242027   0.086   5.667   5.803  1.2907 -1.0029  0.3727
 6846TIP3   OH242028   3.278   1.500  12.555  0.1327 -0.1599 -0.3010
 6846TIP3    H142029   3.220   1.425  12.568  0.0806 -0.4660 -2.0479
 6846TIP3    H242030   3.218   1.575  12.546 -0.0037 -0.4103 -1.6735
 6847TIP3   OH242031   3.679   6.770   2.645  0.1200 -0.0400 -0.3849
 6847TIP3    H142032   3.664   6.755   2.738  1.6403 -0.4831 -0.1737
 6847TIP3    H242033   3.695   6.683   2.609  0.8303  0.2478 -0.7887
 6848TIP3   OH242034   3.024   5.424   0.559 -0.2817  0.1308  0.1724
 6848TIP3    H142035   3.095   5.476   0.524 -0.5356 -0.3635 -1.1397
 6848TIP3    H242036   2.953   5.433   0.495 -0.6023 -1.1761  0.3038
 6849TIP3   OH242037   1.977   2.514   1.535  0.6743 -0.5383 -0.1110
 6849TIP3    H142038   2.057   2.556   1.503  1.4707 -1.8466  0.0751
 6849TIP3    H242039   1.976   2.531   1.629  0.5446 -0.2218 -0.1693
 6850TIP3   OH242040   6.458   0.430  15.021  0.1903  0.2147  0.4194
 6850TIP3    H142041   6.500   0.507  14.983  0.6778 -0.4959 -0.5210
 6850TIP3    H242042   6.530   0.382  15.063 -0.2811  0.8122  1.9995
 6851TIP3   OH242043   1.916   5.414   4.660 -0.5262  0.2053 -0.1820
 6851TIP3    H142044   1.996   5.459   4.634  0.6857 -1.7043  0.0190
 6851TIP3    H242045   1.868   5.477   4.713  1.4502  0.9780  0.7599
 6852TIP3   OH242046   4.304   3.781  12.738 -0.0939 -0.5616 -0.7433
 6852TIP3    H142047   4.364   3.753  12.668  0.9838  1.7099 -0.7996
 6852TIP3    H242048   4.352   3.762  12.819  0.5187  0.7647 -0.7747
 6853TIP3   OH242049   2.758   5.893   5.585 -0.2579 -0.6949 -0.4905
 6853TIP3    H142050   2.816   5.959   5.624  1.1734 -1.8322 -0.6005
 6853TIP3    H242051   2.811   5.852   5.516 -1.1077 -1.9326 -0.4465
 6854TIP3   OH242052   3.587   0.565  15.956 -0.0277  0.2819  0.3507
 6854TIP3    H142053   3.540   0.565  15.874 -0.8125  1.5660  0.7685
 6854TIP3    H242054   3.528   0.523  16.019  0.0488  0.4391  0.5308
 6855TIP3   OH242055   1.292   5.807   2.691  0.1142 -0.0786 -0.8354
 6855TIP3    H142056   1.247   5.889   2.710 -0.3298 -0.2589 -1.0882
 6855TIP3    H242057   1.385   5.828   2.698  0.0341 -0.3975  2.6822
 6856TIP3   OH242058   4.831   3.430  15.251 -0.3392 -0.1841 -0.4670
 6856TIP3    H142059   4.802   3.373  15.322  0.6207  1.1921  1.0818
 6856TIP3    H242060   4.897   3.486  15.290  1.7793 -0.7468 -2.9886
 6857TIP3   OH242061   0.233   5.757   1.665 -0.4539 -0.3538 -0.1217
 6857TIP3    H142062   0.146   5.724   1.690 -0.7388  0.8731  0.6045
 6857TIP3    H242063   0.222   5.789   1.575 -0.7869 -0.1366 -0.0083
 6858TIP3   OH242064   1.037   5.326  15.860  0.4805 -0.4583  0.4616
 6858TIP3    H142065   1.111   5.386  15.865  1.8217 -2.0355  0.2043
 6858TIP3    H242066   1.058   5.267  15.788 -0.7472 -1.3254  0.7828
 6859TIP3   OH242067   5.779   5.570   0.041 -0.0492  0.0957 -0.2537
 6859TIP3    H142068   5.739   5.540  -0.040  0.9011 -0.0815 -0.6727
 6859TIP3    H242069   5.761   5.664   0.043 -1.4102 -0.1603  0.1217
 6860TIP3   OH242070   6.782   5.935   1.568 -0.5671  0.2185  0.2771
 6860TIP3    H142071   6.863   5.926   1.519  1.4921  1.2427  3.2327
 6860TIP3    H242072   6.727   5.992   1.514  1.9470  2.1331 -0.4181
 6861TIP3   OH242073   1.471   3.487   2.895  0.2723  0.3775 -0.2184
 6861TIP3    H142074   1.562   3.503   2.868 -0.3238  1.2799 -1.8777
 6861TIP3    H242075   1.427   3.571   2.881 -1.1325 -0.4314 -0.9352
 6862TIP3   OH242076   3.483   2.059  11.234 -0.5044 -0.3139  0.0403
 6862TIP3    H142077   3.402   2.104  11.260 -0.5061 -1.0740  1.4549
 6862TIP3    H242078   3.522   2.117  11.169 -2.8544 -0.5824 -1.7435
 6863TIP3   OH242079   2.761   3.741   4.893  0.0407  0.1152  0.1419
 6863TIP3    H142080   2.787   3.702   4.977 -1.6825 -0.8870  0.2581
 6863TIP3    H242081   2.844   3.760   4.849  0.9728 -0.7571  1.4406
 6864TIP3   OH242082   5.001   0.040   0.211 -0.5228 -0.4639  0.1325
 6864TIP3    H142083   4.999  -0.005   0.296 -0.4243  0.3283  0.5712
 6864TIP3    H242084   5.093   0.036   0.185 -0.7303 -1.6439 -0.4667
 6865TIP3   OH242085   2.790   5.162  11.565 -0.2731 -0.2713  0.4315
 6865TIP3    H142086   2.805   5.222  11.638 -2.1687  0.5387  0.2320
 6865TIP3    H242087   2.807   5.075  11.600 -0.3069  0.1769  1.5776
 6866TIP3   OH242088   1.623   0.253  12.725  0.1350  0.1291  0.1997
 6866TIP3    H142089   1.600   0.187  12.790 -2.0791  0.1670 -0.4528
 6866TIP3    H242090   1.577   0.332  12.754  2.4607  1.3568  0.7829
 6867TIP3   OH242091   2.096   3.530   3.633  0.3444 -0.2321  0.1115
 6867TIP3    H142092   2.018   3.585   3.639  1.0143  0.6448  1.3242
 6867TIP3    H242093   2.077   3.454   3.687 -0.2386 -0.7670 -0.8308
 6868TIP3   OH242094   3.142   2.933  16.175 -0.7383 -0.2374 -0.2706
 6868TIP3    H142095   3.165   2.876  16.248  0.2649 -1.3316 -1.3838
 6868TIP3    H242096   3.046   2.928  16.171 -0.7904 -0.3417  0.8124
 6869TIP3   OH242097   1.269   6.602   3.515 -0.1555 -0.2398  0.5109
 6869TIP3    H142098   1.203   6.573   3.578  0.2912 -0.1894  1.0067
 6869TIP3    H242099   1.347   6.618   3.567  0.0897  0.2463  0.0041
 6870TIP3   OH242100   4.032   5.006  13.421  0.0932 -0.7507 -0.3779
 6870TIP3    H142101   4.106   4.988  13.362  0.4117  3.2790 -1.4728
 6870TIP3    H242102   3.955   5.006  13.364  0.0924  0.8667 -0.4142
 6871TIP3   OH242103   4.090   5.180   1.916  0.6276  0.0168  0.6376
 6871TIP3    H142104   4.117   5.194   1.825 -0.0697 -1.1002  0.2314
 6871TIP3    H242105   4.005   5.223   1.923 -1.7123 -3.8414 -0.7270
 6872TIP3   OH242106   2.418   0.588  11.060 -0.2092  0.2682 -0.3070
 6872TIP3    H142107   2.415   0.512  11.002  2.0982  1.9293 -2.8959
 6872TIP3    H242108   2.326   0.610  11.075 -0.9073 -1.8654 -1.0772
 6873TIP3   OH242109   0.218   2.922   1.492 -0.2048 -0.3672  0.7055
 6873TIP3    H142110   0.204   2.865   1.416 -0.1379  0.5133  0.0023
 6873TIP3    H242111   0.173   3.003   1.468  1.1831  0.4925  0.9088
 6874TIP3   OH242112   6.286   3.703  15.660  0.0112 -0.1476  0.8210
 6874TIP3    H142113   6.290   3.631  15.723 -1.2885 -1.1375 -0.1640
 6874TIP3    H242114   6.226   3.672  15.592  0.0772  1.5484 -0.0651
 6875TIP3   OH242115   3.221   4.351  16.145 -0.1481  0.5362  0.1357
 6875TIP3    H142116   3.166   4.284  16.186  1.3123  0.2846  1.7648
 6875TIP3    H242117   3.213   4.427  16.203 -1.0984  1.5454 -1.2359
 6876TIP3   OH242118   1.011   4.729   3.767  0.1642 -0.6690  0.2460
 6876TIP3    H142119   0.996   4.751   3.674  1.3722  0.1290  0.2223
 6876TIP3    H242120   1.084   4.785   3.793  1.2765 -2.4549  1.0935
 6877TIP3   OH242121   0.883   6.252   3.103  0.3805 -0.5493  0.2010
 6877TIP3    H142122   0.798   6.270   3.143  0.9331 -1.7180  2.0082
 6877TIP3    H242123   0.937   6.220   3.175  2.6592  0.9925 -0.6922
 6878TIP3   OH242124   6.518   5.504  12.078  0.0754  0.4649  0.4923
 6878TIP3    H142125   6.472   5.579  12.117 -1.2597  0.2127 -0.5166
 6878TIP3    H242126   6.575   5.472  12.148  0.1023  1.9351  1.1982
 6879TIP3   OH242127   6.238   0.393  13.983 -0.1435  0.4286  0.3094
 6879TIP3    H142128   6.194   0.419  13.902 -0.6112 -2.0092 -0.2994
 6879TIP3    H242129   6.185   0.434  14.052 -0.4110  1.6018 -0.5427
 6880TIP3   OH242130   0.983   4.587  13.445 -0.1380 -0.2875  0.0895
 6880TIP3    H142131   1.058   4.647  13.438 -0.1284 -0.2092  0.8244
 6880TIP3    H242132   0.993   4.546  13.531  0.8364 -2.6765 -1.0597
 6881TIP3   OH242133   5.615   4.206  15.705 -0.2542 -0.1162  0.0054
 6881TIP3    H142134   5.571   4.189  15.788 -0.1999 -0.9395 -0.1277
 6881TIP3    H242135   5.648   4.120  15.677 -0.1154  0.1847 -0.7763
 6882TIP3   OH242136   5.936   0.856   1.169  0.5584 -0.8873 -0.0951
 6882TIP3    H142137   5.844   0.832   1.163  0.9197 -2.4796  0.0665
 6882TIP3    H242138   5.950   0.874   1.262 -0.1013  1.8013 -0.4542
 6883TIP3   OH242139   2.637   0.381   3.039  0.4075  0.0306  0.4542
 6883TIP3    H142140   2.705   0.351   2.979 -0.5215  0.4783 -0.8921
 6883TIP3    H242141   2.669   0.358   3.126  2.5421  0.7722 -0.0739
 6884TIP3   OH242142   6.648   1.412  11.467 -0.1842  0.6985 -0.1395
 6884TIP3    H142143   6.628   1.495  11.425  2.0485  1.5081  0.2434
 6884TIP3    H242144   6.705   1.435  11.540 -2.0758 -0.8953  1.9847
 6885TIP3   OH242145   3.561   5.707  11.472  0.5310  0.6271 -0.5982
 6885TIP3    H142146   3.605   5.622  11.469  0.6104  0.3187  3.3690
 6885TIP3    H242147   3.631   5.771  11.457  0.6642  0.0990 -2.5221
 6886TIP3   OH242148   6.286   1.692   5.197 -0.5228  0.2812 -0.3271
 6886TIP3    H142149   6.346   1.743   5.252 -0.1520 -1.5087  1.0232
 6886TIP3    H242150   6.210   1.749   5.186  1.3032  2.5411 -1.9665
 6887TIP3   OH242151   2.767   2.797   1.048 -0.2990 -0.0118  0.7068
 6887TIP3    H142152   2.736   2.756   0.967 -1.0677 -0.4595  1.2114
 6887TIP3    H242153   2.687   2.830   1.089  0.0668  0.0531  1.3628
 6888TIP3   OH242154   2.566   5.611  10.997  0.6106 -0.0037  0.1238
 6888TIP3    H142155   2.628   5.586  11.066 -0.3988  0.2389  1.1349
 6888TIP3    H242156   2.590   5.554  10.923  1.5014 -0.4975  0.7648
 6889TIP3   OH242157   5.585   0.346   2.675  0.3399  0.2855 -0.4801
 6889TIP3    H142158   5.629   0.300   2.603  1.9619 -0.4417  0.8840
 6889TIP3    H242159   5.501   0.302   2.684  0.8573 -0.8021 -0.7914
 6890TIP3   OH242160   0.849   6.265  14.244 -0.1845  0.0357  0.2106
 6890TIP3    H142161   0.913   6.212  14.197  0.6944  0.6138  0.7142
 6890TIP3    H242162   0.901   6.312  14.309 -1.2991 -0.4227  1.4817
 6891TIP3   OH242163   5.553   3.550  13.426 -0.6045 -0.4618 -0.2859
 6891TIP3    H142164   5.609   3.490  13.474 -0.4008 -0.9946 -1.1793
 6891TIP3    H242165   5.575   3.637  13.461 -0.1138 -0.7909  0.2326
 6892TIP3   OH242166   0.653   2.672   3.313 -0.5006 -0.2872  0.3419
 6892TIP3    H142167   0.579   2.624   3.351 -1.5205  1.9464  1.3565
 6892TIP3    H242168   0.659   2.752   3.364 -0.1172  1.5981 -2.4315
 6893TIP3   OH242169   3.027   1.126  11.670  0.0515 -0.2770  0.3028
 6893TIP3    H142170   3.025   1.145  11.764  0.9888 -0.1289  0.2948
 6893TIP3    H242171   3.053   1.034  11.665  1.9193  0.2208  0.1493
 6894TIP3   OH242172   4.570   0.423   4.399  0.4647  0.0539  0.6090
 6894TIP3    H142173   4.519   0.354   4.355  1.2164  1.4237 -2.6807
 6894TIP3    H242174   4.656   0.420   4.356  1.8595  0.5477  3.1464
 6895TIP3   OH242175   3.578   5.197  12.872 -0.2842 -0.3550  0.0691
 6895TIP3    H142176   3.591   5.240  12.957  0.4294 -0.2377 -0.0991
 6895TIP3    H242177   3.490   5.223  12.846 -0.1321  0.4221  0.3068
 6896TIP3   OH242178   5.926   4.819  11.504 -0.4819 -0.5522  0.4530
 6896TIP3    H142179   5.974   4.800  11.424  0.1103  0.1955  0.6155
 6896TIP3    H242180   5.942   4.742  11.560  0.2371 -0.4842  0.3601
 6897TIP3   OH242181   0.938   5.561  12.331 -0.7649 -0.1091  0.6964
 6897TIP3    H142182   0.958   5.508  12.254 -1.3484  1.3918 -0.5423
 6897TIP3    H242183   0.919   5.498  12.400 -1.7716 -1.5017 -0.7963
 6898TIP3   OH242184   1.199   6.779  14.400 -0.1701  0.4050 -0.0002
 6898TIP3    H142185   1.215   6.735  14.484  1.2153 -3.1312 -1.8808
 6898TIP3    H242186   1.105   6.792  14.397 -0.5266 -1.4846  1.2495
 6899TIP3   OH242187   2.418   4.933   2.342 -0.0917  0.3663 -0.2595
 6899TIP3    H142188   2.375   4.878   2.277  1.1949 -2.5437  1.1555
 6899TIP3    H242189   2.510   4.906   2.340 -0.0306 -0.0768  2.8452
 6900TIP3   OH242190   2.282   6.799  11.187 -0.3243 -0.5574 -0.6908
 6900TIP3    H142191   2.316   6.797  11.097  1.4126  0.1803 -0.0890
 6900TIP3    H242192   2.305   6.713  11.223  0.7709 -0.1412 -0.3556
 6901TIP3   OH242193   0.637   5.543   1.758 -0.2261  0.0542  0.0883
 6901TIP3    H142194   0.720   5.495   1.749 -0.2649  0.2300 -1.3583
 6901TIP3    H242195   0.586   5.491   1.820  1.0735  0.1032  1.2426
 6902TIP3   OH242196   1.677   2.018   3.525 -0.1686  0.3757  0.1860
 6902TIP3    H142197   1.736   1.943   3.522  0.8689  1.1777 -2.2181
 6902TIP3    H242198   1.607   1.991   3.584 -0.2515 -2.8075 -1.1524
 6903TIP3   OH242199   2.912   0.503   4.112 -0.2405 -0.3939  0.2930
 6903TIP3    H142200   2.939   0.567   4.047  0.1648  0.2071  1.0338
 6903TIP3    H242201   2.941   0.540   4.196  1.6899 -2.4160  0.5982
 6904TIP3   OH242202   2.563   5.433  15.856  0.8246 -0.2965 -0.3298
 6904TIP3    H142203   2.542   5.410  15.947  0.1120 -0.3167 -0.4941
 6904TIP3    H242204   2.594   5.351  15.818 -0.6552 -0.7601 -0.6058
 6905TIP3   OH242205   5.799   2.454  13.713 -0.4414  0.3490 -0.4465
 6905TIP3    H142206   5.862   2.526  13.712  1.1064 -0.9285  0.2091
 6905TIP3    H242207   5.739   2.474  13.641 -0.1846  2.3651 -0.1612
 6906TIP3   OH242208   3.949   1.125   2.521  0.1705 -0.2814 -0.1916
 6906TIP3    H142209   3.972   1.217   2.503 -1.6517 -0.0894 -1.9593
 6906TIP3    H242210   3.940   1.086   2.434 -3.8487 -0.8176  0.2850
 6907TIP3   OH242211   6.105   2.525  15.853  0.4980  0.2587  0.1258
 6907TIP3    H142212   6.196   2.549  15.870  0.3641  0.3337  0.7800
 6907TIP3    H242213   6.096   2.528  15.758  0.8738  1.3864  0.1115
 6908TIP3   OH242214   0.290   4.441  10.643 -0.1365  0.4561  0.0431
 6908TIP3    H142215   0.385   4.446  10.646 -0.0523  1.5413 -2.1557
 6908TIP3    H242216   0.268   4.363  10.693  1.8767  0.2976  0.7611
 6909TIP3   OH242217   0.434   1.209   4.555  0.4491 -0.1497 -0.4462
 6909TIP3    H142218   0.347   1.246   4.573  0.6569 -0.6303  1.8336
 6909TIP3    H242219   0.427   1.118   4.583  1.5351 -0.3433 -0.7753
 6910TIP3   OH242220   5.570   4.746  14.347 -0.0186 -0.0971 -0.0762
 6910TIP3    H142221   5.501   4.792  14.298  1.6122 -0.3208 -2.8405
 6910TIP3    H242222   5.549   4.653  14.337 -0.0382 -0.1276  0.2403
 6911TIP3   OH242223   3.525   4.298   0.895  0.0850  0.0930 -0.2627
 6911TIP3    H142224   3.482   4.214   0.882 -2.7205  1.1002  1.5199
 6911TIP3    H242225   3.476   4.339   0.966  2.2124  2.6865 -0.1321
 6912TIP3   OH242226   3.426   0.127   3.801  0.3585  0.3533  0.1397
 6912TIP3    H142227   3.392   0.212   3.828  1.6859  0.9309  0.0621
 6912TIP3    H242228   3.507   0.147   3.753  1.2420 -0.9766  1.0002
 6913TIP3   OH242229   5.184   0.176  11.213  0.0251  0.5007 -0.4222
 6913TIP3    H142230   5.175   0.271  11.205 -0.2699  0.6898  1.7446
 6913TIP3    H242231   5.238   0.151  11.137 -1.3326  2.1295 -2.0083
 6914TIP3   OH242232   6.442   5.065  16.118 -0.5975 -0.4074 -0.2113
 6914TIP3    H142233   6.397   5.131  16.170 -0.1451  0.5649 -1.0300
 6914TIP3    H242234   6.374   5.026  16.064 -0.9408 -0.9294  0.5707
 6915TIP3   OH242235   1.066   4.073  15.945  0.6642  0.7508  0.4467
 6915TIP3    H142236   1.133   4.117  15.998  0.8645 -0.1565  0.9505
 6915TIP3    H242237   1.098   4.082  15.855  0.7234  1.5943  0.5417
 6916TIP3   OH242238   3.275   2.579  15.417 -0.4140 -0.0281  0.3013
 6916TIP3    H142239   3.256   2.660  15.464 -4.1703 -0.2383 -0.5003
 6916TIP3    H242240   3.291   2.607  15.326  1.3496 -0.0313  0.5784
 6917TIP3   OH242241   5.519   4.520  13.416  0.3546  0.4782 -0.6176
 6917TIP3    H142242   5.448   4.465  13.450  1.9162 -1.1581  0.1646
 6917TIP3    H242243   5.508   4.604  13.463  0.7519 -0.7731  1.8980
 6918TIP3   OH242244   0.158   3.909   1.080  0.1432  0.0879 -0.2570
 6918TIP3    H142245   0.109   3.920   1.162  0.9066 -1.1895  0.4161
 6918TIP3    H242246   0.209   3.989   1.072 -0.8033  0.7285 -0.1017
 6919TIP3   OH242247   0.361   5.538  16.630  0.1016  0.2059  0.3052
 6919TIP3    H142248   0.392   5.467  16.574 -2.6991 -0.5568 -0.4159
 6919TIP3    H242249   0.331   5.495  16.710  1.0373  0.9399  1.0828
 6920TIP3   OH242250   2.831   5.859   3.998 -0.3895  0.6562  0.3496
 6920TIP3    H142251   2.751   5.839   4.047 -1.1525  1.7142 -0.4193
 6920TIP3    H242252   2.834   5.792   3.930 -1.3916  1.3903 -0.4602
 6921TIP3   OH242253   2.113   1.224   1.157  0.1127  0.5076  0.3297
 6921TIP3    H142254   2.203   1.242   1.183 -0.3790  1.2380  1.6035
 6921TIP3    H242255   2.068   1.308   1.166 -0.6128  0.2602 -0.7353
 6922TIP3   OH242256   3.157   0.763   5.943 -0.3855  0.1655 -0.2472
 6922TIP3    H142257   3.181   0.754   6.036 -0.4274  2.0238 -0.0108
 6922TIP3    H242258   3.073   0.718   5.936 -0.8850  0.8667  0.8756
 6923TIP3   OH242259   4.014   2.319   1.023 -0.1672 -0.1024  0.1540
 6923TIP3    H142260   4.025   2.352   1.112  0.9791 -2.7656  1.1085
 6923TIP3    H242261   4.096   2.341   0.979 -0.3263  0.3245  0.0694
 6924TIP3   OH242262   1.472   0.199  17.223 -0.6787 -0.3989 -0.2101
 6924TIP3    H142263   1.386   0.177  17.186 -1.1662 -0.1755  0.7713
 6924TIP3    H242264   1.516   0.114  17.235  0.0332 -0.4284 -2.5070
 6925TIP3   OH242265   3.673   1.299  16.666 -0.1464 -0.2474 -0.0392
 6925TIP3    H142266   3.710   1.240  16.600 -0.2782 -0.3391 -0.0318
 6925TIP3    H242267   3.619   1.359  16.616  0.0350 -0.0939 -0.0537
 6926TIP3   OH242268   5.246   3.153   6.667  0.3964  1.2724  0.8190
 6926TIP3    H142269   5.298   3.157   6.747  0.7841  1.8071  0.5487
 6926TIP3    H242270   5.299   3.199   6.602 -0.0418  1.0894  0.3284
 6927TIP3   OH242271   3.837   3.162   0.096 -0.1626 -0.9158 -0.3952
 6927TIP3    H142272   3.932   3.167   0.088 -0.1271  0.7445  0.5960
 6927TIP3    H242273   3.820   3.178   0.189 -1.4498  0.1059 -0.7685
 6928TIP3   OH242274   3.110   4.006   0.677 -0.4108  0.8115 -0.9008
 6928TIP3    H142275   3.093   4.092   0.716 -0.2348  0.9715 -1.1749
 6928TIP3    H242276   3.023   3.965   0.672 -0.5233  1.0522 -0.9539
 6929TIP3   OH242277   5.042   3.336  14.258 -0.1734  0.1301 -0.3027
 6929TIP3    H142278   5.128   3.319  14.296 -0.6440  0.5947  1.0126
 6929TIP3    H242279   5.030   3.431  14.268 -1.5611 -0.1581  1.1606
 6930TIP3   OH242280   1.488   5.372  11.059  0.3783  0.6525 -0.5810
 6930TIP3    H142281   1.443   5.421  11.128  0.3412  1.2711 -1.0419
 6930TIP3    H242282   1.448   5.285  11.062 -0.8089  1.1771 -0.9475
 6931TIP3   OH242283   3.655   4.559  12.978  0.3296  0.2719  0.0092
 6931TIP3    H142284   3.625   4.470  12.999  0.3858  0.0609 -0.7721
 6931TIP3    H242285   3.671   4.557  12.883  0.6182  1.0318  0.0372
 6932TIP3   OH242286   6.617   1.548  13.130  0.1600  0.6346  0.1014
 6932TIP3    H142287   6.682   1.482  13.108  0.5143  0.9595  0.1701
 6932TIP3    H242288   6.533   1.508  13.107  0.3777  0.1790  0.1105
 6933TIP3   OH242289   0.786   6.646   1.004 -0.5802  0.1681 -0.7589
 6933TIP3    H142290   0.739   6.624   0.923  1.4978 -2.1146 -1.4665
 6933TIP3    H242291   0.744   6.592   1.071 -2.0516  1.7762 -0.3128
 6934TIP3   OH242292   4.577   1.332  12.296  0.3554  0.2637 -0.7260
 6934TIP3    H142293   4.631   1.399  12.252  0.2994  0.5011 -0.4398
 6934TIP3    H242294   4.640   1.266  12.325  0.5560  0.7707  0.0206
 6935TIP3   OH242295   1.363   2.372  11.963 -0.3725  0.0973 -0.2147
 6935TIP3    H142296   1.341   2.464  11.943 -1.5842  0.5975  2.9313
 6935TIP3    H242297   1.292   2.342  12.020  0.8772 -2.2954  0.2049
 6936TIP3   OH242298   3.478   5.808   5.463 -0.4275 -0.1369  0.7667
 6936TIP3    H142299   3.483   5.730   5.520  1.4760 -2.2035 -1.9764
 6936TIP3    H242300   3.443   5.774   5.381 -0.8348  2.2569 -0.1048
 6937TIP3   OH242301   5.657   5.942  13.436  0.6323  0.0154 -0.4523
 6937TIP3    H142302   5.612   6.024  13.417 -0.4173 -0.8214 -1.7159
 6937TIP3    H242303   5.748   5.957  13.409  1.1413  1.6193  1.8299
 6938TIP3   OH242304   4.463   1.135   2.025 -0.3905 -0.6250 -0.1411
 6938TIP3    H142305   4.541   1.139   1.970 -0.5510  1.0467 -0.2892
 6938TIP3    H242306   4.497   1.132   2.114 -0.1310  1.1061 -0.1581
 6939TIP3   OH242307   0.825   1.224   5.308  0.3931  0.1254  0.7842
 6939TIP3    H142308   0.776   1.147   5.278 -0.3090  1.0618 -0.5626
 6939TIP3    H242309   0.889   1.189   5.370 -0.0406 -1.5132  0.3478
 6940TIP3   OH242310   3.633   3.741   5.764  0.1575  0.3260  0.5146
 6940TIP3    H142311   3.545   3.730   5.799 -0.8614  0.3058 -1.8837
 6940TIP3    H242312   3.662   3.652   5.744 -0.1920  0.4685 -0.7121
 6941TIP3   OH242313   3.338   1.188  16.755 -0.2706 -0.0869 -0.1525
 6941TIP3    H142314   3.330   1.282  16.743 -1.6792 -0.2460 -0.5917
 6941TIP3    H242315   3.255   1.161  16.793  0.0603 -1.1778 -0.1571
 6942TIP3   OH242316   4.953   3.422  15.003 -0.6438  0.2666  0.5391
 6942TIP3    H142317   5.045   3.438  15.024 -1.0330  1.0416  1.7884
 6942TIP3    H242318   4.908   3.429  15.087 -1.5911 -2.1850  0.3156
 6943TIP3   OH242319   0.080   6.537   0.061  0.2061 -0.0430  0.6157
 6943TIP3    H142320   0.085   6.632   0.059 -0.9745  0.0861  2.0004
 6943TIP3    H242321   0.063   6.516   0.153 -0.4716 -1.5212  0.1831
 6944TIP3   OH242322   0.460   4.292  10.373  0.6806  0.3996 -0.0295
 6944TIP3    H142323   0.512   4.258  10.447  0.0601  0.6745  0.5399
 6944TIP3    H242324   0.428   4.214  10.328  0.9270  0.2301  0.0882
 6945TIP3   OH242325   5.845   0.442   2.668 -0.0251  0.2967 -0.1492
 6945TIP3    H142326   5.761   0.452   2.713  0.1885  1.5123 -0.0023
 6945TIP3    H242327   5.878   0.531   2.657  0.9436 -0.1207 -0.7955
 6946TIP3   OH242328   1.308   3.834  14.872  0.0481  0.2804  0.2437
 6946TIP3    H142329   1.394   3.801  14.848  1.0571  1.9100  1.4610
 6946TIP3    H242330   1.325   3.902  14.937 -2.1695  0.5319  0.6447
 6947TIP3   OH242331   1.176   1.189   5.184 -0.5806 -0.4150  0.4145
 6947TIP3    H142332   1.093   1.160   5.146 -0.5710  0.0962 -0.0069
 6947TIP3    H242333   1.211   1.251   5.121 -0.7316  0.7112  1.4024
 6948TIP3   OH242334   0.231   5.469   3.492 -0.1723  0.0425 -0.0349
 6948TIP3    H142335   0.135   5.470   3.496 -0.2434 -0.2866 -1.3247
 6948TIP3    H242336   0.255   5.557   3.463 -0.0648  0.1493  0.3617
 6949TIP3   OH242337   6.817   6.092   0.601 -0.5255 -0.1723 -0.2171
 6949TIP3    H142338   6.875   6.056   0.668 -0.4139  1.4253  0.5909
 6949TIP3    H242339   6.742   6.127   0.649  0.1597  2.1870 -0.7220
 6950TIP3   OH242340   5.359   1.899   3.351  0.5513  0.0824 -0.1793
 6950TIP3    H142341   5.308   1.965   3.304  0.1822 -0.4950 -0.6028
 6950TIP3    H242342   5.308   1.818   3.342  0.2155  0.0588  1.6504
 6951TIP3   OH242343   2.654   4.176  13.865 -0.0965 -0.1984 -0.2620
 6951TIP3    H142344   2.681   4.127  13.788  1.0757 -0.6732  0.4237
 6951TIP3    H242345   2.621   4.110  13.926 -1.6280  0.2379 -0.5763
 6952TIP3   OH242346   2.643   4.074  14.304 -0.5265 -0.5666 -0.1826
 6952TIP3    H142347   2.678   4.009  14.242 -0.6721  0.0617 -0.9432
 6952TIP3    H242348   2.571   4.029  14.348  1.4149 -1.9970  1.6632
 6953TIP3   OH242349   4.047   5.022   5.642  0.3692  0.6275  0.0447
 6953TIP3    H142350   4.102   4.976   5.706  0.6803 -1.7391 -1.7551
 6953TIP3    H242351   4.098   5.019   5.561 -1.6242 -0.0763 -1.2668
 6954TIP3   OH242352   4.131   2.750   5.524  0.1510 -0.6409  0.9650
 6954TIP3    H142353   4.043   2.733   5.557 -0.5789  0.7868 -0.1020
 6954TIP3    H242354   4.167   2.816   5.584 -0.4834  0.6045  0.0263
 6955TIP3   OH242355   3.479   4.916   1.539  0.9928  0.3628  0.7267
 6955TIP3    H142356   3.562   4.878   1.566  0.2509 -0.1620  2.3678
 6955TIP3    H242357   3.414   4.878   1.598 -0.6789 -0.4301 -1.4635
 6956TIP3   OH242358   4.693   3.572  16.268  0.0812  0.0266  0.4862
 6956TIP3    H142359   4.624   3.534  16.324  0.2054 -0.5053  0.2813
 6956TIP3    H242360   4.757   3.606  16.330  1.2862 -2.4543  0.7397
 6957TIP3   OH242361   6.237   2.928   4.334  0.9553  0.6454 -0.0526
 6957TIP3    H142362   6.309   2.988   4.314  1.6632 -0.1070  0.2101
 6957TIP3    H242363   6.257   2.894   4.421  0.4561  0.1710 -0.1159
 6958TIP3   OH242364   2.125   3.963   0.674 -0.8852 -0.2699 -0.1953
 6958TIP3    H142365   2.030   3.958   0.667 -0.9195 -0.5086  0.4031
 6958TIP3    H242366   2.149   3.888   0.729 -0.4737  0.6102  0.8339
 6959TIP3   OH242367   4.800   1.112   5.447  0.2319 -0.4139  0.2570
 6959TIP3    H142368   4.725   1.102   5.388  0.6202 -0.0786 -0.3056
 6959TIP3    H242369   4.866   1.053   5.411  0.4642 -0.2261  0.3793
 6960TIP3   OH242370   0.167   5.576   3.104  0.4048  0.4539 -0.2394
 6960TIP3    H142371   0.122   5.493   3.120 -0.0525  0.5612 -0.9071
 6960TIP3    H242372   0.232   5.582   3.173  1.1667 -0.9701 -0.7771
 6961TIP3   OH242373   3.279   0.267  11.100  0.1303  0.4563 -0.0400
 6961TIP3    H142374   3.310   0.200  11.040  1.4387 -0.2788  1.3864
 6961TIP3    H242375   3.208   0.311  11.053  0.7897 -0.3833 -1.9101
 6962TIP3   OH242376   3.941   5.291  15.101 -0.1721 -0.1614 -0.4381
 6962TIP3    H142377   4.030   5.321  15.121 -0.2468  0.5048 -1.0478
 6962TIP3    H242378   3.950   5.198  15.083  0.1524 -0.4400  0.9996
 6963TIP3   OH242379   5.064   2.892   5.794  0.3331 -0.0176 -0.2676
 6963TIP3    H142380   5.125   2.896   5.720  1.4003  0.3966  0.6155
 6963TIP3    H242381   5.115   2.922   5.869 -1.5153  2.3730  0.1510
 6964TIP3   OH242382   2.358   3.950   6.464 -0.5718 -0.5775  0.1457
 6964TIP3    H142383   2.430   3.893   6.490 -0.1785  0.0108  0.3474
 6964TIP3    H242384   2.390   3.998   6.388  0.0128  1.1487  1.4189
 6965TIP3   OH242385   2.276   4.320  16.410 -0.1795 -0.2530 -1.4253
 6965TIP3    H142386   2.330   4.389  16.448  1.5755 -1.3174 -1.8542
 6965TIP3    H242387   2.188   4.357  16.407  0.2713  1.1090  0.4430
 6966TIP3   OH242388   4.687   1.082  12.328 -0.2875  0.4024  0.0358
 6966TIP3    H142389   4.624   1.012  12.311 -0.4444  0.9238 -1.8428
 6966TIP3    H242390   4.772   1.043  12.307 -0.4686  1.0034 -2.1608
 6967TIP3   OH242391   2.726   1.082  12.228  0.1537  0.2772 -0.0402
 6967TIP3    H142392   2.811   1.044  12.206  0.4544  0.7368  0.3127
 6967TIP3    H242393   2.725   1.085  12.324  0.3564  1.6202 -0.0567
 6968TIP3   OH242394   3.411   6.323   0.126 -0.0954  0.1399 -0.6093
 6968TIP3    H142395   3.329   6.297   0.169  0.0422  0.4461 -0.1475
 6968TIP3    H242396   3.476   6.322   0.197 -0.0083  1.3555 -0.6482
 6969TIP3   OH242397   5.825   1.733  13.040 -0.0008 -0.1744  0.0924
 6969TIP3    H142398   5.773   1.766  12.967 -1.0807 -1.4412  0.2495
 6969TIP3    H242399   5.837   1.809  13.097 -0.7075  0.3962 -0.5029
 6970TIP3   OH242400   0.519   0.557  14.234 -0.4155  0.0789  0.3529
 6970TIP3    H142401   0.424   0.558  14.243 -0.5735 -0.9370 -0.9084
 6970TIP3    H242402   0.549   0.496  14.301 -0.6664  0.2147  0.5911
 6971TIP3   OH242403   5.282   1.759   0.849 -0.6119  0.5250 -0.0605
 6971TIP3    H142404   5.208   1.701   0.867  0.2464 -0.4536  0.4212
 6971TIP3    H242405   5.300   1.801   0.933 -0.2662  0.3258 -0.0331
 6972TIP3   OH242406   5.457   4.325   5.340  0.3165 -0.2160  0.0386
 6972TIP3    H142407   5.433   4.234   5.357  0.0829 -0.0995  0.3363
 6972TIP3    H242408   5.374   4.370   5.324  0.5365 -0.3661 -1.6912
 6973TIP3   OH242409   4.447   5.519  12.764 -0.3899 -0.4420  0.2743
 6973TIP3    H142410   4.354   5.541  12.764 -0.7436 -1.8486  0.1762
 6973TIP3    H242411   4.456   5.450  12.830  0.5949 -0.2889  0.3193
 6974TIP3   OH242412   2.201   3.697   4.432 -0.4450  0.3152  0.3874
 6974TIP3    H142413   2.157   3.782   4.441  2.1283  1.8639 -0.4314
 6974TIP3    H242414   2.188   3.673   4.340  3.3268  2.7238 -1.0081
 6975TIP3   OH242415   1.722   2.428   2.862  0.3122 -0.6448 -0.1579
 6975TIP3    H142416   1.726   2.365   2.934  1.0468 -0.5851 -0.1396
 6975TIP3    H242417   1.779   2.500   2.890  0.5888 -0.6144 -0.7868
 6976TIP3   OH242418   5.885   0.999   4.405  0.1107  0.1729 -0.1801
 6976TIP3    H142419   5.812   1.055   4.432  0.3007  0.8088 -0.9611
 6976TIP3    H242420   5.961   1.038   4.448 -0.1184 -1.1480  1.5695
 6977TIP3   OH242421   1.726   1.378  12.581 -0.3488  0.1912 -0.6528
 6977TIP3    H142422   1.709   1.468  12.551 -0.3425  0.1790 -0.6931
 6977TIP3    H242423   1.789   1.389  12.652 -0.5215  0.2360 -0.5063
 6978TIP3   OH242424   1.368   4.656   3.004  0.3501  0.3134 -0.4993
 6978TIP3    H142425   1.385   4.638   3.096 -0.8655  1.1304 -0.0888
 6978TIP3    H242426   1.277   4.686   3.001  0.0963 -0.4643 -2.0757
 6979TIP3   OH242427   2.962   2.615  12.030  0.0937  0.1185 -0.3760
 6979TIP3    H142428   2.930   2.670  11.958 -0.4908  1.3064  0.7616
 6979TIP3    H242429   2.890   2.613  12.093  0.6069 -0.8849  0.2061
 6980TIP3   OH242430   0.575   5.690  16.529  0.1385  0.2948 -0.2029
 6980TIP3    H142431   0.567   5.774  16.574  2.4700 -0.6846  2.3210
 6980TIP3    H242432   0.493   5.645  16.546  0.4082  0.5261  1.9876
 6981TIP3   OH242433   0.794   0.003   6.573  0.1162 -0.1488  0.1204
 6981TIP3    H142434   0.722  -0.060   6.570 -0.1526  0.1222  0.6525
 6981TIP3    H242435   0.758   0.078   6.620  0.2399  0.6557 -1.0173
 6982TIP3   OH242436   0.872   3.324   0.387 -0.2106 -0.4943  0.2958
 6982TIP3    H142437   0.806   3.255   0.381 -1.4178  0.4906  1.4355
 6982TIP3    H242438   0.864   3.372   0.304  1.2189 -2.1506 -0.8664
 6983TIP3   OH242439   2.048   6.117   3.712 -0.3917 -0.1821  0.2343
 6983TIP3    H142440   2.086   6.029   3.705  1.5549  0.7390 -2.2971
 6983TIP3    H242441   1.957   6.106   3.685  0.3828 -1.1647 -2.3139
 6984TIP3   OH242442   5.042   0.462  17.147  0.6297  0.3123 -0.1247
 6984TIP3    H142443   5.046   0.371  17.176 -1.3774 -0.1594 -1.1497
 6984TIP3    H242444   5.045   0.457  17.052 -0.5007  1.2086 -0.2272
 6985TIP3   OH242445   2.259   2.467   4.946 -0.2777  0.0597  0.3156
 6985TIP3    H142446   2.278   2.551   4.989 -0.0809 -0.4602  1.2667
 6985TIP3    H242447   2.172   2.480   4.908 -0.3859  0.5997  0.7240
 6986TIP3   OH242448   0.101   1.643   0.648  0.1752  0.2271 -0.0931
 6986TIP3    H142449   0.192   1.663   0.669  0.5006  0.2308 -1.3973
 6986TIP3    H242450   0.093   1.664   0.555 -0.7317 -1.2546 -0.3854
 6987TIP3   OH242451   1.446   3.218  15.807  0.0338 -0.3540  0.3206
 6987TIP3    H142452   1.446   3.243  15.714  0.8137 -1.7795 -0.0970
 6987TIP3    H242453   1.359   3.183  15.823 -0.3521  0.5916  0.3407
 6988TIP3   OH242454   4.165   1.541  15.384 -0.7901  0.3264 -0.4981
 6988TIP3    H142455   4.176   1.532  15.478 -1.3607 -2.3767 -0.6157
 6988TIP3    H242456   4.254   1.541  15.349 -0.6211 -0.2667 -0.0693
 6989TIP3   OH242457   3.814   2.971   3.932 -0.5406  0.3301  0.1970
 6989TIP3    H142458   3.909   2.985   3.938 -0.7366  1.4096  1.2358
 6989TIP3    H242459   3.776   3.058   3.943 -1.6489  0.0268 -1.0055
 6990TIP3   OH242460   4.654   4.556   5.811  0.0403  0.4570  0.1126
 6990TIP3    H142461   4.647   4.461   5.806  0.0525  0.4883 -0.5226
 6990TIP3    H242462   4.605   4.580   5.890 -1.2022  0.0510 -0.5062
 6991TIP3   OH242463   5.860   3.620  15.261 -0.7145  0.6543 -0.0700
 6991TIP3    H142464   5.771   3.630  15.227 -0.1663  1.3302 -1.3552
 6991TIP3    H242465   5.907   3.697  15.229  0.5138 -0.0242  0.0318
 6992TIP3   OH242466   4.271   3.737   6.744  0.1185  0.5210 -0.2595
 6992TIP3    H142467   4.200   3.687   6.702  1.0536 -0.2769 -0.9365
 6992TIP3    H242468   4.290   3.807   6.682  0.4870  0.2255 -0.4883
 6993TIP3   OH242469   2.420   3.732   6.256 -0.0830 -0.1479 -0.5254
 6993TIP3    H142470   2.466   3.648   6.261  1.0610  0.5029  1.0614
 6993TIP3    H242471   2.461   3.785   6.325 -1.2679  1.4694 -1.0069
 6994TIP3   OH242472   3.681   6.347   3.662  0.3992  0.1698 -0.3939
 6994TIP3    H142473   3.692   6.303   3.747 -2.1847 -1.4476 -0.8042
 6994TIP3    H242474   3.757   6.319   3.611  1.3726  0.2235  0.9504
 6995TIP3   OH242475   6.007   1.508  15.869 -0.4675 -0.1804 -0.3805
 6995TIP3    H142476   6.044   1.523  15.956  1.3249 -1.3785 -0.8702
 6995TIP3    H242477   5.979   1.417  15.871 -0.6233 -0.1466 -0.9737
 6996TIP3   OH242478   2.552   5.656   0.485  0.1371  0.2416  0.7923
 6996TIP3    H142479   2.542   5.575   0.435  0.8385  1.3652 -1.3145
 6996TIP3    H242480   2.479   5.711   0.457  0.9281  1.1493  0.4409
 6997TIP3   OH242481   0.196   1.905   5.547  0.0602  0.1452 -0.1445
 6997TIP3    H142482   0.252   1.830   5.524 -1.9576 -1.4752 -0.0398
 6997TIP3    H242483   0.257   1.978   5.559  2.1143 -1.4858 -0.1896
 6998TIP3   OH242484   4.717   1.929   3.286 -0.5462 -0.5698 -0.1543
 6998TIP3    H142485   4.682   1.840   3.279 -0.9821 -0.4199  0.0963
 6998TIP3    H242486   4.772   1.939   3.209  0.2566 -1.3890  0.2989
 6999TIP3   OH242487   2.099   0.915   1.495  1.0091 -0.4541 -0.4927
 6999TIP3    H142488   2.084   0.966   1.575  1.5444 -2.6477  1.1281
 6999TIP3    H242489   2.191   0.930   1.473  0.7825  0.3872 -0.8843
 7000TIP3   OH242490   0.567   2.878   1.888  0.6205  0.0639 -0.2592
 7000TIP3    H142491   0.496   2.846   1.944  0.5868  0.4886 -0.0474
 7000TIP3    H242492   0.643   2.882   1.946  1.0050 -1.0760 -0.6667
 7001TIP3   OH242493   4.390   4.254   1.607 -0.0588  0.0588 -0.3353
 7001TIP3    H142494   4.409   4.348   1.616  1.3422 -0.2452  0.1631
 7001TIP3    H242495   4.472   4.211   1.632 -1.0104 -1.3446  0.4547
 7002TIP3   OH242496   6.683   1.022   3.819 -0.1207 -0.2786 -0.1432
 7002TIP3    H142497   6.630   1.096   3.851 -1.8834 -1.9122  0.9394
 7002TIP3    H242498   6.752   1.063   3.767 -2.1615  2.0351 -1.2443
 7003TIP3   OH242499   6.321   1.307   0.016  0.1547 -0.0601  0.3048
 7003TIP3    H142500   6.235   1.344  -0.005  0.9112  0.9809 -1.1378
 7003TIP3    H242501   6.302   1.217   0.042 -1.3289 -0.0166 -0.4821
 7004TIP3   OH242502   6.630   5.811   4.000  0.4910  0.0991 -0.2973
 7004TIP3    H142503   6.712   5.764   4.014  0.9175  0.8392 -0.2190
 7004TIP3    H242504   6.583   5.803   4.083  1.2289  1.0698  0.2297
 7005TIP3   OH242505   5.507   6.512   4.171  0.3356  0.2357  0.4102
 7005TIP3    H142506   5.522   6.564   4.092 -0.5345  0.0224  0.0968
 7005TIP3    H242507   5.468   6.431   4.140  0.9205 -0.2734  0.9763
 7006TIP3   OH242508   2.852   4.196  15.973  0.4403 -0.2163  0.2235
 7006TIP3    H142509   2.929   4.146  15.947 -0.7240 -1.5990 -0.7152
 7006TIP3    H242510   2.885   4.257  16.040  1.9956 -1.9977  1.2017
 7007TIP3   OH242511   4.614   3.286  13.949  0.6260 -0.4673 -0.0471
 7007TIP3    H142512   4.582   3.326  13.868 -1.7901 -1.0571  0.5469
 7007TIP3    H242513   4.689   3.341  13.974  0.1800  0.9471 -1.5964
 7008TIP3   OH242514   2.539   6.629  15.672  0.0031 -0.1662  0.0016
 7008TIP3    H142515   2.576   6.685  15.741  1.0765 -1.8351  0.8555
 7008TIP3    H242516   2.476   6.573  15.718 -0.4327 -0.2456 -0.6740
 7009TIP3   OH242517   3.684   4.960  12.217  0.0757 -0.3921 -0.5647
 7009TIP3    H142518   3.646   5.029  12.271  1.7402 -0.2205  0.4399
 7009TIP3    H242519   3.636   4.965  12.134 -1.0625  0.7456  0.1330
 7010TIP3   OH242520   3.559   0.544  12.275 -0.2497 -0.0264 -0.0348
 7010TIP3    H142521   3.548   0.449  12.277  1.4865 -0.2784 -0.4393
 7010TIP3    H242522   3.626   0.561  12.342 -0.2169  0.8609 -0.2801
 7011TIP3   OH242523   6.099   2.948   2.513 -0.1960 -0.6412  0.1033
 7011TIP3    H142524   6.149   2.910   2.586  0.3153 -1.3857 -0.6068
 7011TIP3    H242525   6.082   3.038   2.539 -3.7854 -1.9305  3.0901
 7012TIP3   OH242526   6.217   5.688   3.841  0.3345 -1.0559 -0.1093
 7012TIP3    H142527   6.217   5.756   3.773 -2.0005 -1.7408 -0.8778
 7012TIP3    H242528   6.241   5.608   3.795  0.3008 -1.2506  0.2094
 7013TIP3   OH242529   4.494   3.645   1.100 -0.0269 -0.2881 -0.7266
 7013TIP3    H142530   4.451   3.729   1.118  1.0431  0.3531 -1.0404
 7013TIP3    H242531   4.434   3.579   1.135 -1.5260  0.5227 -1.6558
 7014TIP3   OH242532   4.369   0.406   4.174  0.1604  0.0328 -0.6835
 7014TIP3    H142533   4.301   0.339   4.179  1.1136 -1.1199 -2.1518
 7014TIP3    H242534   4.349   0.467   4.245 -0.9398 -1.6258  0.4995
 7015TIP3   OH242535   3.585   2.848   1.951  0.2949 -0.2087  0.7771
 7015TIP3    H142536   3.611   2.941   1.949 -0.4501 -0.0068 -0.5475
 7015TIP3    H242537   3.490   2.850   1.964  0.1424 -0.7557 -0.2191
 7016TIP3   OH242538   4.269   3.147   3.017 -0.3682 -0.5759 -0.2372
 7016TIP3    H142539   4.204   3.088   3.055 -1.9292 -0.4712 -2.5478
 7016TIP3    H242540   4.246   3.233   3.052  0.4878 -0.9455  1.3330
 7017TIP3   OH242541   5.411   1.051  16.447 -0.3750  0.1096 -0.2929
 7017TIP3    H142542   5.396   1.108  16.523  0.1213  0.8611 -0.7401
 7017TIP3    H242543   5.374   0.967  16.472  0.2090  0.2041  0.9786
 7018TIP3   OH242544   1.125   0.168   3.186  0.0225 -0.3555 -0.5840
 7018TIP3    H142545   1.149   0.141   3.274 -0.2960  0.3792 -0.2553
 7018TIP3    H242546   1.088   0.256   3.198  0.0279 -0.2258 -1.4545
 7019TIP3   OH242547   3.678   0.989  12.439  0.6096  0.2669 -0.6695
 7019TIP3    H142548   3.751   0.995  12.500 -0.5296 -2.9614  1.2783
 7019TIP3    H242549   3.603   1.021  12.489 -0.3263 -2.3359 -0.2857
 7020TIP3   OH242550   1.543   0.502   2.425  0.0777  0.5704 -0.1733
 7020TIP3    H142551   1.600   0.575   2.401  0.0815  0.5125 -0.3411
 7020TIP3    H242552   1.455   0.539   2.427  0.0654  0.5554 -0.3718
 7021TIP3   OH242553   1.534   2.388  17.204 -0.5357  0.1036  0.1790
 7021TIP3    H142554   1.622   2.425  17.210 -0.1835 -0.9426  2.0521
 7021TIP3    H242555   1.513   2.359  17.293 -2.4060 -0.5268 -0.4113
 7022TIP3   OH242556   1.374   0.909  16.399  0.1781 -0.4282  0.0751
 7022TIP3    H142557   1.326   0.957  16.466  0.3217  0.0512 -0.1630
 7022TIP3    H242558   1.422   0.976  16.350  2.0750 -0.9983  1.0653
 7023TIP3   OH242559   2.970   2.099  13.398 -0.3697  0.8198 -0.4092
 7023TIP3    H142560   3.044   2.153  13.370  0.3231  0.0893 -0.0368
 7023TIP3    H242561   3.004   2.010  13.397 -0.4279  0.6727  2.2039
 7024TIP3   OH242562   0.977   2.650  13.156  0.6954 -0.4560 -0.1237
 7024TIP3    H142563   1.067   2.651  13.191  0.8517 -2.0594 -0.4165
 7024TIP3    H242564   0.922   2.657  13.234  1.0647 -1.6693  0.2600
 7025TIP3   OH242565   1.928   4.815  16.544  0.1935 -0.2558 -1.2691
 7025TIP3    H142566   1.958   4.893  16.496 -2.2498  0.1054 -2.3651
 7025TIP3    H242567   1.969   4.822  16.630  0.7693  1.7520 -1.6604
 7026TIP3   OH242568   1.869   3.360  12.295  0.4811  0.1442  0.3740
 7026TIP3    H142569   1.906   3.391  12.378  2.3646 -0.0252 -0.3592
 7026TIP3    H242570   1.883   3.431  12.233  0.4023 -0.2816 -0.1428
 7027TIP3   OH242571   6.358   1.262   4.643  0.3939  0.0849  0.4374
 7027TIP3    H142572   6.416   1.296   4.711 -0.1191  0.1219  0.8663
 7027TIP3    H242573   6.393   1.176   4.622  2.1510  1.1048 -1.1801
 7028TIP3   OH242574   5.197   3.245  15.293 -0.6316  0.0861  0.1143
 7028TIP3    H142575   5.292   3.239  15.287 -0.5051  0.2333  1.7035
 7028TIP3    H242576   5.171   3.290  15.212  0.3349 -2.4710 -1.7618
 7029TIP3   OH242577   4.082   0.525  11.709 -0.0660  0.3231 -0.1954
 7029TIP3    H142578   4.027   0.519  11.631  0.6062 -0.2363 -0.6410
 7029TIP3    H242579   4.163   0.567  11.679  0.6939 -1.0081 -0.1079
 7030TIP3   OH242580   2.043   6.514   3.277 -0.5809 -0.2468 -0.5354
 7030TIP3    H142581   2.062   6.434   3.326 -2.0525 -0.5235 -0.3694
 7030TIP3    H242582   2.058   6.584   3.341  2.4647 -0.1627 -1.1658
 7031TIP3   OH242583   5.675   4.792   0.066  0.0279  0.0032 -0.0478
 7031TIP3    H142584   5.715   4.830   0.145  0.4441  3.3510 -1.6715
 7031TIP3    H242585   5.718   4.707   0.056  2.4187  0.9198  1.5317
 7032TIP3   OH242586   4.606   2.652  11.976 -0.2487 -0.2548  0.4445
 7032TIP3    H142587   4.649   2.705  11.908  0.1546 -0.5699  0.4463
 7032TIP3    H242588   4.559   2.584  11.928  0.6301 -0.9195  0.4886
 7033TIP3   OH242589   4.922   2.568   6.072  0.2414 -0.1562  0.2578
 7033TIP3    H142590   4.840   2.535   6.036  0.4015  0.2773 -0.5347
 7033TIP3    H242591   4.917   2.548   6.165 -0.9347  0.2138  0.2917
 7034TIP3   OH242592   0.713   4.819  13.252 -0.3024 -0.6053  0.2523
 7034TIP3    H142593   0.772   4.895  13.248 -1.9720  0.7145 -2.6755
 7034TIP3    H242594   0.638   4.849  13.303 -0.8748 -0.2884 -0.7407
 7035TIP3   OH242595   2.984   1.770  11.952  0.4961 -0.4416 -0.6468
 7035TIP3    H142596   3.053   1.836  11.943  1.3543 -1.1842  0.3551
 7035TIP3    H242597   2.990   1.741  12.043 -2.1165  0.5266 -0.0681
 7036TIP3   OH242598   2.915   1.365   2.963  0.7001 -0.3127 -0.2130
 7036TIP3    H142599   2.931   1.415   3.043  0.1162 -1.7474  0.8428
 7036TIP3    H242600   2.931   1.274   2.988  0.6847 -0.7700 -1.7845
 7037TIP3   OH242601   0.983   3.129  14.802 -0.3342  0.5700 -0.0345
 7037TIP3    H142602   0.988   3.064  14.732 -1.0114  0.2705  0.1868
 7037TIP3    H242603   1.048   3.195  14.778  0.4077 -0.2160 -0.2313
 7038TIP3   OH242604   5.717   3.952  12.259  0.1007  0.2716 -0.3360
 7038TIP3    H142605   5.807   3.962  12.225  0.2998  0.7926  0.3216
 7038TIP3    H242606   5.681   3.879  12.209  1.2119 -0.5826  0.0448
 7039TIP3   OH242607   6.642   4.536   3.555  0.5997 -0.0713 -0.3827
 7039TIP3    H142608   6.567   4.595   3.565 -0.9421 -1.7235 -1.6631
 7039TIP3    H242609   6.674   4.553   3.466  0.1674 -1.1105 -0.7465
 7040TIP3   OH242610   2.947   0.141   0.848 -0.5707 -0.9518 -0.5898
 7040TIP3    H142611   2.987   0.184   0.924  0.6711 -1.3542 -0.9795
 7040TIP3    H242612   2.853   0.149   0.862 -0.3785  0.7508 -0.0159
 7041TIP3   OH242613   3.460   2.238  17.284 -0.6678  0.0946  0.0845
 7041TIP3    H142614   3.480   2.332  17.286  1.1249 -0.2518  1.0899
 7041TIP3    H242615   3.425   2.220  17.371 -0.4783 -0.2697  0.0845
 7042TIP3   OH242616   1.086   3.001   4.016 -0.1335 -1.1093 -0.5724
 7042TIP3    H142617   0.997   2.976   4.041  0.2236 -1.0765  0.8388
 7042TIP3    H242618   1.142   2.952   4.077  0.7555 -0.2513 -0.6822
 7043TIP3   OH242619   1.143   5.159  14.407 -0.6022  0.4553  0.1196
 7043TIP3    H142620   1.225   5.111  14.416 -0.0276  1.3143 -0.4514
 7043TIP3    H242621   1.075   5.091  14.407  0.2379 -0.4303 -1.3326
 7044TIP3   OH242622   2.919   6.479   0.753 -0.7658 -0.7627  0.2021
 7044TIP3    H142623   2.828   6.475   0.783 -1.4064 -0.6557 -1.6331
 7044TIP3    H242624   2.962   6.537   0.816 -2.6485  1.5845 -0.5269
 7045TIP3   OH242625   0.509   4.490   2.865 -0.5381  0.0219 -0.0967
 7045TIP3    H142626   0.448   4.449   2.926 -2.8319  1.8159 -1.0644
 7045TIP3    H242627   0.538   4.570   2.910 -0.7822  0.3983 -0.6038
 7046TIP3   OH242628   4.134   6.172  11.617 -0.8240 -0.6340  0.1157
 7046TIP3    H142629   4.096   6.229  11.684 -0.5922  0.3855 -0.5953
 7046TIP3    H242630   4.189   6.231  11.564  0.3896 -1.7405  0.0853
 7047TIP3   OH242631   4.039   3.435   0.154 -0.1660 -0.1212  0.0497
 7047TIP3    H142632   4.105   3.366   0.152 -0.5055 -0.4386 -1.4175
 7047TIP3    H242633   4.087   3.514   0.129 -0.0133 -0.0293  0.6155
 7048TIP3   OH242634   0.053   1.249  13.296 -0.0410  0.2464 -0.1439
 7048TIP3    H142635   0.061   1.286  13.209  1.4707 -1.0262 -0.5956
 7048TIP3    H242636  -0.024   1.192  13.291  0.7596 -0.7854 -1.0469
 7049TIP3   OH242637   5.644   1.436  12.993 -0.4185 -0.0247 -0.5331
 7049TIP3    H142638   5.606   1.445  13.080 -2.0024  0.2716 -1.2300
 7049TIP3    H242639   5.627   1.520  12.951  0.7235 -0.0100 -1.0014
 7050TIP3   OH242640   6.566   5.751  13.091 -0.0402 -0.0026  0.2681
 7050TIP3    H142641   6.499   5.772  13.027 -0.1475 -0.2983  0.2834
 7050TIP3    H242642   6.623   5.828  13.092  0.1264 -0.1116 -0.3893
 7051TIP3   OH242643   3.593   1.345   3.360 -0.4132  0.1999 -0.4237
 7051TIP3    H142644   3.658   1.390   3.306 -0.7890  2.4800  0.9231
 7051TIP3    H242645   3.641   1.272   3.399  1.0068  1.0781 -0.4578
 7052TIP3   OH242646   4.139   4.953  14.394  0.1005  0.7174  0.9102
 7052TIP3    H142647   4.195   5.031  14.393  1.6338 -0.2956 -1.2073
 7052TIP3    H242648   4.199   4.881  14.411 -0.8061 -0.2664  0.0773
 7053TIP3   OH242649   6.186   2.802  14.305 -0.1697  0.0511  0.0799
 7053TIP3    H142650   6.127   2.789  14.380  0.4212 -1.6353  0.3142
 7053TIP3    H242651   6.141   2.759  14.232 -1.0702  2.2939 -0.7642
 7054TIP3   OH242652   5.828   2.539  13.090 -0.6293 -0.2660  0.2897
 7054TIP3    H142653   5.871   2.456  13.112  0.7520  0.9219  2.4476
 7054TIP3    H242654   5.735   2.519  13.094 -0.3369 -1.9072 -0.1608
 7055TIP3   OH242655   5.545   5.721   2.175 -0.5581 -0.1297  0.0035
 7055TIP3    H142656   5.527   5.700   2.084 -0.0423 -0.3148 -0.0587
 7055TIP3    H242657   5.631   5.764   2.174  0.5007 -2.0865  0.6227
 7056TIP3   OH242658   1.043   5.627  16.104  0.1101  0.5944  0.2067
 7056TIP3    H142659   1.085   5.547  16.134  1.0731  0.2875 -1.7790
 7056TIP3    H242660   1.019   5.673  16.184 -2.3641 -2.5771  1.5206
 7057TIP3   OH242661   1.132   6.051   2.988  0.4780 -0.2613 -0.0797
 7057TIP3    H142662   1.184   6.090   2.918  0.0376  0.0757 -0.2255
 7057TIP3    H242663   1.127   6.119   3.055  0.6946 -0.4945  0.1725
 7058TIP3   OH242664   2.167   5.442   3.593  0.2279 -0.1081  0.4303
 7058TIP3    H142665   2.157   5.348   3.578  1.3648  0.0229 -1.4202
 7058TIP3    H242666   2.256   5.462   3.563  0.2237  1.4767  1.3273
 7059TIP3   OH242667   6.129   6.668   3.100 -0.0032  0.6926  0.1429
 7059TIP3    H142668   6.103   6.663   3.192  2.0581  0.8100  0.7846
 7059TIP3    H242669   6.136   6.762   3.082  1.1414  0.6627  0.3654
 7060TIP3   OH242670   5.079   0.586   4.184 -0.1240  0.0535 -0.4298
 7060TIP3    H142671   5.060   0.512   4.127  1.0027 -0.3724 -0.2671
 7060TIP3    H242672   5.173   0.581   4.200 -0.4866 -0.2779  2.0588
 7061TIP3   OH242673   5.018   6.647  14.895 -0.4504 -0.0250  0.2709
 7061TIP3    H142674   4.975   6.575  14.940 -0.5087 -0.0717  0.1405
 7061TIP3    H242675   5.056   6.700  14.965  0.4522 -0.7181  0.3331
 7062TIP3   OH242676   4.388   3.328  15.138  0.3291  1.1828 -0.2876
 7062TIP3    H142677   4.456   3.396  15.141  0.0996  1.4302 -0.5969
 7062TIP3    H242678   4.394   3.291  15.050 -0.6572  1.9665 -0.7144
 7063TIP3   OH242679   6.450   0.490  17.252  0.1725 -0.3062 -0.0113
 7063TIP3    H142680   6.462   0.462  17.161 -0.8981  0.3073 -0.3578
 7063TIP3    H242681   6.386   0.561  17.247 -2.4941 -2.4103  1.5320
 7064TIP3   OH242682   5.805   6.018  12.781 -0.1908  0.0270  0.3649
 7064TIP3    H142683   5.743   6.069  12.729  0.7941  0.3656 -0.5212
 7064TIP3    H242684   5.797   6.053  12.870 -0.4721  0.8102  0.0361
 7065TIP3   OH242685   6.612   2.681  16.278 -0.3982  0.3311  0.3947
 7065TIP3    H142686   6.606   2.606  16.337 -0.3325  0.3411  0.4133
 7065TIP3    H242687   6.528   2.726  16.287 -0.4267  0.2751  0.4026
 7066TIP3   OH242688   2.714   2.895  12.399 -0.0207  0.1055 -0.6624
 7066TIP3    H142689   2.667   2.829  12.450 -1.0907  0.0473 -1.6661
 7066TIP3    H242690   2.755   2.846  12.328 -0.1225  0.4072 -0.9314
 7067TIP3   OH242691   0.463   2.645   2.980  0.2931 -0.3043  0.4123
 7067TIP3    H142692   0.461   2.741   2.987  0.4928 -0.2725  0.0591
 7067TIP3    H242693   0.551   2.622   3.010  0.2047 -0.3866  0.6066
 7068TIP3   OH242694   4.768   1.579   0.590 -0.2835 -0.7683 -0.4327
 7068TIP3    H142695   4.698   1.516   0.609 -0.1028 -0.7600  0.2951
 7068TIP3    H242696   4.844   1.547   0.638 -0.2762  0.1752  0.2222
 7069TIP3   OH242697   5.601   1.105  11.653 -0.2394 -0.5541 -0.8035
 7069TIP3    H142698   5.580   1.075  11.565 -0.2006  0.2055 -1.0758
 7069TIP3    H242699   5.632   1.195  11.642 -0.9440 -0.1887  0.0591
 7070TIP3   OH242700   3.094   0.107   4.941  0.3816 -0.1296 -0.4422
 7070TIP3    H142701   3.140   0.180   4.982 -0.7766  0.4875 -0.1783
 7070TIP3    H242702   3.154   0.033   4.949  1.9637  0.9759 -1.5299
 7071TIP3   OH242703   2.334   4.041   4.386 -0.1804 -0.2295  0.1955
 7071TIP3    H142704   2.252   3.993   4.395  0.5289 -1.5976 -0.3408
 7071TIP3    H242705   2.308   4.129   4.359 -1.4366 -0.8172 -0.5762
 7072TIP3   OH242706   6.731   2.276   0.067 -0.2839 -0.2402 -0.5041
 7072TIP3    H142707   6.667   2.345   0.052  1.0924  1.2750  0.3603
 7072TIP3    H242708   6.721   2.253   0.159 -0.0163 -0.4297 -0.5203
 7073TIP3   OH242709   4.938   1.375  13.779  0.4298 -0.8477 -0.8304
 7073TIP3    H142710   4.849   1.393  13.747  0.3344  0.3160  0.0328
 7073TIP3    H242711   4.995   1.428  13.724  0.2916  0.9045  0.6159
 7074TIP3   OH242712   6.423   5.885   6.146  0.2019  0.0947 -0.2175
 7074TIP3    H142713   6.363   5.889   6.220  0.0365 -0.8228 -0.2801
 7074TIP3    H242714   6.437   5.791   6.133  2.6454  0.2529  0.6109
 7075TIP3   OH242715   2.025   3.645  12.958 -0.3807 -0.0316 -0.4419
 7075TIP3    H142716   2.105   3.608  12.995  0.5598  1.2779 -1.0414
 7075TIP3    H242717   2.016   3.730  13.001 -0.9177  0.2330 -1.0572
 7076TIP3   OH242718   5.342   5.175  14.325  0.0395  0.0338  0.9468
 7076TIP3    H142719   5.278   5.155  14.394 -0.6440  1.4983  0.7857
 7076TIP3    H242720   5.302   5.247  14.277  1.1990  0.0315 -0.0513
 7077TIP3   OH242721   5.710   6.786   6.243 -0.0745 -0.0131 -0.2224
 7077TIP3    H142722   5.740   6.746   6.162  0.2343 -1.0366  0.3816
 7077TIP3    H242723   5.765   6.864   6.254 -0.7980  0.7097 -1.4987
 7078TIP3   OH242724   0.208   0.853  12.130  0.0206 -0.3394  0.4906
 7078TIP3    H142725   0.222   0.893  12.044  0.3735 -2.5476 -0.5512
 7078TIP3    H242726   0.286   0.877  12.181  0.4903 -0.2000 -0.2867
 7079TIP3   OH242727   2.051   6.706   0.506 -0.3868  0.3420  0.0507
 7079TIP3    H142728   2.055   6.773   0.574 -0.6972  0.0604  0.3502
 7079TIP3    H242729   2.057   6.623   0.553 -1.9309  0.0945 -0.1144
 7080TIP3   OH242730   6.042   3.200   3.632 -0.4263 -0.4520 -0.0112
 7080TIP3    H142731   6.102   3.190   3.706  1.2519 -0.3982 -1.2811
 7080TIP3    H242732   6.044   3.294   3.612 -2.0344 -0.2269  0.7620
 7081TIP3   OH242733   1.537   2.347   4.508  0.4100  0.0208  0.0869
 7081TIP3    H142734   1.613   2.292   4.529 -0.4341 -0.8121  1.0793
 7081TIP3    H242735   1.480   2.290   4.457  0.5252  0.7135 -0.8425
 7082TIP3   OH242736   4.903   4.414  12.711 -0.0111 -0.4456  0.4041
 7082TIP3    H142737   4.884   4.441  12.801  1.0008 -1.5175  0.9571
 7082TIP3    H242738   4.831   4.452  12.659 -2.3574 -2.3210  2.0706
 7083TIP3   OH242739   6.278   4.193  15.761  0.7951  0.2008  0.5882
 7083TIP3    H142740   6.187   4.194  15.791  0.5172 -2.9364  0.1832
 7083TIP3    H242741   6.278   4.248  15.683 -0.9216 -0.3244  0.1885
 7084TIP3   OH242742   2.702   4.255  12.701  0.2836 -0.3745  0.6894
 7084TIP3    H142743   2.726   4.168  12.669 -0.4792 -0.4887  0.4152
 7084TIP3    H242744   2.699   4.310  12.623 -0.3662 -0.3703  0.7141
 7085TIP3   OH242745   6.647   0.557  13.261  0.3021 -0.0215 -0.2088
 7085TIP3    H142746   6.560   0.596  13.255  0.8016  1.3997  1.0662
 7085TIP3    H242747   6.707   0.628  13.237  1.1330 -0.8789 -0.7404
 7086TIP3   OH242748   4.478   2.788  14.609  0.7815 -0.4758  0.1023
 7086TIP3    H142749   4.395   2.816  14.648  0.6116  0.2415 -0.7302
 7086TIP3    H242750   4.472   2.692  14.608  0.3365 -0.4677  0.8279
 7087TIP3   OH242751   6.196   3.359   3.868 -0.1838  0.1774 -0.4528
 7087TIP3    H142752   6.244   3.326   3.944 -0.2839  2.0978  0.5059
 7087TIP3    H242753   6.106   3.367   3.898 -0.8177 -1.6380 -1.6735
 7088TIP3   OH242754   1.540   1.137   0.095  0.3130  0.2959  0.3104
 7088TIP3    H142755   1.560   1.169   0.183  0.4454 -0.0910  0.4200
 7088TIP3    H242756   1.450   1.167   0.079 -0.9428 -2.3151  1.8346
 7089TIP3   OH242757   5.643   0.879  14.965 -0.3124 -0.5271 -0.8874
 7089TIP3    H142758   5.713   0.933  14.929 -2.4495  2.9750 -0.2396
 7089TIP3    H242759   5.579   0.871  14.893 -0.6625 -1.0242 -0.5336
 7090TIP3   OH242760   5.989   3.709   0.700  0.5350 -0.4494 -0.2105
 7090TIP3    H142761   5.957   3.623   0.672 -0.3695  0.0757 -0.8256
 7090TIP3    H242762   5.911   3.756   0.730  0.9865  0.2412 -0.0845
 7091TIP3   OH242763   3.878   0.474  14.865  0.5188 -0.6679 -0.7112
 7091TIP3    H142764   3.844   0.464  14.776  0.1228 -1.3468 -0.4938
 7091TIP3    H242765   3.895   0.567  14.874 -0.5295 -0.4241 -1.1072
 7092TIP3   OH242766   2.335   5.298   2.051  0.0064 -0.4203  0.3584
 7092TIP3    H142767   2.334   5.393   2.063 -0.0169 -0.3028 -0.4779
 7092TIP3    H242768   2.422   5.270   2.078  1.4464  0.3732 -2.9332
 7093TIP3   OH242769   1.890   6.706  14.596 -0.0212 -0.4041 -0.3895
 7093TIP3    H142770   1.984   6.703  14.579 -0.0334 -0.1003 -0.5124
 7093TIP3    H242771   1.866   6.798  14.583 -0.1068 -0.2286  0.8250
 7094TIP3   OH242772   6.303   6.379  14.528  0.5347 -0.0733 -0.0635
 7094TIP3    H142773   6.286   6.452  14.588  0.1518  0.2070 -0.5008
 7094TIP3    H242774   6.225   6.377  14.472  1.1817  0.1087 -0.9877
 7095TIP3   OH242775   3.640   1.364  13.741  0.1605  0.1537  1.0774
 7095TIP3    H142776   3.593   1.281  13.753 -1.3514  0.5799 -1.2782
 7095TIP3    H242777   3.577   1.430  13.770  0.9448  0.5617  1.8909
 7096TIP3   OH242778   2.445   1.167  12.504 -0.2085 -0.5284 -0.1806
 7096TIP3    H142779   2.531   1.207  12.490  0.6063 -1.9456  0.5893
 7096TIP3    H242780   2.406   1.161  12.416 -1.8292  4.8013 -0.1989
 7097TIP3   OH242781   5.858   5.850   3.758  0.3021  0.2999 -0.5038
 7097TIP3    H142782   5.763   5.838   3.764  0.3070  0.2820 -0.4564
 7097TIP3    H242783   5.870   5.941   3.734  0.2730  0.3044 -0.5005
 7098TIP3   OH242784   5.159   1.540  14.350 -0.0554  0.1907  0.0891
 7098TIP3    H142785   5.065   1.526  14.348  0.1229 -1.0185 -0.8606
 7098TIP3    H242786   5.170   1.632  14.326 -0.8816 -0.4987 -3.5755
 7099TIP3   OH242787   6.814   3.004  11.724 -0.4587  0.0956 -0.3818
 7099TIP3    H142788   6.897   3.046  11.702 -0.5558  1.1117  1.0624
 7099TIP3    H242789   6.836   2.943  11.794 -0.6817 -0.8015 -1.0690
 7100TIP3   OH242790   0.581   3.251  12.606 -0.0897 -0.0911 -0.1370
 7100TIP3    H142791   0.664   3.208  12.626  0.4855  0.1488 -1.8576
 7100TIP3    H242792   0.517   3.180  12.603  0.1463 -0.3454  0.6594
 7101TIP3   OH242793   3.503   6.567   1.061 -0.9045 -0.0851  0.1394
 7101TIP3    H142794   3.411   6.543   1.051 -1.0033 -0.5470  1.7564
 7101TIP3    H242795   3.539   6.566   0.973 -2.3693 -0.2413 -0.4738
 7102TIP3   OH242796   4.299   2.789  11.728  0.0607 -0.4504 -0.1028
 7102TIP3    H142797   4.251   2.708  11.710 -0.0553 -0.4792  0.3222
 7102TIP3    H242798   4.254   2.827  11.803 -0.6518  0.6408 -1.0588
 7103TIP3   OH242799   3.341   2.399   3.143 -0.2522  0.0843 -0.4440
 7103TIP3    H142800   3.293   2.482   3.135  0.7178  0.6834 -0.2034
 7103TIP3    H242801   3.273   2.335   3.165 -1.0936  0.7108 -1.1114
 7104TIP3   OH242802   5.382   1.582  15.922 -0.0760 -0.0808 -0.0315
 7104TIP3    H142803   5.334   1.500  15.910  0.1256 -0.2898  0.5257
 7104TIP3    H242804   5.397   1.615  15.834  0.2979 -0.9156 -0.2875
 7105TIP3   OH242805   6.004   4.216   5.480 -0.1448  0.2274  0.0521
 7105TIP3    H142806   6.061   4.270   5.425 -2.1310  2.6805  0.1851
 7105TIP3    H242807   5.985   4.272   5.556 -2.4967 -0.5254  0.1050
 7106TIP3   OH242808   0.697   4.266  11.714  0.0773  0.1699 -0.1624
 7106TIP3    H142809   0.742   4.225  11.788  0.8435 -1.4763 -1.4674
 7106TIP3    H242810   0.608   4.234  11.720  0.1569 -0.0232  0.0097
 7107TIP3   OH242811   3.886   5.603  11.570 -0.1555  0.0474 -0.8467
 7107TIP3    H142812   3.843   5.549  11.636  0.2005 -1.6585 -1.9434
 7107TIP3    H242813   3.838   5.685  11.571 -0.6827 -0.2334  0.9284
 7108TIP3   OH242814   6.027   0.058  11.590 -0.0579  0.5531  0.2108
 7108TIP3    H142815   5.961   0.037  11.656  0.5378 -2.1438  0.0439
 7108TIP3    H242816   6.015  -0.007  11.522  2.7850 -0.0773  0.1903
 7109TIP3   OH242817   6.513   5.935   1.175  0.7142  0.2160 -0.4097
 7109TIP3    H142818   6.442   5.873   1.193 -0.2652  1.5768  0.6109
 7109TIP3    H242819   6.521   5.935   1.079 -0.9316  0.2818 -0.5778
 7110TIP3   OH242820   2.363   2.213   6.029  0.4752  0.5640  0.2824
 7110TIP3    H142821   2.398   2.267   6.100  2.5795 -0.9954  0.5586
 7110TIP3    H242822   2.319   2.140   6.074  0.0682  0.6065 -0.0431
 7111TIP3   OH242823   3.066   2.718  13.791 -0.1037 -0.1525  0.0608
 7111TIP3    H142824   3.024   2.800  13.818  0.1851 -0.0640  0.2456
 7111TIP3    H242825   2.993   2.657  13.777 -0.3512  0.2961 -0.6286
 7112TIP3   OH242826   0.343   6.264   4.889 -0.2316  0.6440  0.0502
 7112TIP3    H142827   0.435   6.264   4.915 -0.4273 -0.3961  0.8118
 7112TIP3    H242828   0.342   6.225   4.802 -0.1515 -1.4958  0.9606
 7113TIP3   OH242829   6.785   3.305   2.445  0.0099 -0.4882 -0.2684
 7113TIP3    H142830   6.866   3.335   2.487 -0.3402  0.6351 -0.3629
 7113TIP3    H242831   6.807   3.302   2.351 -0.3410  0.8431 -0.4135
 7114TIP3   OH242832   6.025   4.940  14.430 -0.1139  0.2030  0.1634
 7114TIP3    H142833   5.986   5.021  14.464 -0.9480 -0.4587  0.8503
 7114TIP3    H242834   6.066   4.900  14.507 -1.2632 -0.8869  0.2444
 7115TIP3   OH242835   5.764   5.454  12.349 -0.0936 -0.3550 -0.2063
 7115TIP3    H142836   5.715   5.534  12.366 -0.1949 -0.4611 -0.0065
 7115TIP3    H242837   5.762   5.405  12.432  1.0255  0.0062  0.0517
 7116TIP3   OH242838   5.517   4.070   1.674  0.4761  0.6909  0.4269
 7116TIP3    H142839   5.478   3.991   1.710 -0.3508  1.4227  1.1900
 7116TIP3    H242840   5.567   4.108   1.746  0.1507  1.3046  0.3461
 7117TIP3   OH242841   3.477   2.414   6.278  0.1025 -0.3441 -0.2289
 7117TIP3    H142842   3.434   2.351   6.220  0.4999 -0.0159 -0.9001
 7117TIP3    H242843   3.407   2.476   6.302  0.4644  1.1317 -2.6095
 7118TIP3   OH242844   1.904   3.254  16.782 -0.3746 -0.0467  0.6197
 7118TIP3    H142845   1.847   3.177  16.787  1.4864 -1.4530  1.0099
 7118TIP3    H242846   1.890   3.299  16.866 -1.0067 -0.2943  0.6538
 7119TIP3   OH242847   4.245   4.648   5.699 -0.0574  0.0402  0.1889
 7119TIP3    H142848   4.222   4.619   5.611  2.0486  0.3510 -0.5146
 7119TIP3    H242849   4.236   4.743   5.696  1.6904  0.2273 -0.2749
 7120TIP3   OH242850   1.364   6.272  12.560  0.6654  0.5676  0.0288
 7120TIP3    H142851   1.326   6.272  12.648  1.7639  0.0827  0.5051
 7120TIP3    H242852   1.313   6.339  12.513 -0.1229  0.6259  0.9354
 7121TIP3   OH242853   3.959   0.969   1.684  0.4335  0.6799 -0.2164
 7121TIP3    H142854   3.994   1.052   1.653  2.9001  0.1320  0.8858
 7121TIP3    H242855   4.035   0.911   1.690 -1.1394 -1.5659 -0.5646
 7122TIP3   OH242856   1.954   0.245  14.473  0.3958 -0.1974 -0.1205
 7122TIP3    H142857   1.942   0.331  14.514 -0.1598 -0.3927  0.1316
 7122TIP3    H242858   1.866   0.219  14.446  0.6529 -0.4076 -0.7609
 7123TIP3   OH242859   2.503   0.035  13.819 -0.0092 -0.4244 -0.3307
 7123TIP3    H142860   2.420   0.072  13.789  1.6043  2.4196 -1.6768
 7123TIP3    H242861   2.509   0.061  13.911  0.0244  0.6793 -0.6296
 7124TIP3   OH242862   1.022   2.497  14.184 -0.1576  0.3934 -0.3330
 7124TIP3    H142863   0.993   2.513  14.095 -0.9286 -1.3978 -0.4563
 7124TIP3    H242864   0.993   2.407  14.203  0.0096  0.7118  1.7007
 7125TIP3   OH242865   4.936   1.865  16.711 -0.1026  0.1002  0.0835
 7125TIP3    H142866   4.938   1.820  16.796 -2.4652  0.9862  0.6878
 7125TIP3    H242867   4.922   1.795  16.647  0.9710 -0.4940  0.4715
 7126TIP3   OH242868   3.037   1.523  15.137  0.2264  0.5781 -0.9559
 7126TIP3    H142869   2.957   1.570  15.159  0.3819  0.6701 -0.5739
 7126TIP3    H242870   3.007   1.437  15.107  0.0176  0.3203 -0.0389
 7127TIP3   OH242871   2.312   2.958  10.938  0.4770  0.3347 -0.6144
 7127TIP3    H142872   2.247   2.927  11.002  1.6859 -2.3956 -0.5772
 7127TIP3    H242873   2.297   2.903  10.861  0.9317  1.6145 -1.6428
 7128TIP3   OH242874   1.220   1.639  13.060  0.2896 -0.0179 -0.0456
 7128TIP3    H142875   1.271   1.719  13.075  0.4009  0.0400 -0.7180
 7128TIP3    H242876   1.162   1.633  13.136 -2.3722  2.6966 -1.6379
 7129TIP3   OH242877   4.168   4.444   3.078  0.2933 -0.1688  0.5569
 7129TIP3    H142878   4.151   4.508   3.009 -0.7160  2.3621  2.9406
 7129TIP3    H242879   4.166   4.359   3.034  1.8751  1.3736 -2.8262
 7130TIP3   OH242880   3.999   1.046   3.547 -0.1331 -0.8867  0.2946
 7130TIP3    H142881   4.020   0.967   3.597  0.1233 -1.1736 -0.2593
 7130TIP3    H242882   4.083   1.091   3.536 -0.3711 -0.2040  1.1538
 7131TIP3   OH242883   0.726   6.023   4.073  0.4109  0.2579 -0.0094
 7131TIP3    H142884   0.772   5.940   4.083  0.9746  0.6311  0.5135
 7131TIP3    H242885   0.795   6.088   4.063 -0.0362  0.5488 -1.4822
 7132TIP3   OH242886   0.555   3.871  13.363  0.1994  0.3139 -0.3419
 7132TIP3    H142887   0.624   3.928  13.396  0.3744  0.0745 -0.2884
 7132TIP3    H242888   0.526   3.821  13.439 -0.9127  1.2976 -0.0918
 7133TIP3   OH242889   3.985   5.898   5.480  0.1624 -0.4938 -0.1122
 7133TIP3    H142890   3.925   5.825   5.473 -0.7203  0.1214  0.6734
 7133TIP3    H242891   4.041   5.876   5.555 -1.2749  0.3899  1.3004
 7134TIP3   OH242892   1.957   0.636  16.181  0.7003 -0.2660  0.4012
 7134TIP3    H142893   1.886   0.662  16.240  1.3121 -0.2089  1.1254
 7134TIP3    H242894   2.014   0.713  16.177  1.1839 -0.6129  0.5321
 7135TIP3   OH242895   6.025   3.869  12.587  0.3970 -0.5021  0.6800
 7135TIP3    H142896   6.099   3.874  12.526 -1.0438 -1.0632 -1.1909
 7135TIP3    H242897   6.018   3.776  12.608 -0.1695 -0.5390  0.3378
 7136TIP3   OH242898   5.427   2.683   3.877 -0.2144  0.0211 -0.5061
 7136TIP3    H142899   5.449   2.768   3.915 -1.4838  0.3617 -0.4821
 7136TIP3    H242900   5.504   2.629   3.893 -0.2878  0.4503  1.6200
 7137TIP3   OH242901   2.107   2.854   2.574 -0.6473 -0.5097  0.2664
 7137TIP3    H142902   2.051   2.816   2.506  0.0392  0.4836 -0.9046
 7137TIP3    H242903   2.151   2.779   2.614 -0.9329 -1.1115 -0.5241
 7138TIP3   OH242904   2.792   4.164   2.706  0.0814  0.1680  0.1693
 7138TIP3    H142905   2.734   4.216   2.761  1.5546  1.7446  0.3152
 7138TIP3    H242906   2.786   4.204   2.620  0.2029 -0.2665 -0.0434
 7139TIP3   OH242907   4.412   0.332  11.881  0.1614 -0.0388 -0.1332
 7139TIP3    H142908   4.330   0.283  11.875 -0.1147  0.5663 -2.0612
 7139TIP3    H242909   4.389   0.411  11.930 -1.4704  1.9161 -3.6358
 7140TIP3   OH242910   6.283   3.200  14.673 -0.2331 -0.0769  0.2884
 7140TIP3    H142911   6.306   3.109  14.691  0.3090 -0.2492 -1.1680
 7140TIP3    H242912   6.293   3.209  14.579  1.1847  1.8792  0.5639
 7141TIP3   OH242913   4.951   4.166   3.683 -0.4468  0.6117  0.4178
 7141TIP3    H142914   4.981   4.199   3.599 -0.6343  0.0282  0.1170
 7141TIP3    H242915   4.898   4.238   3.720 -2.5161 -0.0204 -1.1011
 7142TIP3   OH242916   2.270   6.745   1.639 -0.3729 -0.0775  0.3434
 7142TIP3    H142917   2.252   6.703   1.723 -0.6420  0.2295  0.4377
 7142TIP3    H242918   2.194   6.724   1.585  0.0869 -0.8165 -0.0365
 7143TIP3   OH242919   2.580   2.580  14.813  0.2055 -0.7606 -0.3349
 7143TIP3    H142920   2.518   2.516  14.778 -0.5008 -0.7278  0.7847
 7143TIP3    H242921   2.641   2.528  14.866  0.8167 -0.7246 -0.9831
 7144TIP3   OH242922   1.000   4.155  14.189  0.0910 -0.1743 -0.4212
 7144TIP3    H142923   1.040   4.238  14.161 -2.2707  1.3327  0.4352
 7144TIP3    H242924   1.027   4.146  14.281  0.8377 -0.7021 -0.6811
 7145TIP3   OH242925   0.756   0.197  12.218  0.1869 -0.1223 -0.3157
 7145TIP3    H142926   0.783   0.106  12.204  1.5852 -0.1343  2.0687
 7145TIP3    H242927   0.663   0.198  12.193  0.4321 -1.9099 -1.4713
 7146TIP3   OH242928   6.407   6.735  13.867  0.1024  0.2276  0.1377
 7146TIP3    H142929   6.380   6.798  13.934 -1.2318  0.2043 -0.3349
 7146TIP3    H242930   6.334   6.673  13.863  0.1667  0.2176 -1.3036
 7147TIP3   OH242931   5.875   6.031  11.811 -0.0581  0.2800 -0.3083
 7147TIP3    H142932   5.853   6.123  11.826  0.3452  0.1896  1.0289
 7147TIP3    H242933   5.797   5.983  11.838 -0.9174  0.2715 -2.6352
 7148TIP3   OH242934   5.988   3.565   3.555 -0.6934 -0.5436  0.1650
 7148TIP3    H142935   5.928   3.515   3.500 -2.3535  0.7512  0.7070
 7148TIP3    H242936   6.063   3.582   3.498 -0.8243 -2.1797 -0.5478
 7149TIP3   OH242937   0.678   0.123   4.366 -0.1605 -0.1475 -0.2049
 7149TIP3    H142938   0.719   0.090   4.286 -1.6657  0.6446 -1.3771
 7149TIP3    H242939   0.670   0.217   4.351  1.4582  0.3879  1.8377
 7150TIP3   OH242940   2.994   3.153  11.813  0.7233 -0.2720 -0.4000
 7150TIP3    H142941   3.059   3.135  11.745  0.4423 -0.6739 -0.5667
 7150TIP3    H242942   3.005   3.081  11.876  0.9527  0.0743 -0.0367
 7151TIP3   OH242943   0.989   6.123  12.554  0.0958  0.4920  0.4564
 7151TIP3    H142944   1.003   6.178  12.477 -0.6523 -0.0105 -0.0574
 7151TIP3    H242945   0.956   6.183  12.621 -1.2841  0.6147 -0.2734
 7152TIP3   OH242946   5.596   3.709   6.579  0.4971  0.8126  0.4116
 7152TIP3    H142947   5.505   3.680   6.582  0.8527 -0.2295  2.2938
 7152TIP3    H242948   5.646   3.635   6.614  2.1256  1.2244 -0.9161
 7153TIP3   OH242949   4.378   5.789   0.225 -0.4865 -0.5938 -0.0155
 7153TIP3    H142950   4.291   5.828   0.232 -0.7978 -1.3486  0.5744
 7153TIP3    H242951   4.362   5.701   0.189  0.0323 -0.7120  0.0319
 7154TIP3   OH242952   6.598   2.004  10.895  0.2599  0.0760 -0.7829
 7154TIP3    H142953   6.644   2.088  10.899  1.1185 -0.4289  0.8212
 7154TIP3    H242954   6.508   2.027  10.873  0.0453  1.6176  1.4072
 7155TIP3   OH242955   3.638   0.441   5.871  0.0432  0.3917  0.1261
 7155TIP3    H142956   3.639   0.504   5.799  1.1706 -1.2795 -1.3868
 7155TIP3    H242957   3.546   0.416   5.879 -0.2452  1.3611 -0.0013
 7156TIP3   OH242958   6.030   6.642   1.535 -0.0983 -0.2773  0.1098
 7156TIP3    H142959   5.989   6.564   1.573 -0.4879  0.2836  0.8657
 7156TIP3    H242960   5.999   6.715   1.590  0.8686  0.3169 -0.1126
 7157TIP3   OH242961   1.173   6.514   2.051  0.7187 -0.1086  0.1645
 7157TIP3    H142962   1.181   6.418   2.057  0.9253 -0.0867  0.2558
 7157TIP3    H242963   1.175   6.532   1.957  0.0170 -0.2463  0.1171
 7158TIP3   OH242964   3.335   2.615   0.619 -0.6735 -0.3223  0.0834
 7158TIP3    H142965   3.352   2.668   0.541 -1.7589 -0.9468 -0.6093
 7158TIP3    H242966   3.310   2.678   0.686 -0.3040  0.1732 -0.2405
 7159TIP3   OH242967   6.756   2.144  16.948 -0.3471 -0.2883  0.1822
 7159TIP3    H142968   6.751   2.111  17.037 -1.0134  0.3413  0.3811
 7159TIP3    H242969   6.667   2.136  16.913 -0.1417 -0.3245 -0.3523
 7160TIP3   OH242970   3.786   0.874   4.411 -0.7125 -0.5056 -0.5767
 7160TIP3    H142971   3.821   0.960   4.434  0.1522 -0.4568 -1.9626
 7160TIP3    H242972   3.694   0.878   4.436 -0.6654  0.7948 -0.5733
 7161TIP3   OH242973   1.262   5.315  13.757  0.0701  0.5751  0.5441
 7161TIP3    H142974   1.215   5.301  13.839 -1.9417 -2.0134 -0.9014
 7161TIP3    H242975   1.214   5.386  13.714  0.1939  0.8963  0.9276
 7162TIP3   OH242976   1.165   1.529   0.865 -0.5902  0.1547  0.0404
 7162TIP3    H142977   1.259   1.536   0.848 -0.3962  1.0011  1.3535
 7162TIP3    H242978   1.159   1.475   0.943 -1.1948  0.1665  0.0025
 7163TIP3   OH242979   2.462   2.471  16.498  0.1423 -0.3416  0.7283
 7163TIP3    H142980   2.461   2.421  16.417  0.4104 -1.1762  1.2267
 7163TIP3    H242981   2.493   2.558  16.473 -1.0065 -0.2054 -0.2701
 7164TIP3   OH242982   4.857   2.627   5.150  0.5745 -0.3265  0.2153
 7164TIP3    H142983   4.815   2.673   5.077 -3.5959 -1.4273  1.6627
 7164TIP3    H242984   4.931   2.582   5.109 -0.3348  0.7242 -2.9277
 7165TIP3   OH242985   4.196   3.742  13.393 -0.0285 -0.8002 -0.4225
 7165TIP3    H142986   4.227   3.681  13.460  1.2415  0.1686 -0.0880
 7165TIP3    H242987   4.112   3.774  13.425  0.6608 -0.1834  0.8287
 7166TIP3   OH242988   3.484   4.058  13.412 -0.9598 -0.2036 -0.2813
 7166TIP3    H142989   3.561   4.114  13.397 -0.3338 -1.0656 -0.3661
 7166TIP3    H242990   3.417   4.118  13.444 -1.4243  1.2370 -3.5964
 7167TIP3   OH242991   4.377   1.637  16.846 -0.3269 -0.2049  0.0237
 7167TIP3    H142992   4.331   1.660  16.766 -1.2045 -1.4617  0.1379
 7167TIP3    H242993   4.318   1.664  16.917  0.2440  0.4835  0.2562
 7168TIP3   OH242994   3.574   3.393  13.357  0.1377  0.1053  0.1473
 7168TIP3    H142995   3.586   3.420  13.448 -0.2841  3.6591 -0.6962
 7168TIP3    H242996   3.576   3.475  13.307 -2.0084 -1.4250 -2.7974
 7169TIP3   OH242997   3.559   5.910   1.953 -0.1326  0.0079  0.5007
 7169TIP3    H142998   3.529   6.001   1.953  0.2602  0.1396  0.5257
 7169TIP3    H242999   3.487   5.860   1.915 -2.1062 -0.2528  4.1540
 7170TIP3   OH243000   1.806   4.979  12.725 -0.2733 -0.0538 -0.0233
 7170TIP3    H143001   1.880   5.000  12.783  1.0005 -0.1368 -1.5480
 7170TIP3    H243002   1.759   5.062  12.716 -1.2315 -0.3208  2.0766
 7171TIP3   OH243003   6.789   1.735   4.304 -0.3668  0.2211  0.0541
 7171TIP3    H143004   6.855   1.719   4.372  0.3232 -0.0149 -0.6504
 7171TIP3    H243005   6.841   1.750   4.224 -1.1840 -0.6815 -0.6663
 7172TIP3   OH243006   0.347   0.649  12.372  0.1216 -0.2248 -0.0517
 7172TIP3    H143007   0.267   0.605  12.343 -1.5393  2.1265  0.6345
 7172TIP3    H243008   0.331   0.668  12.465  1.8854 -0.4521  0.3397
 7173TIP3   OH243009   4.564   3.922  16.702 -1.4532  0.1895 -0.1992
 7173TIP3    H143010   4.548   3.998  16.647 -2.2873 -0.1212 -0.3989
 7173TIP3    H243011   4.658   3.923  16.718 -1.2971  0.6468 -1.1024
 7174TIP3   OH243012   5.005   4.763  12.871  0.1577  0.4143  0.1843
 7174TIP3    H143013   4.945   4.834  12.847  1.2457  1.4778  0.5262
 7174TIP3    H243014   4.962   4.719  12.945  0.3701  1.9806  1.2807
 7175TIP3   OH243015   3.818   4.368   2.183 -0.3188 -0.5963  0.0584
 7175TIP3    H143016   3.754   4.431   2.149  0.2683 -0.1756 -0.2811
 7175TIP3    H243017   3.887   4.365   2.116  0.2547 -0.6779  0.6430
 7176TIP3   OH243018   1.332   1.390  11.146  0.1943  0.5320  0.5085
 7176TIP3    H143019   1.258   1.335  11.119 -0.6327  1.3945  0.9606
 7176TIP3    H243020   1.316   1.474  11.103 -0.6049  1.6175  2.7673
 7177TIP3   OH243021   5.764   5.904  12.119 -0.0073  0.4472 -0.2049
 7177TIP3    H143022   5.681   5.938  12.153 -0.2071 -0.9783  0.8223
 7177TIP3    H243023   5.825   5.915  12.191 -0.0011 -1.0027  0.0440
 7178TIP3   OH243024   3.469   4.295   2.796 -0.0254  0.3349 -0.1934
 7178TIP3    H143025   3.515   4.373   2.828  2.0539 -0.1978 -1.7382
 7178TIP3    H243026   3.507   4.223   2.845  0.1490 -0.0174 -0.8416
 7179TIP3   OH243027   5.319   4.607   3.484 -0.5303  0.3789  0.0984
 7179TIP3    H143028   5.409   4.603   3.450 -0.8745 -1.7063 -0.6751
 7179TIP3    H243029   5.279   4.681   3.438  0.5943  0.9529 -0.0005
 7180TIP3   OH243030   2.055   0.212   4.960 -0.1157 -0.6335  0.1968
 7180TIP3    H143031   2.052   0.229   4.866 -0.7159 -1.0064  0.1456
 7180TIP3    H243032   2.042   0.117   4.967  1.6187 -0.8774  0.5587
 7181TIP3   OH243033   5.800   2.296  14.406 -0.3912  0.3001 -0.3290
 7181TIP3    H143034   5.881   2.315  14.359 -0.9791  1.3173 -0.9630
 7181TIP3    H243035   5.742   2.257  14.340  0.5862 -3.4313  0.8031
 7182TIP3   OH243036   4.913   1.784  12.250 -0.6204 -0.2889  0.0969
 7182TIP3    H143037   4.999   1.755  12.220 -0.4460  0.4389 -0.1288
 7182TIP3    H243038   4.902   1.743  12.336 -1.3743 -2.8718 -1.1240
 7183TIP3   OH243039   6.735   4.587  15.706 -0.1905 -0.0547  0.0153
 7183TIP3    H143040   6.823   4.606  15.675  0.3426 -0.9780  0.9104
 7183TIP3    H243041   6.747   4.544  15.791 -1.5684  1.8448  1.2934
 7184TIP3   OH243042   0.951   2.323   5.869 -0.2562 -0.3615 -0.2577
 7184TIP3    H143043   0.890   2.254   5.895 -0.3690 -0.4425 -0.7287
 7184TIP3    H243044   0.922   2.400   5.917  0.2147 -0.7712  0.7089
 7185TIP3   OH243045   5.848   4.492  16.756 -0.0796  0.3634  0.1329
 7185TIP3    H143046   5.933   4.500  16.799  0.2252  0.8644 -0.5424
 7185TIP3    H243047   5.825   4.399  16.764  0.8430  0.0953 -0.2567
 7186TIP3   OH243048   2.670   6.720   0.503  0.1307  0.5806  0.2595
 7186TIP3    H143049   2.647   6.646   0.447  0.4382 -0.8269  1.8772
 7186TIP3    H243050   2.678   6.795   0.444  0.8771 -0.9006 -1.6081
 7187TIP3   OH243051   4.092   6.322   1.987  0.5075  0.0575 -0.0260
 7187TIP3    H143052   4.045   6.361   1.913  0.1008  1.2761  0.8472
 7187TIP3    H243053   4.030   6.324   2.059  1.8969  1.8669  1.2073
 7188TIP3   OH243054   0.015   5.243  14.087 -0.0306 -0.0587 -0.6212
 7188TIP3    H143055   0.001   5.187  14.163  0.7236 -0.3934 -0.7145
 7188TIP3    H243056   0.097   5.210  14.049 -0.3122  0.2180 -1.4721
 7189TIP3   OH243057   0.425   4.083  12.390 -0.0010  0.1654  0.1880
 7189TIP3    H143058   0.394   4.164  12.351 -1.2162  0.1786  1.1161
 7189TIP3    H243059   0.384   4.013  12.338 -1.0047  0.1783  0.9416
 7190TIP3   OH243060   1.077   0.769  15.279 -0.5681  0.1946 -0.8949
 7190TIP3    H143061   1.003   0.782  15.338  0.4284 -1.8227  0.9228
 7190TIP3    H243062   1.038   0.731  15.200 -1.4573 -1.6821  0.3648
 7191TIP3   OH243063   0.385   4.260  15.831  0.5080  0.2188 -0.2078
 7191TIP3    H143064   0.419   4.290  15.915  1.9869 -1.2488 -0.2305
 7191TIP3    H243065   0.335   4.181  15.852 -0.3932  0.6782 -0.5573
 7192TIP3   OH243066   1.704   1.492   0.231  0.5193 -0.2708 -0.0128
 7192TIP3    H143067   1.736   1.423   0.174  1.1402  1.8081 -2.3509
 7192TIP3    H243068   1.783   1.531   0.269  0.4587  1.0637 -1.1513
 7193TIP3   OH243069   2.517   5.055   6.290  0.1353  0.3549  0.0758
 7193TIP3    H143070   2.514   5.080   6.382 -0.1194 -0.9923  0.4565
 7193TIP3    H243071   2.515   4.959   6.291  1.5028  0.2698 -1.2844
 7194TIP3   OH243072   2.549   5.228   2.546 -0.0759  0.1888  0.6606
 7194TIP3    H143073   2.578   5.282   2.620 -1.5660  0.6736  0.9427
 7194TIP3    H243074   2.518   5.292   2.481  0.8438 -0.2504 -0.2253
 7195TIP3   OH243075   6.616   3.951   2.726 -0.4210 -0.3180 -0.6038
 7195TIP3    H143076   6.558   3.876   2.723  0.6442 -1.2039  0.1373
 7195TIP3    H243077   6.660   3.945   2.811 -0.0390  0.9383 -0.6793
 7196TIP3   OH243078   2.264   3.179   5.924  0.3238 -0.3810  0.1520
 7196TIP3    H143079   2.341   3.199   5.976 -0.5518 -2.8877  2.6964
 7196TIP3    H243080   2.288   3.100   5.875  0.1479  0.2594 -0.9997
 7197TIP3   OH243081   2.575   6.598  13.773 -0.6620  0.2038 -0.0118
 7197TIP3    H143082   2.670   6.611  13.770 -0.1783 -2.1853  2.1050
 7197TIP3    H243083   2.539   6.685  13.788  1.3623  0.9027  1.1224
 7198TIP3   OH243084   0.046   2.204   3.710 -0.0985 -0.1015  0.0714
 7198TIP3    H143085   0.114   2.270   3.725 -1.0158  0.7252  0.6482
 7198TIP3    H243086   0.028   2.209   3.616 -0.3775  0.6928  0.1601
 7199TIP3   OH243087   2.075   0.668  17.201  0.0817  0.0641 -0.2912
 7199TIP3    H143088   2.062   0.739  17.138 -0.9179  0.4481  0.3362
 7199TIP3    H243089   2.082   0.712  17.286  1.8493 -0.4120 -0.1422
 7200TIP3   OH243090   1.667   6.512  13.993  0.5397 -0.1484 -0.5065
 7200TIP3    H143091   1.572   6.522  13.999  0.4908 -1.0131  0.5822
 7200TIP3    H243092   1.698   6.537  14.080  1.6363  2.9467 -1.6506
 7201TIP3   OH243093   5.293   3.883   4.045  0.0462 -0.1743 -0.5103
 7201TIP3    H143094   5.269   3.904   3.955  0.3775 -4.2672 -1.7929
 7201TIP3    H243095   5.384   3.911   4.053 -0.6573  2.3249 -0.5537
 7202TIP3   OH243096   5.314   2.244   6.069 -0.3975 -0.1837  0.0884
 7202TIP3    H143097   5.275   2.328   6.045  0.9705  0.1443 -1.1509
 7202TIP3    H243098   5.285   2.228   6.159 -0.6650  1.6201  0.3523
 7203TIP3   OH243099   5.127   3.245   5.927 -0.1390  0.2817  0.4380
 7203TIP3    H143100   5.160   3.296   6.000  1.1103  0.1782 -0.0378
 7203TIP3    H243101   5.172   3.161   5.933 -0.8591 -0.1340  0.1900
 7204TIP3   OH243102   1.963   4.199   2.480 -0.7343 -0.4996  0.3164
 7204TIP3    H143103   1.955   4.294   2.481 -2.3723 -0.6071  1.6747
 7204TIP3    H243104   1.937   4.173   2.391 -2.0257  0.2274  0.4607
 7205TIP3   OH243105   0.250   5.825  15.451 -0.6363 -0.3952  0.6988
 7205TIP3    H143106   0.166   5.828  15.497  0.1556  2.0091  2.1669
 7205TIP3    H243107   0.249   5.903  15.395 -0.2450 -1.5546 -1.0133
 7206TIP3   OH243108   4.693   1.512   3.870 -0.0759 -0.1425  0.3358
 7206TIP3    H143109   4.718   1.519   3.963 -1.1481  0.1428  0.6208
 7206TIP3    H243110   4.610   1.464   3.872 -1.1009  1.5192 -0.3119
 7207TIP3   OH243111   6.456   4.465  13.642  0.2402  0.3509 -0.5709
 7207TIP3    H143112   6.437   4.524  13.714 -0.1872 -1.4780  0.8862
 7207TIP3    H243113   6.374   4.460  13.593 -0.0288  0.1914 -0.1103
 7208TIP3   OH243114   3.314   6.230  14.788  0.0007 -0.1846  0.4936
 7208TIP3    H143115   3.404   6.223  14.754  0.5160  2.0570  1.1975
 7208TIP3    H243116   3.259   6.230  14.710  0.8019  0.4540 -0.0957
 7209TIP3   OH243117   4.394   1.751  15.082  0.2782 -0.1601 -0.1269
 7209TIP3    H143118   4.373   1.796  15.163  0.4429  0.2037 -0.2824
 7209TIP3    H243119   4.328   1.782  15.019  0.8066  0.4135 -0.4177
 7210TIP3   OH243120   6.729   3.665  11.917  0.0033 -0.3993 -0.2662
 7210TIP3    H143121   6.784   3.680  11.840 -1.0343  1.7506 -0.6381
 7210TIP3    H243122   6.696   3.576  11.906 -0.7316  0.1208 -2.7362
 7211TIP3   OH243123   4.561   0.316  12.759  0.1446  0.6330 -0.0589
 7211TIP3    H143124   4.618   0.357  12.824  1.3116  0.2815 -0.8259
 7211TIP3    H243125   4.610   0.323  12.677 -0.5294 -0.4778 -0.5747
 7212TIP3   OH243126   0.870   5.795  11.200  0.1421 -0.0130  0.0278
 7212TIP3    H143127   0.894   5.888  11.203  1.6527 -0.3925  1.1721
 7212TIP3    H243128   0.845   5.780  11.109 -0.3514  1.5505 -0.1332
 7213TIP3   OH243129   1.318   5.629   2.143 -0.1279  0.0472 -0.3963
 7213TIP3    H143130   1.325   5.715   2.185 -2.5995  0.5294 -0.8411
 7213TIP3    H243131   1.403   5.616   2.100  1.7281  0.5212  2.7547
 7214TIP3   OH243132   3.327   5.502  17.141 -0.0928  0.0334 -0.0083
 7214TIP3    H143133   3.334   5.419  17.188  0.5059  0.2672  0.3262
 7214TIP3    H243134   3.355   5.569  17.204 -1.0762  0.5541 -0.1010
 7215TIP3   OH243135   2.670   3.076   3.226 -0.1209 -0.0991  0.4897
 7215TIP3    H143136   2.653   3.070   3.320 -1.6941 -3.9322  0.1626
 7215TIP3    H243137   2.739   3.142   3.218  0.9480 -0.4627  4.4425
 7216TIP3   OH243138   4.197   1.669   5.647  0.7822 -0.9164  0.5912
 7216TIP3    H143139   4.197   1.595   5.586  0.0497 -0.0481 -0.5059
 7216TIP3    H243140   4.127   1.650   5.708  1.0054 -1.4199  0.6972
 7217TIP3   OH243141   0.227   2.036   2.314  0.5816 -0.5749 -0.1834
 7217TIP3    H143142   0.291   1.970   2.341  0.8656 -1.0439 -1.9023
 7217TIP3    H243143   0.278   2.115   2.297  0.2818  0.0338  1.5347
 7218TIP3   OH243144   5.102   4.092  12.952  0.4103 -0.5390  0.4087
 7218TIP3    H143145   5.024   4.072  13.005  0.5736 -2.2447  0.0702
 7218TIP3    H243146   5.172   4.042  12.993  1.0841  0.0560  0.0118
 7219TIP3   OH243147   5.000   3.413   5.715  0.1199  0.4949  0.1445
 7219TIP3    H143148   5.009   3.320   5.695  0.0176 -0.0274  2.2309
 7219TIP3    H243149   4.915   3.438   5.678  1.3774  0.5504 -2.9387
 7220TIP3   OH243150   1.821   4.132   1.422  0.5364 -0.3022  0.0205
 7220TIP3    H143151   1.845   4.039   1.422  1.9423  0.0254  0.6133
 7220TIP3    H243152   1.755   4.140   1.491  0.3666 -0.8657 -0.0697
 7221TIP3   OH243153   5.115   2.111  15.733 -0.4463  0.5223 -0.5296
 7221TIP3    H143154   5.132   2.029  15.781 -1.7528  0.6208  0.1418
 7221TIP3    H243155   5.200   2.135  15.695  0.0534 -0.9037 -0.3617
 7222TIP3   OH243156   2.671   4.596   4.652 -0.2118 -0.4360 -0.4911
 7222TIP3    H143157   2.697   4.520   4.601 -1.9633 -2.1144  0.9508
 7222TIP3    H243158   2.744   4.610   4.713  0.2345 -0.7855 -0.9349
 7223TIP3   OH243159   1.054   4.838   5.559 -0.6843 -0.2632 -0.4081
 7223TIP3    H143160   1.146   4.856   5.537 -0.7703 -0.2360 -0.7561
 7223TIP3    H243161   1.050   4.743   5.568 -0.2324 -0.1368  1.4191
 7224TIP3   OH243162   5.251   2.577  17.189 -0.2872 -0.1118  0.0636
 7224TIP3    H143163   5.222   2.487  17.205 -0.4991  0.1452  1.2548
 7224TIP3    H243164   5.200   2.606  17.113 -0.3554 -0.9346 -0.2083
 7225TIP3   OH243165   4.845   2.059   3.968  0.7558  0.4868  0.7842
 7225TIP3    H143166   4.845   1.966   3.988  1.2000  0.4273  0.5167
 7225TIP3    H243167   4.785   2.068   3.894 -0.3205  0.6062  1.6422
 7226TIP3   OH243168   0.274   5.785  12.163  0.6304 -0.2737  0.3287
 7226TIP3    H143169   0.218   5.708  12.176 -0.5465  0.7036  1.2759
 7226TIP3    H243170   0.333   5.785  12.238 -0.3831  0.5638  1.1482
 7227TIP3   OH243171   4.264   0.059  13.388  0.1176 -0.4341 -0.2425
 7227TIP3    H143172   4.244  -0.005  13.320 -0.5070 -0.0519 -0.4312
 7227TIP3    H243173   4.324   0.121  13.346 -0.5400 -0.0046 -0.5603
 7228TIP3   OH243174   0.921   5.109  14.847  0.1483  0.7598  0.5133
 7228TIP3    H143175   0.843   5.157  14.822  0.8450  1.0203 -1.2575
 7228TIP3    H243176   0.994   5.161  14.814  0.9874 -0.6974 -0.0389
 7229TIP3   OH243177   3.770   0.699   4.978  0.2232 -0.1308 -0.0912
 7229TIP3    H143178   3.697   0.680   4.920 -0.6932  0.7934  0.7115
 7229TIP3    H243179   3.832   0.628   4.964 -1.1265 -1.2949 -0.3221
 7230TIP3   OH243180   3.865   1.889   2.156  0.1469  0.1910  0.0310
 7230TIP3    H143181   3.778   1.885   2.118  0.5190 -2.1537 -0.7214
 7230TIP3    H243182   3.917   1.939   2.092 -0.0415 -0.7133 -0.8349
 7231TIP3   OH243183   1.894   5.468   2.664  0.1473  0.3690  1.1534
 7231TIP3    H143184   1.910   5.491   2.755  0.3107 -0.6159  1.3748
 7231TIP3    H243185   1.977   5.434   2.632  0.0749  0.6505  0.6465
 7232TIP3   OH243186   6.659   2.622   0.089 -0.2405  0.2509  0.2463
 7232TIP3    H143187   6.620   2.641   0.174 -2.3523 -0.8640 -0.4060
 7232TIP3    H243188   6.587   2.631   0.027  1.1118  0.4629 -1.3761
 7233TIP3   OH243189   2.158   3.280  16.995 -0.7894 -0.7996  0.2783
 7233TIP3    H143190   2.195   3.248  17.078  0.5768  0.1878  0.0759
 7233TIP3    H243191   2.234   3.289  16.937 -0.9764  3.0537  0.4052
 7234TIP3   OH243192   0.218   2.784  15.603 -0.2286 -0.1775 -0.5251
 7234TIP3    H143193   0.147   2.721  15.593  0.3342 -0.8651 -0.3068
 7234TIP3    H243194   0.175   2.868  15.615 -1.0105 -0.6698  0.1577
 7235TIP3   OH243195   6.047   2.719  15.543 -0.3105 -0.4046  0.3428
 7235TIP3    H143196   6.114   2.788  15.548 -1.6618  0.9196  1.2445
 7235TIP3    H243197   5.973   2.761  15.500 -1.0946 -1.3801  0.7023
 7236TIP3   OH243198   1.511   5.625  14.144 -0.3914  0.4794 -0.6389
 7236TIP3    H143199   1.589   5.678  14.159  1.1804 -2.0543  0.9230
 7236TIP3    H243200   1.463   5.630  14.226  0.3983 -1.3876 -0.0246
 7237TIP3   OH243201   5.869   2.050   5.287  0.0310  0.2904  0.1361
 7237TIP3    H143202   5.775   2.067   5.291  0.0379  0.3760 -0.0715
 7237TIP3    H243203   5.876   1.955   5.277 -0.0153  0.1886  0.9518
 7238TIP3   OH243204   1.584   1.031  12.091  0.2597  0.0610  0.4304
 7238TIP3    H143205   1.581   0.935  12.100 -0.0778 -0.0154 -0.3930
 7238TIP3    H243206   1.569   1.064  12.179  2.3041 -0.6593  1.0852
 7239TIP3   OH243207   0.820   2.884  14.827  0.0953 -0.5325 -0.0579
 7239TIP3    H143208   0.873   2.933  14.889  0.2912 -0.5540 -0.2074
 7239TIP3    H243209   0.749   2.847  14.880 -1.3710  1.7560 -0.2990
 7240TIP3   OH243210   0.219   1.853  15.646 -0.7112 -0.3506 -0.6488
 7240TIP3    H143211   0.252   1.877  15.559 -1.0774 -0.4847 -0.8261
 7240TIP3    H243212   0.137   1.902  15.655 -1.9555 -2.1745 -1.3937
 7241TIP3   OH243213   1.889   5.671  12.999 -0.5692  0.8450 -0.0412
 7241TIP3    H143214   1.927   5.749  13.039 -0.4509  0.2270  1.1162
 7241TIP3    H243215   1.959   5.635  12.944  0.4925 -0.1229  1.8505
 7242TIP3   OH243216   2.945   5.757   3.447  0.1763 -0.0981 -0.1255
 7242TIP3    H143217   2.915   5.673   3.484  0.0828 -0.2783 -0.6026
 7242TIP3    H243218   3.026   5.735   3.402 -0.0731 -0.0195 -0.6231
 7243TIP3   OH243219   2.083   0.045  14.070  0.0502  0.2977  0.3712
 7243TIP3    H143220   2.165   0.067  14.114  0.0150  0.2389  0.4665
 7243TIP3    H243221   2.059  -0.040  14.106 -1.1378  1.2338  1.8731
 7244TIP3   OH243222   0.677   5.685  17.144  0.3675  0.4972 -0.0254
 7244TIP3    H143223   0.666   5.671  17.050 -0.1882  4.1009 -0.6370
 7244TIP3    H243224   0.755   5.634  17.166  0.5650 -0.3818 -2.4418
 7245TIP3   OH243225   0.784   2.928   5.108  0.6747 -0.6974 -0.3274
 7245TIP3    H143226   0.874   2.961   5.103 -0.2378  1.9193 -0.6290
 7245TIP3    H243227   0.736   2.996   5.155 -0.7868 -2.9868  1.7118
 7246TIP3   OH243228   5.591   4.443  14.027 -0.7745  0.1872  0.6235
 7246TIP3    H143229   5.687   4.441  14.035 -0.7966  0.9025  1.2432
 7246TIP3    H243230   5.561   4.467  14.115 -1.3564  2.9324 -0.2246
 7247TIP3   OH243231   0.903   2.052   0.373 -0.3960  0.0918  0.0399
 7247TIP3    H143232   0.935   2.016   0.290 -1.9020 -0.0074 -0.5462
 7247TIP3    H243233   0.883   1.975   0.426  0.4662  0.1548  0.4715
 7248TIP3   OH243234   6.218   6.029   2.480  0.1484 -0.2195  0.4292
 7248TIP3    H143235   6.291   5.990   2.528  0.0159 -0.7439  0.2061
 7248TIP3    H243236   6.252   6.041   2.391  1.2271  2.9569  1.1363
 7249TIP3   OH243237   5.375   2.726   6.272 -0.0151  0.0359  0.3438
 7249TIP3    H143238   5.430   2.803   6.282 -0.3020  0.4965 -1.3363
 7249TIP3    H243239   5.417   2.675   6.202  0.6137 -1.7738  1.9338
 7250TIP3   OH243240   2.013   4.348  15.993  0.3188  0.1578 -1.1759
 7250TIP3    H143241   1.960   4.290  16.047  0.9761  0.5367 -0.1113
 7250TIP3    H243242   2.083   4.378  16.050  1.0178  0.5951 -2.2263
 7251TIP3   OH243243   3.073   1.555  16.027  0.4378  0.4398  0.4768
 7251TIP3    H143244   2.990   1.515  16.054  0.5517 -0.1166  0.0331
 7251TIP3    H243245   3.047   1.627  15.968  0.2809 -0.0499 -0.0611
 7252TIP3   OH243246   0.809   1.431   1.092  0.0569 -0.1261 -0.1914
 7252TIP3    H143247   0.856   1.463   1.015 -0.1807 -1.3629 -0.8659
 7252TIP3    H243248   0.733   1.490   1.099  0.7198  0.7489 -0.1609
 7253TIP3   OH243249   3.264   5.202   0.654 -0.5708 -0.1510 -0.0953
 7253TIP3    H143250   3.207   5.175   0.582 -1.7123 -0.0793  0.7487
 7253TIP3    H243251   3.271   5.124   0.709 -0.1090 -0.0668 -0.0366
 7254TIP3   OH243252   5.044   0.249   5.317  0.8395 -0.2760 -0.2036
 7254TIP3    H143253   4.965   0.270   5.366  0.5149 -1.8855  0.0015
 7254TIP3    H243254   5.088   0.334   5.305 -0.0838  0.4185  1.0868
 7255TIP3   OH243255   0.394   3.194   3.365  0.3258 -0.3847  0.2851
 7255TIP3    H143256   0.306   3.229   3.379  0.1707 -0.0165 -1.4054
 7255TIP3    H243257   0.417   3.220   3.276  1.7463 -1.3489  0.3254
 7256TIP3   OH243258   3.169   6.228  11.983  0.7728  0.1147  0.8797
 7256TIP3    H143259   3.254   6.272  11.983  0.6841  0.3271 -0.6869
 7256TIP3    H243260   3.134   6.243  11.895  0.1634 -1.9924  0.7102
 7257TIP3   OH243261   1.015   0.373  11.323 -0.0020 -0.1122  0.1940
 7257TIP3    H143262   0.981   0.292  11.360  0.4134 -0.1082  0.5959
 7257TIP3    H243263   0.939   0.417  11.287 -0.1670 -0.8794 -0.4141
 7258TIP3   OH243264   4.056   2.447   1.970 -0.3770  0.2429 -0.2128
 7258TIP3    H143265   4.092   2.534   1.951 -1.4677  0.5353 -1.0579
 7258TIP3    H243266   3.962   2.456   1.953 -0.3933 -1.3184 -1.0942
 7259TIP3   OH243267   3.717   0.077  13.898  0.8353  0.0532 -0.7435
 7259TIP3    H143268   3.666   0.051  13.975  1.5471 -0.6507 -0.4934
 7259TIP3    H243269   3.807   0.050  13.919  1.1345  0.3643 -1.5912
 7260TIP3   OH243270   2.623   4.201  15.377 -0.0961 -0.1591 -0.0692
 7260TIP3    H143271   2.538   4.185  15.420 -0.8159  2.1430 -0.4760
 7260TIP3    H243272   2.616   4.157  15.293 -1.2619  0.6964 -0.4499
 7261TIP3   OH243273   5.714   6.414   6.109  0.4883 -0.2275 -0.3748
 7261TIP3    H143274   5.629   6.451   6.084 -0.6858 -2.3327  0.2588
 7261TIP3    H243275   5.698   6.372   6.194  1.5942 -2.3986 -1.1575
 7262TIP3   OH243276   5.070   6.176   4.165  0.5957  0.2946 -0.2408
 7262TIP3    H143277   5.021   6.139   4.091 -0.4257 -1.5005  1.2408
 7262TIP3    H243278   5.135   6.109   4.187 -0.8751 -0.4691  2.1218
 7263TIP3   OH243279   6.686   1.127   5.076  0.2425 -0.0336  0.1415
 7263TIP3    H143280   6.685   1.182   4.997  0.4546 -0.3481 -0.0857
 7263TIP3    H243281   6.742   1.175   5.138 -1.3871  1.1132  0.7770
 7264TIP3   OH243282   3.404   1.930   1.278  0.1074 -0.0224 -0.2872
 7264TIP3    H143283   3.372   1.890   1.198 -0.2158  0.2536 -0.3027
 7264TIP3    H243284   3.484   1.976   1.252  0.4423 -0.5931 -0.2811
 7265TIP3   OH243285   0.904   1.700  13.095 -0.3258 -0.5568  0.2019
 7265TIP3    H143286   0.933   1.624  13.145 -1.4129 -1.9357 -1.1701
 7265TIP3    H243287   0.907   1.672  13.004 -4.1818 -0.2755 -0.1731
 7266TIP3   OH243288   0.654   5.961  10.871 -0.1256 -0.3692  0.4361
 7266TIP3    H143289   0.622   5.939  10.783  1.8843  1.6941 -0.9332
 7266TIP3    H243290   0.724   5.899  10.887 -0.0169 -0.2978  0.2456
 7267TIP3   OH243291   2.327   3.077  14.014 -0.0313  0.1974 -0.0457
 7267TIP3    H143292   2.364   3.162  14.039 -1.2855  1.0243 -0.9192
 7267TIP3    H243293   2.305   3.035  14.097  1.3144  0.3813  0.4248
 7268TIP3   OH243294   4.709   3.870   6.727 -0.0309  0.0608 -0.8274
 7268TIP3    H143295   4.725   3.791   6.676  2.6142 -0.8442  1.1451
 7268TIP3    H243296   4.745   3.941   6.673  1.2635 -0.6473 -0.9294
 7269TIP3   OH243297   3.662   5.125  16.919 -0.3007 -0.2572 -0.4108
 7269TIP3    H143298   3.709   5.205  16.943 -0.3815 -0.1029 -0.7499
 7269TIP3    H243299   3.720   5.054  16.944  0.1363 -0.0684 -0.8685
 7270TIP3   OH243300   1.692   2.083   1.313  0.6268  0.7131  0.6016
 7270TIP3    H143301   1.672   2.022   1.384  1.5257 -0.4885 -0.1485
 7270TIP3    H243302   1.767   2.045   1.268  0.5086  1.8044 -0.5901
 7271TIP3   OH243303   0.852   5.267   2.532 -0.2267 -0.0748 -0.5713
 7271TIP3    H143304   0.797   5.227   2.599  0.5613 -0.0577  0.1022
 7271TIP3    H243305   0.910   5.326   2.581 -0.5766  1.0060 -1.4152
 7272TIP3   OH243306   4.043   1.252   0.579 -0.3168 -0.2784  0.6018
 7272TIP3    H143307   4.110   1.283   0.639 -1.2540 -0.3486  1.7427
 7272TIP3    H243308   3.960   1.271   0.624 -0.9943 -2.8424  0.6153
 7273TIP3   OH243309   1.005   5.332   6.320 -0.3320 -0.7456  0.1906
 7273TIP3    H143310   1.002   5.238   6.335 -2.4458 -0.9888 -1.2947
 7273TIP3    H243311   1.055   5.342   6.240  0.7368 -0.4823  0.8686
 7274TIP3   OH243312   2.938   3.928  15.724  0.1835 -1.1472 -0.6715
 7274TIP3    H143313   2.992   4.001  15.751 -0.9530 -0.3079 -0.5868
 7274TIP3    H243314   2.996   3.872  15.673  1.2800 -0.6214 -0.0254
 7275TIP3   OH243315   4.429   1.601  16.038 -0.1571  0.2137 -0.2362
 7275TIP3    H143316   4.471   1.686  16.031  0.0260  0.1360 -0.0970
 7275TIP3    H243317   4.409   1.591  16.131 -0.7627  0.3814 -0.3488
 7276TIP3   OH243318   0.993   0.327   2.371  0.1050 -0.4462 -0.0612
 7276TIP3    H143319   1.085   0.300   2.368  0.7600  1.1140  2.2697
 7276TIP3    H243320   0.997   0.422   2.378 -1.7618 -0.2750 -0.8628
 7277TIP3   OH243321   0.488   6.770  15.984  0.1244 -0.1269 -0.5283
 7277TIP3    H143322   0.534   6.710  15.926 -0.5239  0.5061 -1.7164
 7277TIP3    H243323   0.439   6.829  15.926 -0.4866  0.5720  0.6430
 7278TIP3   OH243324   1.197   6.729  11.580 -0.3124  0.6094 -0.8907
 7278TIP3    H143325   1.275   6.745  11.634  1.3007 -1.4211 -2.4334
 7278TIP3    H243326   1.191   6.806  11.524 -1.4681  2.3217  1.4434
 7279TIP3   OH243327   5.022   5.631  14.960  0.4779  0.0585 -0.1421
 7279TIP3    H143328   5.024   5.672  15.046  2.4458  1.1963 -0.6766
 7279TIP3    H243329   5.099   5.575  14.958 -0.3603 -1.1166 -0.6546
 7280TIP3   OH243330   1.255   3.553  16.780 -0.1465  0.0093 -0.4288
 7280TIP3    H143331   1.327   3.614  16.763  1.4782 -1.0100  2.1451
 7280TIP3    H243332   1.293   3.466  16.767 -0.5215 -0.5890  1.9150
 7281TIP3   OH243333   3.957   1.961  13.930  0.4952 -0.0055 -0.4415
 7281TIP3    H143334   3.938   1.868  13.917  2.2605 -0.3856 -0.5038
 7281TIP3    H243335   3.974   1.995  13.842 -2.1826  0.9188 -0.6962
 7282TIP3   OH243336   0.760   6.686  14.433 -0.1747  0.1977 -0.2467
 7282TIP3    H143337   0.792   6.599  14.458  1.1920  0.2806 -1.5811
 7282TIP3    H243338   0.836   6.743  14.443 -1.1268  1.3513  0.9117
 7283TIP3   OH243339   4.167   6.026  16.695 -0.8342  0.1961 -0.1771
 7283TIP3    H143340   4.184   6.115  16.664 -2.3257  0.3736 -0.5549
 7283TIP3    H243341   4.226   5.971  16.644 -0.5470  0.8734 -0.5963
 7284TIP3   OH243342   0.916   3.355   1.737  0.6735  0.3142  0.3142
 7284TIP3    H143343   0.832   3.394   1.711  0.6167  0.0221  0.0587
 7284TIP3    H243344   0.954   3.322   1.656  0.6411 -0.3191  0.5457
 7285TIP3   OH243345   4.689   5.613  12.681 -0.1780  0.1218  0.5084
 7285TIP3    H143346   4.719   5.628  12.771 -2.1170  1.2078  1.0345
 7285TIP3    H243347   4.604   5.571  12.691  0.6896 -2.1400 -0.8970
 7286TIP3   OH243348   0.724   2.123  14.017 -0.6104  0.2510 -0.1293
 7286TIP3    H143349   0.775   2.048  13.986  0.0685  0.4602  0.4493
 7286TIP3    H243350   0.771   2.153  14.095 -2.1162 -0.0975  0.9623
 7287TIP3   OH243351   2.942   4.579  17.271 -0.1611 -0.1361 -0.9540
 7287TIP3    H143352   2.901   4.493  17.257 -0.8177  0.0321 -0.1445
 7287TIP3    H243353   2.957   4.583  17.365  4.1264 -1.2290 -1.4155
 7288TIP3   OH243354   1.802   3.357  14.830 -0.6483  0.1487 -0.1427
 7288TIP3    H143355   1.730   3.301  14.800  0.7008 -0.9041 -1.5830
 7288TIP3    H243356   1.840   3.310  14.905 -0.7667  0.1654 -0.0711
 7289TIP3   OH243357   5.398   4.267   3.480  0.0153 -0.8278  0.0267
 7289TIP3    H143358   5.303   4.265   3.494  0.1106 -0.7696  0.7051
 7289TIP3    H243359   5.408   4.287   3.387 -0.6345 -0.2463  0.0744
 7290TIP3   OH243360   0.858   5.778   3.210 -0.0875  0.3280 -0.5709
 7290TIP3    H143361   0.775   5.749   3.174 -0.0823  0.2039 -0.4813
 7290TIP3    H243362   0.866   5.869   3.181  0.6840 -0.2476 -2.2602
 7291TIP3   OH243363   0.757   0.990   1.789  0.0746 -0.1933  0.0396
 7291TIP3    H143364   0.810   1.055   1.836  0.0930  1.0034 -1.5501
 7291TIP3    H243365   0.816   0.915   1.779  0.3517 -0.1436  1.1461
 7292TIP3   OH243366   2.312   3.251  12.447  0.2733 -0.0344 -1.1233
 7292TIP3    H143367   2.405   3.266  12.459 -0.0062  0.8309  0.1279
 7292TIP3    H243368   2.296   3.165  12.485  0.6018 -0.3480 -1.6711
 7293TIP3   OH243369   4.934   1.475   4.969 -0.4846 -0.2491 -0.3652
 7293TIP3    H143370   4.880   1.447   4.894 -0.4953  0.2345 -0.5398
 7293TIP3    H243371   5.012   1.514   4.929  0.4939 -1.8408 -0.1182
 7294TIP3   OH243372   6.100   5.292   6.236 -0.1637  0.5330  0.6753
 7294TIP3    H143373   6.185   5.307   6.196  0.8339  1.2957  2.9581
 7294TIP3    H243374   6.051   5.241   6.170  1.1137  2.2286 -1.7059
 7295TIP3   OH243375   3.872   4.390  14.342  0.0881  0.5974  0.5767
 7295TIP3    H143376   3.787   4.429  14.362  0.0046  0.8208 -0.2078
 7295TIP3    H243377   3.897   4.346  14.423 -1.6043 -1.0127  0.2814
 7296TIP3   OH243378   2.967   2.772  15.541 -0.2126 -0.2437  0.4273
 7296TIP3    H143379   2.954   2.701  15.604  0.0112 -1.0290 -0.3978
 7296TIP3    H243380   3.057   2.802  15.556 -0.6521  0.6113  1.5050
 7297TIP3   OH243381   0.550   1.953  10.544  0.0858 -0.0589 -0.2018
 7297TIP3    H143382   0.639   1.927  10.521 -0.2674  0.2167 -2.0391
 7297TIP3    H243383   0.494   1.906  10.482 -1.2203 -1.4849  1.9202
 7298TIP3   OH243384   0.017   1.677   5.568 -0.4277 -0.2690 -0.1831
 7298TIP3    H143385  -0.048   1.678   5.497  1.3389 -0.5162 -1.8813
 7298TIP3    H243386   0.050   1.766   5.572  0.4693 -0.5640 -0.6664
 7299TIP3   OH243387   2.020   0.015   4.554  0.2331 -0.5064  0.0934
 7299TIP3    H143388   2.014  -0.073   4.516 -0.4861 -0.2711 -0.3652
 7299TIP3    H243389   2.092   0.057   4.508  0.5427 -0.8355  0.2741
 7300TIP3   OH243390   1.834   4.269  16.178  0.0162 -0.4103  0.0522
 7300TIP3    H143391   1.877   4.238  16.258  1.5678  0.3622 -0.4498
 7300TIP3    H243392   1.772   4.336  16.208 -1.7959 -2.3329  0.9087
 7301TIP3   OH243393   3.291   5.010   2.058 -0.2589 -0.3681  0.4552
 7301TIP3    H143394   3.211   4.957   2.054 -1.1462  0.9880 -0.6389
 7301TIP3    H243395   3.276   5.080   1.995  2.8650 -1.4900 -1.7481
 7302TIP3   OH243396   6.796   5.049  15.059 -0.3470  0.5156 -0.0299
 7302TIP3    H143397   6.771   4.958  15.076 -0.2811  0.5934  0.5335
 7302TIP3    H243398   6.715   5.099  15.073 -0.5433  0.4813 -0.9899
 7303TIP3   OH243399   5.380   4.509  11.152 -0.1668 -0.1089 -0.1882
 7303TIP3    H143400   5.382   4.598  11.115  1.7034  0.2851  0.7429
 7303TIP3    H243401   5.316   4.514  11.223  0.9934  0.9264  0.8182
 7304TIP3   OH243402   2.898   2.390  12.781  0.1462 -0.5111 -0.5439
 7304TIP3    H143403   2.876   2.396  12.688 -0.3720  1.7084 -0.3335
 7304TIP3    H243404   2.833   2.445  12.824  0.5030 -1.3417  1.1282
 7305TIP3   OH243405   6.035   2.309   1.389 -0.0685  0.1744  0.4575
 7305TIP3    H143406   5.941   2.321   1.379 -0.1985  0.9045  2.1086
 7305TIP3    H243407   6.073   2.393   1.364  0.0289  0.2585  0.8689
 7306TIP3   OH243408   6.694   0.088   5.372 -0.4704 -0.6747 -0.1665
 7306TIP3    H143409   6.608   0.130   5.361 -0.1034  0.0171 -0.4473
 7306TIP3    H243410   6.697   0.021   5.304 -0.9114 -0.9157  0.0444
 7307TIP3   OH243411   2.502   4.880  17.294  0.0233  0.7128  0.0064
 7307TIP3    H143412   2.563   4.897  17.222 -0.1864 -0.9229 -0.5988
 7307TIP3    H243413   2.553   4.828  17.356  0.0837  1.7874  0.8871
 7308TIP3   OH243414   3.119   3.163   0.780 -0.1132 -0.5283  0.4702
 7308TIP3    H143415   3.077   3.130   0.859 -0.0447  0.7987  1.0894
 7308TIP3    H243416   3.105   3.094   0.715  0.0651 -1.7606  1.6935
 7309TIP3   OH243417   5.230   1.565  11.499 -0.1573  0.7723  0.0912
 7309TIP3    H143418   5.238   1.563  11.403 -0.8775 -1.0584  0.0298
 7309TIP3    H243419   5.192   1.651  11.518 -1.5490  0.5430 -1.4246
 7310TIP3   OH243420   4.831   2.555  12.611 -0.1074 -0.1042 -0.0375
 7310TIP3    H143421   4.790   2.591  12.689 -0.1981 -0.6288  0.1607
 7310TIP3    H243422   4.800   2.612  12.540 -0.8093 -0.2042  0.1731
 7311TIP3   OH243423   1.981   5.384   0.268 -1.3972 -0.1841  0.5977
 7311TIP3    H143424   2.063   5.338   0.288  0.0437  1.5269 -0.9999
 7311TIP3    H243425   1.931   5.322   0.214 -0.5640 -0.7632  0.4768
 7312TIP3   OH243426   1.169   4.914  11.281  0.2225 -0.1616  0.5815
 7312TIP3    H143427   1.120   4.831  11.279 -0.0121 -0.0283 -1.2674
 7312TIP3    H243428   1.108   4.976  11.320  0.0656 -0.6708  1.1617
 7313TIP3   OH243429   4.980   0.178   1.427 -0.1419  0.2195  0.2344
 7313TIP3    H143430   5.027   0.242   1.481 -0.6838  0.1717  0.7808
 7313TIP3    H243431   4.896   0.221   1.409  0.9022  1.3127 -2.6815
 7314TIP3   OH243432   5.508   0.437  16.933  0.7928 -0.6372  0.1246
 7314TIP3    H143433   5.449   0.376  16.978 -0.0561 -0.2636 -0.4518
 7314TIP3    H243434   5.483   0.524  16.966 -0.5580 -0.2401 -1.7658
 7315TIP3   OH243435   2.227   6.767  12.551  0.5211 -0.8964 -0.2443
 7315TIP3    H143436   2.169   6.725  12.614 -0.8278  0.7635 -0.3207
 7315TIP3    H243437   2.273   6.833  12.602  1.2094 -1.1549 -0.5224
 7316TIP3   OH243438   2.638   2.188   5.230  0.1992 -0.1897  0.5239
 7316TIP3    H143439   2.662   2.142   5.310 -2.1375 -1.1174  0.7893
 7316TIP3    H243440   2.580   2.259   5.260 -1.5360 -1.1744 -0.3653
 7317TIP3   OH243441   2.206   5.730  15.068  0.7718  0.1763  0.5773
 7317TIP3    H143442   2.287   5.752  15.023  0.6463  2.2383  1.2616
 7317TIP3    H243443   2.179   5.646  15.030  0.8499  1.5839 -2.8610
 7318TIP3   OH243444   1.626   5.161  17.048 -0.3418 -0.4227 -0.2093
 7318TIP3    H143445   1.590   5.074  17.066 -1.0717  0.0591  0.7548
 7318TIP3    H243446   1.562   5.222  17.085  0.8701  0.4958  0.4854
 7319TIP3   OH243447   0.935   0.224   0.376 -0.2989 -0.2550  0.3275
 7319TIP3    H143448   0.954   0.273   0.295 -1.9761 -0.9040 -0.4956
 7319TIP3    H243449   0.939   0.291   0.445  1.2507  0.2964 -0.2460
 7320TIP3   OH243450   3.185   4.681   3.803 -0.0891  0.0486  0.2207
 7320TIP3    H143451   3.156   4.736   3.876 -1.0328 -0.7863  0.4926
 7320TIP3    H243452   3.214   4.744   3.737 -2.3263  0.9924  0.0180
 7321TIP3   OH243453   5.286   3.324  13.036  0.8245 -0.0057 -0.0051
 7321TIP3    H143454   5.349   3.343  13.105  1.8706  0.0933 -0.9690
 7321TIP3    H243455   5.266   3.231  13.046  1.4508 -0.1357  0.0352
 7322TIP3   OH243456   2.684   2.401  15.680 -0.1229  0.2544  0.4309
 7322TIP3    H143457   2.759   2.455  15.703 -1.1222  2.3932 -1.0154
 7322TIP3    H243458   2.607   2.454  15.704 -1.3397 -2.4743  3.3262
 7323TIP3   OH243459   5.374   1.889  14.077 -0.2134  0.0144 -0.5221
 7323TIP3    H143460   5.447   1.831  14.058 -1.3494 -1.1879 -1.4717
 7323TIP3    H243461   5.403   1.975  14.048  0.7530 -0.4823 -1.0634
 7324TIP3   OH243462   2.549   0.662  15.201 -0.0060 -0.2305 -0.2627
 7324TIP3    H143463   2.575   0.754  15.211  0.1887 -0.3272  0.1489
 7324TIP3    H243464   2.630   0.617  15.178 -0.2106 -0.2140 -1.0261
 7325TIP3   OH243465   5.895   5.722  13.319 -0.3783  0.1598  0.9475
 7325TIP3    H143466   5.868   5.761  13.402 -1.3050  1.7024 -0.0409
 7325TIP3    H243467   5.815   5.683  13.284  0.3262 -1.9076  1.4563
 7326TIP3   OH243468   3.305   0.709   3.794 -0.3252  0.7702 -0.6621
 7326TIP3    H143469   3.338   0.731   3.881  1.7573  0.7485 -1.3796
 7326TIP3    H243470   3.244   0.779   3.772 -0.5238  1.0149  0.6251
 7327TIP3   OH243471   3.071   0.784   1.269 -0.4280 -0.2246  0.0404
 7327TIP3    H143472   3.008   0.725   1.229 -0.3221  0.0507 -0.5459
 7327TIP3    H243473   3.114   0.731   1.336  1.1151 -1.4945 -1.8341
 7328TIP3   OH243474   6.762   0.524   0.638  0.4291 -0.1185  0.1136
 7328TIP3    H143475   6.710   0.451   0.602  0.4880  0.2065 -0.6579
 7328TIP3    H243476   6.848   0.513   0.597  0.2082  0.8419 -0.6476
 7329TIP3   OH243477   5.060   2.884  15.625 -0.2725  0.2715  0.1215
 7329TIP3    H143478   4.992   2.839  15.574 -1.2410  0.2774  1.3507
 7329TIP3    H243479   5.121   2.814  15.650 -0.7455 -0.0409  0.4191
 7330TIP3   OH243480   1.808   6.275  13.739  0.0611 -0.3456  0.4232
 7330TIP3    H143481   1.839   6.275  13.648  1.4253  1.0082  0.8444
 7330TIP3    H243482   1.875   6.226  13.786  0.5043  0.7918  1.0152
 7331TIP3   OH243483   4.308   2.801  13.537  0.4793 -0.1511  0.0775
 7331TIP3    H143484   4.382   2.751  13.570 -1.3938 -1.7687  2.1143
 7331TIP3    H243485   4.253   2.817  13.613 -2.0933 -0.4809 -1.5698
 7332TIP3   OH243486   4.094   2.990   1.583  0.1627 -0.5556  0.0034
 7332TIP3    H143487   4.065   2.960   1.497 -2.4299 -1.0808  0.9508
 7332TIP3    H243488   4.136   3.074   1.567  1.5369 -1.5352 -1.9537
 7333TIP3   OH243489   6.330   3.847  12.855  0.3678  0.6580 -0.0409
 7333TIP3    H143490   6.343   3.850  12.760 -0.8681  0.5717 -0.2260
 7333TIP3    H243491   6.313   3.938  12.879 -1.8283  0.3741 -0.3119
 7334TIP3   OH243492   2.085   2.314  15.653 -0.1617  0.2933  0.3430
 7334TIP3    H143493   2.021   2.384  15.665 -0.7008 -0.2565  0.7718
 7334TIP3    H243494   2.096   2.307  15.558 -0.5814  0.5311  0.2747
 7335TIP3   OH243495   2.727   5.548  16.529 -0.1140 -0.0710 -0.0804
 7335TIP3    H143496   2.783   5.626  16.528 -1.7505  1.1836  0.9814
 7335TIP3    H243497   2.776   5.483  16.479  1.6544  1.3895 -0.3629
 7336TIP3   OH243498   0.450   0.142   4.620 -0.4562  0.4595  0.1425
 7336TIP3    H143499   0.497   0.182   4.694 -0.3278 -0.4816  0.5808
 7336TIP3    H243500   0.518   0.127   4.554 -0.3043 -0.0261  0.4051
 7337TIP3   OH243501   5.247   0.658  12.770  0.1291 -0.0756 -0.4747
 7337TIP3    H143502   5.301   0.728  12.807 -1.3195  0.0749  1.5008
 7337TIP3    H243503   5.244   0.592  12.839  0.6173 -1.6651 -1.9063
 7338TIP3   OH243504   0.418   4.699   3.431 -0.7522  0.0696 -0.2230
 7338TIP3    H143505   0.417   4.604   3.416  1.0391  0.0422 -0.3480
 7338TIP3    H243506   0.352   4.712   3.499 -0.1037 -1.4733  0.7802
 7339TIP3   OH243507   0.981   6.282  17.276  0.1289  0.4346 -0.4449
 7339TIP3    H143508   0.958   6.317  17.190 -1.7958 -1.0786 -0.5981
 7339TIP3    H243509   0.926   6.331  17.337 -0.3537 -0.2174 -0.3507
 7340TIP3   OH243510   4.227   5.751  12.499  0.2340  0.4443  0.3019
 7340TIP3    H143511   4.143   5.783  12.532 -1.0259 -0.6006 -1.6754
 7340TIP3    H243512   4.281   5.829  12.492 -0.0395  0.9581  2.9164
 7341TIP3   OH243513   2.814   2.759   0.746 -0.3214  0.1605 -0.0792
 7341TIP3    H143514   2.819   2.664   0.761  2.3840 -0.1912 -2.3249
 7341TIP3    H243515   2.775   2.767   0.659 -0.7524  1.1465  0.1898
 7342TIP3   OH243516   5.529   2.810   2.097  0.0417 -0.7554 -0.8330
 7342TIP3    H143517   5.611   2.836   2.054  1.1241 -0.7171  1.1123
 7342TIP3    H243518   5.476   2.890   2.098  0.6349 -0.3571 -0.7389
 7343TIP3   OH243519   2.948   5.315   3.475 -0.2694 -0.1851  0.2828
 7343TIP3    H143520   2.954   5.298   3.569 -2.4689  0.8262  0.6485
 7343TIP3    H243521   2.876   5.377   3.465 -0.9247 -1.2041 -2.1787
 7344TIP3   OH243522   6.275   6.091   0.879 -0.1844 -0.0532  0.3020
 7344TIP3    H143523   6.295   6.024   0.944 -0.3399 -0.2666  0.1287
 7344TIP3    H243524   6.239   6.043   0.805 -0.2136  0.2129  0.1431
 7345TIP3   OH243525   5.722   6.110  14.749  0.0717  0.1907  0.0229
 7345TIP3    H143526   5.670   6.180  14.707 -0.6364 -0.2605  0.1285
 7345TIP3    H243527   5.730   6.139  14.840 -1.2698 -0.4335  0.3619
 7346TIP3   OH243528   1.870   0.692   6.221  0.2784 -0.5354  0.2892
 7346TIP3    H143529   1.840   0.629   6.156 -1.7070 -0.3933  0.9870
 7346TIP3    H243530   1.905   0.638   6.292  0.4623 -0.7639  0.0266
 7347TIP3   OH243531   2.868   4.075   1.709 -0.1924 -0.4252  0.9393
 7347TIP3    H143532   2.898   4.021   1.636 -3.0060 -0.1691 -0.5506
 7347TIP3    H243533   2.915   4.158   1.698 -0.9924 -0.1766 -1.0160
 7348TIP3   OH243534   0.747   4.416  10.945 -0.1958  0.2692  0.0657
 7348TIP3    H143535   0.805   4.362  10.891  0.1305  0.4157  0.2625
 7348TIP3    H243536   0.715   4.484  10.885  0.5718  0.7374  0.1723
 7349TIP3   OH243537   2.814   0.641  14.616 -0.1594 -0.0582  0.8901
 7349TIP3    H143538   2.774   0.631  14.530 -1.8422  1.0531  1.5065
 7349TIP3    H243539   2.908   0.637  14.599 -0.4657 -0.7045 -0.8761
 7350TIP3   OH243540   2.377   2.959  11.894  0.3278 -0.3169  0.2362
 7350TIP3    H143541   2.316   2.886  11.886 -0.2084  0.2236 -0.9042
 7350TIP3    H243542   2.326   3.029  11.934 -0.0576  0.3666 -1.3619
 7351TIP3   OH243543   3.717   1.289   1.955  0.0541  0.1738  0.2830
 7351TIP3    H143544   3.805   1.260   1.978  0.1648  1.8662  2.2373
 7351TIP3    H243545   3.688   1.226   1.888  2.2082 -1.2072  0.5487
 7352TIP3   OH243546   2.750   4.793  15.473  0.0001  0.3593 -0.2528
 7352TIP3    H143547   2.712   4.828  15.393 -0.7756  1.0922  0.4210
 7352TIP3    H243548   2.676   4.754  15.520  0.4839 -0.2582  0.0142
 7353TIP3   OH243549   0.176   3.537  11.775 -0.4322  0.2675  0.3561
 7353TIP3    H143550   0.232   3.545  11.852  0.8431  1.2455 -0.6225
 7353TIP3    H243551   0.156   3.628  11.751 -0.4042 -0.0025 -0.7378
 7354TIP3   OH243552   2.006   1.904   4.881  0.4088 -0.1872  0.3004
 7354TIP3    H143553   2.045   1.985   4.848 -0.5595  1.0363  2.0372
 7354TIP3    H243554   1.911   1.917   4.872  0.2244 -2.2400 -1.8357
 7355TIP3   OH243555   4.405   2.669   1.671  0.8316 -0.7016  1.1381
 7355TIP3    H143556   4.474   2.710   1.619  1.2889 -1.6617  0.9451
 7355TIP3    H243557   4.348   2.740   1.697  0.1515 -0.2693 -1.3207
 7356TIP3   OH243558   4.778   5.873  16.007  0.0284 -0.2543 -0.2894
 7356TIP3    H143559   4.726   5.808  15.960  0.6432  0.0790 -1.4769
 7356TIP3    H243560   4.820   5.825  16.078 -2.3071 -0.4209  1.0561
 7357TIP3   OH243561   5.827   6.173  13.695 -0.5696  0.1304  0.2124
 7357TIP3    H143562   5.892   6.242  13.703 -1.3824  1.0871 -1.0368
 7357TIP3    H243563   5.807   6.169  13.602 -0.6322 -1.7392  0.2599
 7358TIP3   OH243564   6.233   1.268   5.521 -0.0790 -0.1975 -0.0454
 7358TIP3    H143565   6.145   1.234   5.535  0.0151 -0.3415  0.1987
 7358TIP3    H243566   6.223   1.333   5.451 -0.2084 -0.9151 -0.7074
 7359TIP3   OH243567   3.114   3.450   0.240 -0.0830 -0.0980 -0.4032
 7359TIP3    H143568   3.175   3.459   0.167  1.3755  1.7140  0.9554
 7359TIP3    H243569   3.049   3.520   0.226  0.6030  0.7078  0.3827
 7360TIP3   OH243570   4.619   4.446   3.449 -0.0849 -0.4247  0.1894
 7360TIP3    H143571   4.528   4.418   3.456 -0.3854  0.5136  0.0405
 7360TIP3    H243572   4.631   4.507   3.521  1.3511 -2.9153  2.2529
 7361TIP3   OH243573   0.298   2.181   5.405  0.4084 -0.1865  0.6064
 7361TIP3    H143574   0.380   2.227   5.392  0.0360  0.2975 -0.0511
 7361TIP3    H243575   0.274   2.201   5.496  0.9856 -0.2992  0.7897
 7362TIP3   OH243576   0.615   0.708  12.005 -0.0047  0.5905  0.2885
 7362TIP3    H143577   0.654   0.762  12.074  0.2857  2.0513 -0.9683
 7362TIP3    H243578   0.687   0.652  11.976  0.5982  1.7059 -0.4728
 7363TIP3   OH243579   1.967   1.246  16.407  0.1757  0.5163 -0.4796
 7363TIP3    H143580   2.038   1.287  16.359 -0.3676  0.8539 -1.0158
 7363TIP3    H243581   1.902   1.316  16.419  1.2199  1.1084  2.7659
 7364TIP3   OH243582   6.732   4.581   1.640  0.2146  0.1530 -0.0029
 7364TIP3    H143583   6.798   4.563   1.707 -0.1658 -1.2384  0.0361
 7364TIP3    H243584   6.768   4.541   1.561 -0.2768 -0.0257 -0.1356
 7365TIP3   OH243585   6.528   4.058  15.247 -0.2253  0.2082  0.1220
 7365TIP3    H143586   6.492   3.974  15.221  0.9850 -0.4343  0.4386
 7365TIP3    H243587   6.613   4.063  15.202 -0.9484  1.9859 -1.1844
 7366TIP3   OH243588   6.281   5.197  10.282 -0.0140  0.1880 -0.3719
 7366TIP3    H143589   6.246   5.283  10.304  1.8592  0.6853  0.9595
 7366TIP3    H243590   6.206   5.138  10.287 -0.7050  1.1348  2.5385
 7367TIP3   OH243591   6.719   1.069  15.623  0.0137 -0.3703  0.2848
 7367TIP3    H143592   6.777   1.135  15.586 -4.5288  2.0249 -3.6007
 7367TIP3    H243593   6.712   1.002  15.556 -1.6023 -0.5732  0.5986
 7368TIP3   OH243594   0.354   2.136   5.697  0.2323 -0.1639  0.2794
 7368TIP3    H143595   0.446   2.114   5.684  0.3970 -0.8249  2.1912
 7368TIP3    H243596   0.349   2.167   5.787 -1.2412  0.9543 -0.1429
 7369TIP3   OH243597   4.809   1.508  14.777 -0.3311  0.3453  0.3024
 7369TIP3    H143598   4.896   1.534  14.747  0.1644 -2.4347 -0.9334
 7369TIP3    H243599   4.811   1.523  14.871  1.1988  1.0702  0.1850
 7370TIP3   OH243600   5.359   0.578  15.170 -0.3529  0.0337  0.1522
 7370TIP3    H143601   5.392   0.489  15.156  2.0187  0.4329  2.4091
 7370TIP3    H243602   5.281   0.566  15.224 -2.1382 -0.7512 -2.3916
 7371TIP3   OH243603   1.179   3.813   1.325 -0.7619  0.5583 -0.3263
 7371TIP3    H143604   1.197   3.900   1.361 -1.6800  0.0462  1.4671
 7371TIP3    H243605   1.107   3.828   1.264 -0.2998  1.1838 -0.7395
 7372TIP3   OH243606   5.121   0.682  10.773 -0.1299 -0.0011  0.0288
 7372TIP3    H143607   5.131   0.720  10.686 -0.6418  0.6161  0.2328
 7372TIP3    H243608   5.099   0.757  10.830 -0.2276 -0.4578  0.6051
 7373TIP3   OH243609   0.343   4.253  12.636  0.1591  0.1395 -0.1177
 7373TIP3    H143610   0.302   4.242  12.722 -0.7637 -0.5309 -0.6282
 7373TIP3    H243611   0.358   4.164  12.605  0.8710  0.3788 -0.4753
 7374TIP3   OH243612   0.080   1.202  10.843 -0.1703 -0.0621  0.6660
 7374TIP3    H143613   0.162   1.250  10.838 -1.6283  2.7230  1.3247
 7374TIP3    H243614   0.028   1.235  10.770 -0.2834 -2.8621 -0.6711
 7375TIP3   OH243615   6.424   3.234  14.096 -0.1119  0.2097  0.5661
 7375TIP3    H143616   6.396   3.143  14.086 -0.4751  0.3344  0.4520
 7375TIP3    H243617   6.369   3.283  14.035  0.6192  0.4057  0.0592
 7376TIP3   OH243618   4.158   4.623  15.893  0.5131 -0.3694 -0.2374
 7376TIP3    H143619   4.070   4.661  15.900  0.1075 -1.2632 -0.2775
 7376TIP3    H243620   4.143   4.528  15.895  1.6389 -0.5479  1.6690
 7377TIP3   OH243621   2.584   0.542   4.313 -0.3086  0.4315 -0.3986
 7377TIP3    H143622   2.628   0.487   4.249 -0.1901 -1.4081  1.1927
 7377TIP3    H243623   2.492   0.544   4.284 -0.1816 -0.0112 -0.8423
 7378TIP3   OH243624   3.185   2.881  16.982  0.3491 -0.5727 -0.0689
 7378TIP3    H143625   3.132   2.888  16.903  1.7827 -2.1802 -1.2530
 7378TIP3    H243626   3.212   2.789  16.984  0.9951 -0.3852  1.8856
 7379TIP3   OH243627   6.433   0.744   5.880  0.3700 -0.0413  0.3572
 7379TIP3    H143628   6.428   0.719   5.972  1.5592 -1.7746 -0.0005
 7379TIP3    H243629   6.527   0.751   5.862  0.1363  1.3097 -0.4780
 7380TIP3   OH243630   2.653   6.727   1.026  0.2346 -0.6343  0.2874
 7380TIP3    H143631   2.682   6.758   0.940  1.3376 -2.0810  0.1103
 7380TIP3    H243632   2.726   6.746   1.084 -0.2141 -0.3387  0.7583
 7381TIP3   OH243633   3.961   0.890   4.010  0.0980 -0.5034 -0.5850
 7381TIP3    H143634   4.022   0.824   4.045 -1.4122 -3.0726 -2.4675
 7381TIP3    H243635   3.884   0.883   4.067  0.9969  1.9465  1.0964
 7382TIP3   OH243636   0.082   1.915   3.048  0.1563 -0.3033  0.1869
 7382TIP3    H143637  -0.002   1.945   3.084  0.5435 -0.6750  1.4216
 7382TIP3    H243638   0.098   1.974   2.974 -0.0979  1.2300  1.3052
 7383TIP3   OH243639   3.993   3.031  15.088  0.0566 -0.3478 -0.1747
 7383TIP3    H143640   3.914   3.012  15.139  0.3968  0.3458  0.6457
 7383TIP3    H243641   4.057   3.057  15.154  1.4992 -2.5289 -0.6572
 7384TIP3   OH243642   5.195   5.148   6.500 -0.0122 -0.7782  0.6468
 7384TIP3    H143643   5.124   5.206   6.526  0.4144 -0.5127  1.2381
 7384TIP3    H243644   5.202   5.085   6.572  0.4793 -0.6835  0.6852
 7385TIP3   OH243645   1.047   4.748  14.892  0.4391 -0.2257 -0.1901
 7385TIP3    H143646   1.030   4.825  14.945  0.9174 -1.0533  1.2195
 7385TIP3    H243647   1.142   4.747  14.880  0.5051 -0.8974  0.3096
 7386TIP3   OH243648   1.974   2.226  16.626 -0.0087 -0.1006  0.3199
 7386TIP3    H143649   2.064   2.231  16.658 -0.3246  0.0387  1.2147
 7386TIP3    H243650   1.959   2.309  16.582 -0.2680  0.6356  1.7395
 7387TIP3   OH243651   4.456   1.977   0.226 -0.1335 -0.2087  0.2090
 7387TIP3    H143652   4.501   1.995   0.143 -0.1772 -0.8051  0.0539
 7387TIP3    H243653   4.515   1.918   0.274  1.0713  2.0497  1.6941
 7388TIP3   OH243654   2.963   0.325  11.716 -0.1212  0.0239  0.3323
 7388TIP3    H143655   2.966   0.410  11.672  0.7985  0.7150  1.6521
 7388TIP3    H243656   2.913   0.269  11.657  0.7692  0.9855 -1.4042
 7389TIP3   OH243657   6.817   4.517   4.948 -0.8650  0.4011 -0.0261
 7389TIP3    H143658   6.794   4.606   4.974 -0.1669  0.6403 -0.2138
 7389TIP3    H243659   6.906   4.524   4.915 -0.7009 -0.4241  0.2271
 7390TIP3   OH243660   4.361   2.559   1.973 -0.0213  0.4069 -0.9789
 7390TIP3    H143661   4.270   2.585   1.963 -0.0182  1.2467  0.7420
 7390TIP3    H243662   4.357   2.473   2.015 -0.0405  0.5428 -0.6957
 7391TIP3   OH243663   1.046   4.471   3.892 -0.6260  0.3636 -0.8482
 7391TIP3    H143664   0.972   4.436   3.841 -0.1506  0.0459 -1.3277
 7391TIP3    H243665   1.039   4.566   3.880 -0.8037  0.3221 -1.1119
 7392TIP3   OH243666   1.797   2.913  15.414  0.4492  1.0232 -0.3995
 7392TIP3    H143667   1.872   2.870  15.372  0.2491 -0.4748  0.6945
 7392TIP3    H243668   1.816   3.006  15.407  1.1087  0.7692 -2.4906
 7393TIP3   OH243669   5.758   1.058   3.118 -0.0660  0.1586 -0.1322
 7393TIP3    H143670   5.694   1.076   3.187 -0.9499 -1.1049 -0.5801
 7393TIP3    H243671   5.750   1.132   3.058 -2.3705 -0.7221 -1.0501
 7394TIP3   OH243672   6.652   2.582  14.202 -0.3580  0.3385  0.0985
 7394TIP3    H143673   6.703   2.524  14.258  0.2986 -1.4743 -2.2624
 7394TIP3    H243674   6.562   2.551  14.211 -0.0751 -0.7879 -0.7788
 7395TIP3   OH243675   0.393   1.818   2.383 -0.2600  0.1255  0.3733
 7395TIP3    H143676   0.459   1.755   2.411 -1.1380 -0.6813  0.6630
 7395TIP3    H243677   0.311   1.770   2.385 -0.8991  1.1709  0.2254
 7396TIP3   OH243678   3.631   3.479  12.398 -0.3522  0.2052  0.2121
 7396TIP3    H143679   3.563   3.498  12.333 -0.4302  0.6812  0.4318
 7396TIP3    H243680   3.702   3.440  12.348 -0.5778  0.1886 -0.0974
 7397TIP3   OH243681   0.783   5.866   1.191 -0.0680  0.1141 -0.2616
 7397TIP3    H143682   0.755   5.945   1.145  0.3365  0.1390 -0.4707
 7397TIP3    H243683   0.716   5.851   1.258 -0.4799  0.2689 -0.6404
 7398TIP3   OH243684   3.014   4.089   2.202  0.4286 -0.1303 -0.4366
 7398TIP3    H143685   3.007   4.051   2.114 -0.8519 -0.2588 -0.3027
 7398TIP3    H243686   2.997   4.016   2.261  0.5223  0.1225 -0.0981
 7399TIP3   OH243687   3.241   0.589  11.299 -0.2858  0.2859 -0.3995
 7399TIP3    H143688   3.317   0.571  11.354 -1.2826  1.3058  1.4315
 7399TIP3    H243689   3.167   0.549  11.345 -0.9389 -0.3373 -1.9206
 7400TIP3   OH243690   3.277   1.236   5.652  0.0105 -0.3370  0.0874
 7400TIP3    H143691   3.209   1.170   5.642  1.1956 -1.6841  0.5927
 7400TIP3    H243692   3.316   1.244   5.564  0.8100 -1.4172  0.3156
 7401TIP3   OH243693   6.468   2.758  15.860  0.2427 -0.1863 -0.2561
 7401TIP3    H143694   6.420   2.684  15.896  0.5365 -0.0043  0.5246
 7401TIP3    H243695   6.558   2.727  15.852  0.7998  0.7022  1.9881
 7402TIP3   OH243696   5.605   6.239   6.296 -0.2854 -0.3556 -0.3767
 7402TIP3    H143697   5.622   6.166   6.354  1.2836 -1.7549 -2.4252
 7402TIP3    H243698   5.524   6.216   6.251  0.3588 -1.0491 -1.2300
 7403TIP3   OH243699   4.089   5.645   2.185 -0.4512 -0.6192  0.0406
 7403TIP3    H143700   4.067   5.648   2.278 -0.4954  0.7491  0.0119
 7403TIP3    H243701   4.053   5.726   2.149  0.8766 -0.3976 -0.8651
 7404TIP3   OH243702   0.947   5.774   6.089  0.2636  0.0383 -0.0945
 7404TIP3    H143703   0.896   5.723   6.152  1.2751 -0.3394  0.4281
 7404TIP3    H243704   0.941   5.864   6.121  0.2962 -0.0682  0.2115
 7405TIP3   OH243705   4.884   6.779   5.965  0.6955 -0.0865  0.5266
 7405TIP3    H143706   4.909   6.871   5.975 -1.3573  0.4557  1.2063
 7405TIP3    H243707   4.893   6.742   6.052 -0.5482  0.0697  0.7430
 7406TIP3   OH243708   6.394   3.902   1.491 -0.1580 -0.3960 -0.2476
 7406TIP3    H143709   6.321   3.956   1.462 -0.8553  1.1253  3.8240
 7406TIP3    H243710   6.357   3.814   1.501 -0.9287 -0.0415  0.0186
 7407TIP3   OH243711   6.207   3.649   3.426  0.5876 -0.6395  0.2865
 7407TIP3    H143712   6.297   3.648   3.395  0.7527 -0.4120  0.7529
 7407TIP3    H243713   6.165   3.718   3.375  1.0899  0.3645  1.2034
 7408TIP3   OH243714   6.776   6.428  13.113 -0.3786 -0.5152 -0.1971
 7408TIP3    H143715   6.829   6.443  13.191 -1.7417 -1.3522  0.9332
 7408TIP3    H243716   6.839   6.423  13.041  0.8789  0.5674  0.7868
 7409TIP3   OH243717   3.722   2.275  16.297  0.0302 -0.0585 -0.6805
 7409TIP3    H143718   3.791   2.256  16.234 -0.9852  0.3886 -1.9789
 7409TIP3    H243719   3.661   2.333  16.250 -0.3208  1.0291  1.0011
 7410TIP3   OH243720   6.073   6.706  12.306 -0.0334  0.3713  0.2145
 7410TIP3    H143721   6.073   6.612  12.286  0.3740 -0.1065  2.2244
 7410TIP3    H243722   5.982   6.725  12.326 -0.4179  0.8204 -1.7756
 7411TIP3   OH243723   3.170   2.798   2.229  0.3938 -0.7780  0.2737
 7411TIP3    H143724   3.239   2.827   2.288  0.2026  0.4381 -0.0863
 7411TIP3    H243725   3.111   2.746   2.284 -0.1503  0.8878  1.3460
 7412TIP3   OH243726   4.554   5.632  16.157  0.1718 -0.4799 -0.0254
 7412TIP3    H143727   4.498   5.587  16.220  0.8006 -0.1085  0.8179
 7412TIP3    H243728   4.587   5.562  16.100  0.9810 -1.0879  1.1501
 7413TIP3   OH243729   1.374   0.639   4.901  0.4584  0.1812  0.0792
 7413TIP3    H143730   1.296   0.681   4.865 -0.3395 -0.9033  0.4672
 7413TIP3    H243731   1.340   0.559   4.943  1.6438  0.2447  1.2000
 7414TIP3   OH243732   1.485   2.418  14.966  0.3004 -0.6973 -0.3466
 7414TIP3    H143733   1.517   2.497  15.010 -0.8175 -0.2126 -0.3714
 7414TIP3    H243734   1.536   2.414  14.885  0.8219 -0.3684 -0.0452
 7415TIP3   OH243735   3.199   1.800   1.719  0.0736  0.8508 -0.3530
 7415TIP3    H143736   3.128   1.862   1.701 -0.1979  0.2495 -1.4093
 7415TIP3    H243737   3.239   1.784   1.634  0.6654  0.2050  0.0417
 7416TIP3   OH243738   3.478   1.470   2.818  0.0796 -0.3172  0.3094
 7416TIP3    H143739   3.445   1.515   2.740  0.3486  0.7969  0.8151
 7416TIP3    H243740   3.494   1.380   2.789  1.9380  0.4833 -1.4550
 7417TIP3   OH243741   1.983   0.548   3.979 -0.3084 -0.9949 -0.5522
 7417TIP3    H143742   1.900   0.501   3.971  0.2095 -1.7689 -1.5720
 7417TIP3    H243743   1.958   0.640   3.981 -1.2282 -1.2388 -0.2362
 7418TIP3   OH243744   4.817   6.274  16.783  0.1969 -0.3716  0.4232
 7418TIP3    H143745   4.742   6.282  16.724 -0.4749  0.8296  1.3797
 7418TIP3    H243746   4.856   6.362  16.782  0.1307 -0.3193  1.8015
 7419TIP3   OH243747   5.383   4.019  13.847 -0.4267  0.4878  0.0048
 7419TIP3    H143748   5.431   4.084  13.897 -1.0028  0.9445 -0.0305
 7419TIP3    H243749   5.399   4.042  13.755 -0.3343  0.3537 -0.0153
 7420TIP3   OH243750   5.369   5.916   2.928 -0.2868  0.4217  0.4685
 7420TIP3    H143751   5.355   5.983   2.861  1.8778 -0.4573 -0.9690
 7420TIP3    H243752   5.462   5.894   2.921  0.8359  2.0985  5.5217
 7421TIP3   OH243753   1.400   0.409   0.633  0.1733 -0.4043 -0.2009
 7421TIP3    H143754   1.351   0.327   0.632 -2.1947  0.8588 -2.9681
 7421TIP3    H243755   1.347   0.469   0.580  2.5192  2.4971  0.4828
 7422TIP3   OH243756   4.445   3.164  11.532  0.3871 -0.0766  0.3335
 7422TIP3    H143757   4.503   3.153  11.457 -1.2850 -3.2709 -0.6965
 7422TIP3    H243758   4.480   3.105  11.599 -0.5310 -0.5459  0.4182
 7423TIP3   OH243759   0.340   0.787   5.216 -0.3382  0.2042 -0.1412
 7423TIP3    H143760   0.268   0.729   5.240  1.6747 -1.9661  1.0697
 7423TIP3    H243761   0.319   0.871   5.258 -0.9042 -1.1718  2.5055
 7424TIP3   OH243762   5.067   6.025   3.570  0.0387 -0.2524  0.6613
 7424TIP3    H143763   5.086   6.112   3.535  2.2747 -0.5092  1.0999
 7424TIP3    H243764   5.001   5.989   3.510  0.8323  0.8419 -0.9548
 7425TIP3   OH243765   5.553   5.071   2.213 -0.0020 -0.4370  0.6050
 7425TIP3    H143766   5.584   5.119   2.136  0.8796 -2.2683 -0.2286
 7425TIP3    H243767   5.460   5.057   2.196 -0.0134 -0.0478  0.3187
 7426TIP3   OH243768   4.633   2.201   4.453 -0.3868 -0.1656  0.0658
 7426TIP3    H143769   4.539   2.180   4.458 -0.5166  0.3758  0.0040
 7426TIP3    H243770   4.652   2.243   4.537  0.1167 -1.4792  0.6246
 7427TIP3   OH243771   6.622   0.692   4.917 -0.0462  0.2493 -0.2910
 7427TIP3    H143772   6.546   0.704   4.973  0.5968  0.2200  0.5993
 7427TIP3    H243773   6.634   0.777   4.875 -0.8615  0.1125 -0.8308
 7428TIP3   OH243774   5.063   4.511  15.649  0.1138  0.3747  0.5899
 7428TIP3    H143775   5.146   4.483  15.689  1.5024  2.1967 -0.8623
 7428TIP3    H243776   5.083   4.520  15.556 -1.3685  2.0506  0.3860
 7429TIP3   OH243777   0.940   0.837  11.025 -0.3645 -0.0473 -0.1651
 7429TIP3    H143778   1.034   0.837  11.043 -0.4236  0.0113  0.1469
 7429TIP3    H243779   0.934   0.843  10.930 -0.0674  0.9989 -0.1231
 7430TIP3   OH243780   2.070   1.815  11.693 -0.3521 -0.1837  0.8669
 7430TIP3    H143781   1.984   1.809  11.734  0.1413 -1.2252  1.8033
 7430TIP3    H243782   2.131   1.826  11.766  0.6366 -2.9147  0.5719
 7431TIP3   OH243783   2.084   2.476   2.861  0.3606  0.1169  0.3823
 7431TIP3    H143784   2.028   2.542   2.901  0.2115 -1.0100  2.1251
 7431TIP3    H243785   2.173   2.503   2.883  0.3786  0.4271 -0.0470
 7432TIP3   OH243786   6.479   0.189   3.306  0.8055  0.7180 -0.8574
 7432TIP3    H143787   6.490   0.094   3.315 -0.5162  0.6561  0.5390
 7432TIP3    H243788   6.500   0.224   3.393  0.2129  1.5690 -1.0392
 7433TIP3   OH243789   1.141   3.527   5.394  0.1318  0.2734 -0.0046
 7433TIP3    H143790   1.205   3.477   5.444  0.4031  0.9140  0.2858
 7433TIP3    H243791   1.057   3.487   5.417  0.4090 -0.5676 -0.3880
 7434TIP3   OH243792   0.706   5.723   0.835  0.1170 -1.1569  0.4013
 7434TIP3    H143793   0.680   5.740   0.744  1.6183  0.0634  0.1598
 7434TIP3    H243794   0.738   5.807   0.867  0.5340 -1.8062  1.7520
 7435TIP3   OH243795   6.539   0.343   2.699  0.0842  0.3022 -0.7898
 7435TIP3    H143796   6.626   0.380   2.685 -0.3221  0.9316 -1.7317
 7435TIP3    H243797   6.533   0.271   2.637 -0.4985  1.0134 -1.5779
 7436TIP3   OH243798   0.825   3.476  15.002  0.1307 -0.3405 -0.1724
 7436TIP3    H143799   0.827   3.381  15.016  0.4722 -0.7137 -2.3184
 7436TIP3    H243800   0.813   3.486  14.908 -0.8354  1.7804  0.1106
 7437TIP3   OH243801   6.577   3.660  15.301  0.1487  0.4992  0.0469
 7437TIP3    H143802   6.606   3.577  15.340 -0.1786  0.6059  0.5185
 7437TIP3    H243803   6.533   3.706  15.372 -0.9900  0.4388 -0.6017
 7438TIP3   OH243804   4.306   6.575   4.139 -0.0592  0.0674  0.0771
 7438TIP3    H143805   4.375   6.549   4.078  0.3131  1.7508 -0.2688
 7438TIP3    H243806   4.346   6.567   4.226  0.9138  1.8736 -0.1644
 7439TIP3   OH243807   0.521   6.298  11.003  0.4363 -0.0953 -0.4470
 7439TIP3    H143808   0.502   6.254  11.086  1.0969  1.0982  0.3568
 7439TIP3    H243809   0.443   6.350  10.985  0.9747  1.0150  0.3489
 7440TIP3   OH243810   0.801   3.113   3.981 -0.2714 -0.2900 -0.5754
 7440TIP3    H143811   0.716   3.128   3.939 -1.1832 -1.4411  0.7295
 7440TIP3    H243812   0.816   3.019   3.972  0.7863 -0.1285 -0.6221
 7441TIP3   OH243813   0.828   3.125   6.361 -0.3204  0.1023  0.5989
 7441TIP3    H143814   0.842   3.141   6.454 -0.0023  1.1239  0.3807
 7441TIP3    H243815   0.758   3.185   6.336  0.8773  1.2120 -0.2225
 7442TIP3   OH243816   3.836   3.358   3.268 -0.1502 -0.0641 -0.5402
 7442TIP3    H143817   3.749   3.345   3.231 -0.9831  1.4948  0.7436
 7442TIP3    H243818   3.854   3.278   3.319 -0.7080 -0.4994 -1.0247
 7443TIP3   OH243819   0.416   6.720  11.436  0.5986 -0.1138 -0.2102
 7443TIP3    H143820   0.367   6.689  11.512  0.9023  1.5500  0.6984
 7443TIP3    H243821   0.496   6.667  11.436 -0.1424 -1.2820 -0.3903
 7444TIP3   OH243822   6.067   2.002  10.414  0.2890 -0.8167 -0.3904
 7444TIP3    H143823   6.112   2.075  10.373 -2.1905  0.8817 -0.3056
 7444TIP3    H243824   6.108   1.993  10.500  1.2666 -0.1868 -0.7775
 7445TIP3   OH243825   0.823   2.397  13.472 -0.2640 -0.0113  0.3248
 7445TIP3    H143826   0.806   2.304  13.460 -1.2563  0.0298  1.3258
 7445TIP3    H243827   0.865   2.403  13.558 -0.7204  0.5146  0.5160
 7446TIP3   OH243828   4.194   3.668  13.724  0.7968 -0.7410  0.5007
 7446TIP3    H143829   4.274   3.713  13.750  1.8720 -1.6894 -0.9374
 7446TIP3    H243830   4.223   3.578  13.707 -0.4100 -0.9157 -0.7955
 7447TIP3   OH243831   2.396   3.747  16.082 -0.3321  0.1399  0.0196
 7447TIP3    H143832   2.452   3.812  16.125 -1.9762  1.8622 -0.3227
 7447TIP3    H243833   2.434   3.737  15.994  0.8465 -0.5904  0.5866
 7448TIP3   OH243834   1.658   6.376  14.792  0.4330  0.0183  0.1503
 7448TIP3    H143835   1.716   6.387  14.717 -0.7064  1.4087 -0.5938
 7448TIP3    H243836   1.587   6.438  14.776 -1.0849 -1.3712  1.1845
 7449TIP3   OH243837   1.738   2.097  14.636 -0.3738 -0.0764  0.1303
 7449TIP3    H143838   1.806   2.099  14.570  1.1942 -1.6505  1.5882
 7449TIP3    H243839   1.708   2.188  14.643  0.9245  0.4921 -1.1717
 7450TIP3   OH243840   5.408   6.589   3.368 -0.0469 -0.3962  0.1360
 7450TIP3    H143841   5.430   6.576   3.460 -1.5888 -2.1154  0.3190
 7450TIP3    H243842   5.334   6.530   3.352 -1.0162  1.1807 -1.7367
 7451TIP3   OH243843   1.834   4.375  12.975  0.0496  0.3534 -0.4029
 7451TIP3    H143844   1.903   4.309  12.980 -1.3695 -1.0953  1.4013
 7451TIP3    H243845   1.878   4.457  12.998  1.4872 -0.2333 -0.9559
 7452TIP3   OH243846   3.115   0.978  11.913 -0.3824 -0.3479 -0.3685
 7452TIP3    H143847   3.198   1.007  11.874  0.1937 -1.3761  0.0631
 7452TIP3    H243848   3.116   0.883  11.902 -0.9882 -0.4778  0.6464
 7453TIP3   OH243849   1.065   2.779  16.986  0.0630 -0.1741 -0.4093
 7453TIP3    H143850   1.148   2.734  17.004 -0.4199 -1.3243 -0.9757
 7453TIP3    H243851   1.046   2.825  17.068  0.5256 -1.0919  0.2489
 7454TIP3   OH243852   6.146   1.999  14.820 -0.0508  0.0379 -0.4484
 7454TIP3    H143853   6.194   1.933  14.870 -0.3952 -1.5240 -2.0877
 7454TIP3    H243854   6.090   1.949  14.761  0.6217  1.7620 -2.7004
 7455TIP3   OH243855   2.449   1.899  11.161  0.3543 -0.3009 -0.1179
 7455TIP3    H143856   2.392   1.947  11.101 -0.0531 -0.5152  0.0927
 7455TIP3    H243857   2.475   1.821  11.113 -0.0233 -0.5039  0.0027
 7456TIP3   OH243858   3.145   3.988  15.342  0.1676 -0.0470 -0.5066
 7456TIP3    H143859   3.163   4.019  15.254 -0.0455  0.3666 -0.4064
 7456TIP3    H243860   3.071   4.040  15.372 -0.3771 -0.8381 -0.4335
 7457TIP3   OH243861   5.420   2.024   1.826  0.1426  0.7253  0.4907
 7457TIP3    H143862   5.420   2.104   1.879  0.6890  0.8559  0.2978
 7457TIP3    H243863   5.472   1.962   1.876  1.1604  1.0374 -0.1664
 7458TIP3   OH243864   2.678   3.787   3.960  0.3932 -0.3906  0.4569
 7458TIP3    H143865   2.624   3.837   3.899  0.2596 -0.8226  0.2171
 7458TIP3    H243866   2.624   3.711   3.984  0.4941 -0.2878  1.0146
 7459TIP3   OH243867   4.033   5.995  14.915  0.0471  0.3455 -0.1610
 7459TIP3    H143868   4.037   6.021  14.823  0.2378 -0.8290 -0.5097
 7459TIP3    H243869   3.994   6.070  14.960 -0.6062  0.7072 -1.2924
 7460TIP3   OH243870   0.448   2.727  15.352 -0.0881  0.0253  0.0000
 7460TIP3    H143871   0.423   2.635  15.362 -0.5925  0.0502 -0.9489
 7460TIP3    H243872   0.387   2.762  15.287  0.8537  0.7286 -0.5287
 7461TIP3   OH243873   6.768   0.825   3.141 -0.2131 -0.7514 -0.0001
 7461TIP3    H143874   6.677   0.798   3.147 -0.1370 -0.9661  0.2036
 7461TIP3    H243875   6.816   0.761   3.195  0.2421 -1.5473 -1.2913
 7462TIP3   OH243876   3.563   4.196   6.711 -0.1782  0.3577 -0.5614
 7462TIP3    H143877   3.551   4.115   6.761 -0.4689  0.6423 -0.1569
 7462TIP3    H243878   3.649   4.187   6.670  0.3698  0.3891  0.5285
 7463TIP3   OH243879   0.556   2.273   5.272 -0.3896 -0.3372  0.5703
 7463TIP3    H143880   0.588   2.350   5.321 -1.1151 -0.6757  1.6160
 7463TIP3    H243881   0.634   2.220   5.258  0.2667  0.9420 -0.8612
 7464TIP3   OH243882   4.585   6.041  15.363 -0.1507 -0.9883 -0.7086
 7464TIP3    H143883   4.644   6.033  15.438 -0.7233  1.2555  0.0739
 7464TIP3    H243884   4.498   6.033  15.401 -0.4186 -1.0173 -1.3261
 7465TIP3   OH243885   6.536   1.947  11.758 -0.2189  0.8545 -0.1000
 7465TIP3    H143886   6.522   1.867  11.807 -2.2617  1.4362  0.3619
 7465TIP3    H243887   6.452   1.965  11.715  0.0896  2.8566  0.0068
 7466TIP3   OH243888   3.691   6.371  11.283  1.0272  0.1712 -0.0076
 7466TIP3    H143889   3.633   6.344  11.211  1.8890  0.0732 -0.6818
 7466TIP3    H243890   3.718   6.289  11.324 -0.4533  0.2653  1.2667
 7467TIP3   OH243891   6.815   4.181  13.886 -0.2174 -0.0002  0.0991
 7467TIP3    H143892   6.785   4.147  13.970 -2.4918  0.1314 -0.5818
 7467TIP3    H243893   6.810   4.276  13.896  1.6074  0.0852  0.4802
 7468TIP3   OH243894   5.183   4.270   1.778  0.1708 -0.3809  0.2958
 7468TIP3    H143895   5.104   4.244   1.825 -0.3833  0.2862 -0.2564
 7468TIP3    H243896   5.159   4.265   1.685  0.4750  0.7600  0.1427
 7469TIP3   OH243897   4.124   0.935  17.202 -0.1963 -0.1119 -0.0505
 7469TIP3    H143898   4.053   0.941  17.139 -0.9190  1.7742  0.8847
 7469TIP3    H243899   4.185   1.005  17.178  0.9942 -1.2036 -0.3601
 7470TIP3   OH243900   0.305   4.913  14.935 -0.0261 -0.0318  0.1258
 7470TIP3    H143901   0.213   4.893  14.920 -0.3422  1.4474  0.0120
 7470TIP3    H243902   0.350   4.881  14.857 -0.1879 -2.1740  0.8330
 7471TIP3   OH243903   4.422   5.155   4.768 -0.4522 -0.3272 -0.1355
 7471TIP3    H143904   4.400   5.072   4.809 -0.0612 -0.2865  0.1598
 7471TIP3    H243905   4.425   5.135   4.674  0.1071 -0.7590 -0.0343
 7472TIP3   OH243906   5.919   6.296  12.441  0.1719 -0.0704  0.5989
 7472TIP3    H143907   5.850   6.334  12.387  0.5782 -0.2217 -0.0387
 7472TIP3    H243908   6.000   6.326  12.400  0.4837 -0.6129  0.8141
 7473TIP3   OH243909   2.911   5.337  16.414  0.1276  0.0713 -0.6480
 7473TIP3    H143910   2.969   5.267  16.445 -0.2260 -0.4424 -1.1377
 7473TIP3    H243911   2.960   5.380  16.344  0.9217  1.2234  0.5555
 7474TIP3   OH243912   1.715   2.598  10.915  0.3328  0.0740 -0.4707
 7474TIP3    H143913   1.639   2.558  10.874 -0.0150 -0.8525  0.9971
 7474TIP3    H243914   1.696   2.692  10.914 -1.6531 -0.2281  1.3352
 7475TIP3   OH243915   0.067   4.298   0.344 -0.1897 -0.0724 -0.3165
 7475TIP3    H143916   0.085   4.384   0.307 -0.0627 -1.0842 -2.7838
 7475TIP3    H243917   0.044   4.243   0.269 -1.8144 -1.8361  1.3435
 7476TIP3   OH243918   2.307   2.038   0.325 -0.0868 -0.5437  0.5587
 7476TIP3    H143919   2.296   2.126   0.359 -0.7248 -0.3179 -0.1956
 7476TIP3    H243920   2.218   2.005   0.313  0.0930 -0.5634 -0.9477
 7477TIP3   OH243921   1.486   5.088   4.812 -0.2899 -0.2131  0.3439
 7477TIP3    H143922   1.563   5.144   4.814  1.8943 -2.9514 -0.9685
 7477TIP3    H243923   1.484   5.045   4.898  0.4102 -1.0441 -0.0436
 7478TIP3   OH243924   1.150   4.045   0.148 -0.8247 -0.1252  0.1469
 7478TIP3    H143925   1.201   4.124   0.169 -0.5924 -0.7657  2.2336
 7478TIP3    H243926   1.214   3.982   0.116  0.1265 -1.4004  4.0522
 7479TIP3   OH243927   0.015   2.948  12.580 -0.0326 -0.2014 -0.1655
 7479TIP3    H143928   0.062   2.969  12.660 -2.9028 -0.4212  1.7452
 7479TIP3    H243929   0.066   2.878  12.539  0.1576 -2.0879  2.9832
 7480TIP3   OH243930   0.837   3.963   2.415  0.3259 -0.2137  0.5672
 7480TIP3    H143931   0.882   4.045   2.396  0.1328  0.0516  1.2010
 7480TIP3    H243932   0.787   3.982   2.495 -0.0038 -0.8406  0.5131
 7481TIP3   OH243933   2.416   4.964   0.914 -0.1286 -0.2701 -0.3496
 7481TIP3    H143934   2.421   4.982   0.820  0.5348  1.2526 -0.0492
 7481TIP3    H243935   2.330   4.923   0.926 -0.8041  0.7848 -1.4191
 7482TIP3   OH243936   1.086   2.691   2.965 -0.2523 -0.4348  0.1599
 7482TIP3    H143937   1.034   2.755   2.915 -0.6944 -1.2716 -0.4808
 7482TIP3    H243938   1.022   2.626   2.993  0.2174 -0.6631  0.7046
 7483TIP3   OH243939   4.110   1.622  11.390 -0.1833 -0.1871 -0.1042
 7483TIP3    H143940   4.117   1.538  11.436 -0.2135 -0.5079 -0.6857
 7483TIP3    H243941   4.018   1.647  11.401 -0.0844 -0.0215  0.4163
 7484TIP3   OH243942   6.001   5.025   1.650 -0.1775  0.2340 -0.3778
 7484TIP3    H143943   6.072   5.041   1.712  0.6142  0.7806 -1.4044
 7484TIP3    H243944   5.941   4.967   1.698  1.5461 -1.2446  0.1049
 7485TIP3   OH243945   5.651   1.438   3.295  1.1796  0.0156 -0.7048
 7485TIP3    H143946   5.563   1.465   3.268  0.9414 -0.1910 -0.1619
 7485TIP3    H243947   5.683   1.509   3.349  1.1158 -0.1625 -0.4314
 7486TIP3   OH243948   2.588   5.867   5.013  0.4035 -0.6358 -0.4865
 7486TIP3    H143949   2.632   5.798   5.062  0.3455  0.0393  0.5593
 7486TIP3    H243950   2.656   5.905   4.958  0.0049 -2.8622 -2.7140
 7487TIP3   OH243951   0.120   0.949   5.918 -0.6903  0.0174  0.3250
 7487TIP3    H143952   0.111   1.014   5.849 -0.2215 -0.5441 -0.2750
 7487TIP3    H243953   0.071   0.985   5.992 -0.4657  1.0361 -0.0052
 7488TIP3   OH243954   1.174   5.433   3.109  0.4658  0.1061 -0.1385
 7488TIP3    H143955   1.111   5.501   3.083 -0.0935 -0.1077  0.6429
 7488TIP3    H243956   1.176   5.374   3.034 -0.0109  0.3013 -0.3130
 7489TIP3   OH243957   0.696   5.467  15.139 -0.6139  0.2598  1.1786
 7489TIP3    H143958   0.631   5.423  15.084 -2.2539  2.0782  1.5623
 7489TIP3    H243959   0.777   5.463  15.088 -1.6358  0.2588 -0.5232
 7490TIP3   OH243960   1.812   0.350   3.878  0.0933  0.1450  0.4877
 7490TIP3    H143961   1.821   0.354   3.783  2.8996  2.7601  0.6881
 7490TIP3    H243962   1.869   0.277   3.904  0.0135 -0.0229  0.1907
 7491TIP3   OH243963   4.251   0.436  14.012 -0.7261 -0.4186  0.4718
 7491TIP3    H143964   4.303   0.466  13.938 -2.1507  0.1984 -0.3222
 7491TIP3    H243965   4.256   0.341  14.008 -1.4461 -0.4191 -0.9374
 7492TIP3   OH243966   1.920   4.385   3.116 -0.0066 -0.1175 -0.2803
 7492TIP3    H143967   1.914   4.297   3.078  0.5858 -0.5949  0.6853
 7492TIP3    H243968   1.879   4.376   3.202  0.4063  0.4511 -0.0202
 7493TIP3   OH243969   5.885   4.423  14.011 -1.0665  0.5303 -0.5117
 7493TIP3    H143970   5.932   4.506  14.015  0.6329 -0.4560  1.4699
 7493TIP3    H243971   5.890   4.387  14.099 -1.0613 -2.0471 -1.4625
 7494TIP3   OH243972   6.505   0.492  14.579 -0.1753 -0.3638 -0.1290
 7494TIP3    H143973   6.527   0.455  14.665  0.2821  0.0752 -0.0520
 7494TIP3    H243974   6.572   0.558  14.564 -1.7840  1.5022  0.4119
 7495TIP3   OH243975   5.839   0.364  15.803  0.0601 -0.3613  0.6525
 7495TIP3    H143976   5.785   0.287  15.786  1.0434 -1.7645  3.2914
 7495TIP3    H243977   5.921   0.346  15.757 -0.5561  0.2561 -0.7059
 7496TIP3   OH243978   0.353   3.734  15.048 -0.1074  0.0181  0.4992
 7496TIP3    H143979   0.432   3.748  14.996  0.3574 -1.1169  0.8777
 7496TIP3    H243980   0.288   3.704  14.985  0.4228 -1.2491  0.5363
 7497TIP3   OH243981   5.401   5.189   4.890 -0.0625 -0.5541  0.5826
 7497TIP3    H143982   5.485   5.232   4.871 -0.5764  0.5749  0.8269
 7497TIP3    H243983   5.425   5.097   4.905  0.8658 -0.7514 -1.6170
 7498TIP3   OH243984   6.661   0.715   4.266 -0.4372 -0.3393  0.9643
 7498TIP3    H143985   6.734   0.704   4.327  1.1425  0.1806 -0.7635
 7498TIP3    H243986   6.701   0.745   4.185 -2.5711 -0.1855 -0.1068
 7499TIP3   OH243987   4.399   4.876  13.277  0.3352  0.1662 -0.0809
 7499TIP3    H143988   4.483   4.880  13.230  0.7253  0.2216  0.5977
 7499TIP3    H243989   4.424   4.879  13.370 -0.4922  1.4728  0.1218
 7500TIP3   OH243990   3.966   5.447   5.151  0.6016 -0.1439 -0.1582
 7500TIP3    H143991   4.030   5.459   5.221 -0.9320  0.5387  1.1949
 7500TIP3    H243992   3.886   5.486   5.185 -0.0495  0.7842 -2.5581
 7501TIP3   OH243993   6.662   5.145  11.569  0.2738 -0.5007  0.0203
 7501TIP3    H143994   6.584   5.198  11.553  0.5599 -0.6475 -2.1978
 7501TIP3    H243995   6.628   5.062  11.602 -0.3161  0.2599  1.4042
 7502TIP3   OH243996   0.337   1.097  11.937 -0.8309 -0.2364 -0.2071
 7502TIP3    H143997   0.253   1.134  11.912 -0.5649 -0.2727 -1.1899
 7502TIP3    H243998   0.392   1.104  11.858  0.1084 -0.1565  0.4290
 7503TIP3   OH243999   3.452   3.279   1.324  0.1621  0.0770 -0.7048
 7503TIP3    H144000   3.428   3.370   1.311  0.7767  0.5684  1.3183
 7503TIP3    H244001   3.542   3.273   1.291  0.3452  0.3637 -0.2626
 7504TIP3   OH244002   4.661   0.506  15.020  0.5787 -0.0201  0.1477
 7504TIP3    H144003   4.667   0.519  15.115 -0.8495  0.5962  0.1803
 7504TIP3    H244004   4.695   0.587  14.983  1.1030 -0.2470  0.1175
 7505TIP3   OH244005   3.667   3.306   2.756  0.1080 -0.3402 -0.5840
 7505TIP3    H144006   3.740   3.246   2.771  0.0628 -1.0231 -2.8144
 7505TIP3    H244007   3.667   3.363   2.833  2.8804 -0.4263 -0.4249
 7506TIP3   OH244008   0.522   4.267  12.904 -0.4992  0.0099 -0.1409
 7506TIP3    H144009   0.584   4.332  12.938  0.2203 -0.2836 -0.8444
 7506TIP3    H244010   0.438   4.290  12.944  0.0063  0.5879  0.6174
 7507TIP3   OH244011   2.387   0.434   1.636  0.1799  0.0477  0.6176
 7507TIP3    H144012   2.325   0.370   1.603 -0.1559  0.9102 -0.4716
 7507TIP3    H244013   2.334   0.493   1.689  0.6986 -1.2778  2.7354
 7508TIP3   OH244014   5.189   6.313   5.751 -0.0987 -0.2695 -0.2352
 7508TIP3    H144015   5.153   6.304   5.839 -0.2178  0.0194 -0.2558
 7508TIP3    H244016   5.281   6.336   5.765 -0.7726  2.7156 -0.1555
 7509TIP3   OH244017   5.522   6.293   4.980  0.0943  0.7861  0.4486
 7509TIP3    H144018   5.611   6.329   4.972 -0.0660  0.9793 -0.4638
 7509TIP3    H244019   5.466   6.370   4.990  0.1132  0.6304  2.0022
 7510TIP3   OH244020   2.362   5.812   6.116  0.2349  0.0250  0.7744
 7510TIP3    H144021   2.289   5.755   6.090 -0.3761  1.1291  0.0052
 7510TIP3    H244022   2.439   5.769   6.080 -0.2907  0.0288 -0.4115
 7511TIP3   OH244023   4.471   3.619   0.627  0.3740 -0.4690  0.1160
 7511TIP3    H144024   4.411   3.573   0.568  0.5373 -0.0425 -0.3888
 7511TIP3    H244025   4.417   3.644   0.702  0.2653 -1.4128  0.3628
 7512TIP3   OH244026   2.791   3.365   0.972 -0.1801  0.1013  0.1170
 7512TIP3    H144027   2.795   3.271   0.986 -1.3617  0.1104  0.5924
 7512TIP3    H244028   2.870   3.398   1.016  0.2373 -0.6565 -0.0460
 7513TIP3   OH244029   1.124   4.437   4.664 -0.4778  0.4315  0.1118
 7513TIP3    H144030   1.065   4.507   4.693  0.5541  2.5502 -2.3979
 7513TIP3    H244031   1.137   4.454   4.570  4.1576  0.3043  0.4535
 7514TIP3   OH244032   0.763   4.840  11.458  0.3114  0.4686 -0.6402
 7514TIP3    H144033   0.753   4.859  11.551  0.3964  1.4647 -0.8156
 7514TIP3    H244034   0.674   4.827  11.427  0.4173 -2.4099  0.0415
 7515TIP3   OH244035   6.609   4.619  12.567 -0.7227 -0.3072  0.0817
 7515TIP3    H144036   6.555   4.559  12.516 -0.7449  0.4142 -0.7646
 7515TIP3    H244037   6.665   4.662  12.503 -0.4193  0.2830  0.7234
 7516TIP3   OH244038   3.932   6.650   3.206 -0.1616 -0.0424 -0.1257
 7516TIP3    H144039   4.018   6.666   3.244 -1.7319  1.2180  3.2454
 7516TIP3    H244040   3.905   6.735   3.171 -0.2909 -0.3056 -0.6775
 7517TIP3   OH244041   4.592   3.213  11.310  0.8348 -0.5243  0.6329
 7517TIP3    H144042   4.540   3.169  11.244  2.7936 -1.3978 -0.4003
 7517TIP3    H244043   4.683   3.189  11.290  1.6053  0.3183  2.7925
 7518TIP3   OH244044   2.579   1.123   6.240 -0.2428 -0.1172  0.1196
 7518TIP3    H144045   2.548   1.032   6.238 -0.1631 -0.1485  0.2586
 7518TIP3    H244046   2.630   1.129   6.321 -1.2262  0.3828  0.7148
 7519TIP3   OH244047   1.212   2.847  12.977  0.6820  0.0678  0.1424
 7519TIP3    H144048   1.272   2.773  12.980 -1.3790 -1.8029 -1.1934
 7519TIP3    H244049   1.169   2.846  13.063  1.1968  0.2031  0.4035
 7520TIP3   OH244050   3.337   5.360  11.253 -0.3544 -0.3601 -0.1845
 7520TIP3    H144051   3.271   5.419  11.217 -0.0075  0.6060  0.6960
 7520TIP3    H244052   3.397   5.417  11.300 -0.6471 -1.5055  1.7026
 7521TIP3   OH244053   1.530   4.083  16.196 -0.2427 -0.1552 -0.1650
 7521TIP3    H144054   1.461   4.024  16.229 -0.3667 -0.2691 -0.6151
 7521TIP3    H244055   1.564   4.038  16.118  1.0711 -0.6070  0.6367
 7522TIP3   OH244056   1.588   1.222  15.087 -0.0162 -0.3147  0.7018
 7522TIP3    H144057   1.672   1.177  15.089 -1.6889 -3.7380  0.6855
 7522TIP3    H244058   1.584   1.260  14.999  1.7292  0.5087  0.9321
 7523TIP3   OH244059   4.120   0.729  13.199 -0.0782  0.6178  0.0712
 7523TIP3    H144060   4.122   0.824  13.209  0.0743  0.3300  3.9332
 7523TIP3    H244061   4.111   0.695  13.288 -4.5761 -2.9318 -1.3448
 7524TIP3   OH244062   5.574   0.415  16.593  0.0276 -0.2530 -0.2162
 7524TIP3    H144063   5.604   0.430  16.504  1.0622  1.8031  0.4258
 7524TIP3    H244064   5.509   0.483  16.608  1.0328  0.4685  1.0935
 7525TIP3   OH244065   1.965   2.373   3.669 -0.1537 -0.1840  0.0576
 7525TIP3    H144066   1.934   2.464   3.672  0.0557 -0.0074 -2.1201
 7525TIP3    H244067   1.913   2.332   3.600 -1.2299 -2.1678  1.9152
 7526TIP3   OH244068   5.126   2.333  11.910 -0.0472 -0.2529 -0.2175
 7526TIP3    H144069   5.162   2.255  11.868 -1.7585 -1.2528  0.0419
 7526TIP3    H244070   5.164   2.333  11.998 -0.7072 -1.3512  0.0910
 7527TIP3   OH244071   2.998   3.886   4.805 -0.0232  0.2991  0.0314
 7527TIP3    H144072   3.089   3.891   4.775 -0.0671 -0.3663 -0.2177
 7527TIP3    H244073   2.946   3.890   4.725 -0.2355  1.1219  0.2028
 7528TIP3   OH244074   4.538   6.645  13.643  1.1349  0.2323 -0.4293
 7528TIP3    H144075   4.518   6.727  13.690  1.1717 -0.1428  0.2542
 7528TIP3    H244076   4.532   6.577  13.710  2.3409 -0.1784 -0.7157
 7529TIP3   OH244077   5.010   3.116   5.646  0.4552  0.1664  0.5460
 7529TIP3    H144078   5.030   3.048   5.711 -0.5073 -1.5357 -0.8310
 7529TIP3    H244079   4.914   3.120   5.645  0.5069  1.8849  0.8898
 7530TIP3   OH244080   2.189   1.120  10.878 -0.4651 -0.0719  0.6697
 7530TIP3    H144081   2.163   1.210  10.857 -1.0495 -0.1865  0.8981
 7530TIP3    H244082   2.280   1.129  10.909  0.8185 -0.0156 -2.7103
 7531TIP3   OH244083   2.524   3.647  13.510  0.2877 -0.2545 -0.0381
 7531TIP3    H144084   2.615   3.649  13.481  0.4004  1.8001  0.3230
 7531TIP3    H244085   2.522   3.701  13.589 -0.9288 -1.7815  1.0326
 7532TIP3   OH244086   6.382   3.181  10.470 -0.2248 -0.1298 -0.4401
 7532TIP3    H144087   6.302   3.163  10.421 -0.3704 -0.0405 -0.2377
 7532TIP3    H244088   6.387   3.110  10.533 -0.0651 -0.2166 -0.5514
 7533TIP3   OH244089   3.064   3.265   4.944  0.2786 -0.3953 -0.0193
 7533TIP3    H144090   3.057   3.314   5.026  0.4198 -2.2139  1.1440
 7533TIP3    H244091   2.975   3.235   4.926  0.1034  0.6608 -0.9910
 7534TIP3   OH244092   3.840   6.622  13.713 -0.1983 -0.5217 -0.1064
 7534TIP3    H144093   3.853   6.681  13.638 -0.1902 -0.5207 -0.1039
 7534TIP3    H244094   3.841   6.680  13.789 -3.7596  0.0393 -0.2955
 7535TIP3   OH244095   5.685   5.620  13.192  0.5782 -0.0844 -0.0837
 7535TIP3    H144096   5.627   5.693  13.167 -0.3549 -0.2320  1.5321
 7535TIP3    H244097   5.628   5.560  13.239  1.4509 -1.6710 -0.9832
 7536TIP3   OH244098   1.109   4.507  16.198  0.1856 -0.4134 -0.3856
 7536TIP3    H144099   1.161   4.563  16.140 -1.5120  0.0843 -1.5066
 7536TIP3    H244100   1.046   4.567  16.239 -0.8409 -1.2750 -0.6416
 7537TIP3   OH244101   3.050   5.338  11.040 -0.3718  0.3309  0.4061
 7537TIP3    H144102   3.077   5.428  11.057 -0.1826  0.3715 -0.1157
 7537TIP3    H244103   2.995   5.343  10.962  0.0800 -0.0745  0.0526
 7538TIP3   OH244104   4.919   4.380   5.893 -0.3975  0.7815 -0.3002
 7538TIP3    H144105   4.993   4.440   5.895 -0.3853  0.7630 -0.1399
 7538TIP3    H244106   4.852   4.423   5.946 -0.0219  0.1830  0.6857
 7539TIP3   OH244107   2.668   4.893   2.094  0.3443  0.3384 -0.4170
 7539TIP3    H144108   2.608   4.895   2.019  0.8238 -0.7766 -0.8496
 7539TIP3    H244109   2.723   4.971   2.083 -0.5231  0.9620 -0.4241
 7540TIP3   OH244110   0.214   0.384   4.073 -0.1003  0.8908 -0.1408
 7540TIP3    H144111   0.281   0.319   4.053 -0.3896  1.0228 -1.7361
 7540TIP3    H244112   0.133   0.334   4.081  0.2011  0.6784  2.2235
 7541TIP3   OH244113   5.905   4.218  15.227 -0.3378  0.4463  0.2140
 7541TIP3    H144114   5.963   4.260  15.290 -0.5064  1.2446 -0.1571
 7541TIP3    H244115   5.960   4.151  15.185 -0.1571  0.0816  1.0132
 7542TIP3   OH244116   2.464   1.952   4.736  0.0770  0.3808 -0.1437
 7542TIP3    H144117   2.435   1.903   4.813  1.1420  0.6112  0.4361
 7542TIP3    H244118   2.408   2.029   4.733  0.2452  0.5387  0.6085
 7543TIP3   OH244119   6.395   3.332  11.371 -0.1691  0.7380 -0.3771
 7543TIP3    H144120   6.482   3.370  11.384  1.1884 -1.9260 -0.8546
 7543TIP3    H244121   6.359   3.323  11.459  0.8443  0.2009 -0.0029
 7544TIP3   OH244122   6.093   0.457  11.422 -0.7101 -0.2056 -0.4192
 7544TIP3    H144123   6.130   0.462  11.334  1.2957 -0.7704  0.3166
 7544TIP3    H244124   6.167   0.479  11.480 -1.7150 -0.7597  1.1476
 7545TIP3   OH244125   6.212   4.540  15.314  0.8046  0.4973 -0.1599
 7545TIP3    H144126   6.289   4.596  15.320 -0.7542  2.9145 -1.0638
 7545TIP3    H244127   6.153   4.574  15.382 -1.1549  1.7469 -2.3253
 7546TIP3   OH244128   4.454   3.995  13.873 -0.2178 -0.2660  0.1818
 7546TIP3    H144129   4.457   3.937  13.950 -1.4828  0.0298  0.4759
 7546TIP3    H244130   4.404   3.946  13.808  2.6960 -1.4795 -1.3513
 7547TIP3   OH244131   3.264   2.669  13.619 -0.4184 -0.1773  0.0553
 7547TIP3    H144132   3.343   2.675  13.673 -0.2082 -1.1117 -0.1181
 7547TIP3    H244133   3.194   2.704  13.673  0.0966  0.5369  0.2616
 7548TIP3   OH244134   3.930   3.411   1.670  0.2622  0.1230 -0.0624
 7548TIP3    H144135   4.025   3.421   1.659  0.4822 -1.5829  0.0181
 7548TIP3    H244136   3.902   3.492   1.712  1.4851  1.1694 -1.1589
 7549TIP3   OH244137   2.175   1.373  13.723  0.2230 -0.3500 -0.7112
 7549TIP3    H144138   2.116   1.309  13.764  0.8180  0.4824  1.5912
 7549TIP3    H244139   2.174   1.350  13.631 -1.5579 -2.0867 -0.3383
 7550TIP3   OH244140   2.874   4.469   3.610 -0.7759 -0.4547 -0.4278
 7550TIP3    H144141   2.883   4.444   3.702  1.0057  0.5353 -0.2973
 7550TIP3    H244142   2.946   4.529   3.594 -3.1344  2.3503 -1.4866
 7551TIP3   OH244143   5.864   0.504  16.049 -0.2651 -0.2811  0.1034
 7551TIP3    H144144   5.845   0.450  15.973 -2.0771 -0.9397  0.9512
 7551TIP3    H244145   5.956   0.489  16.067 -0.3446 -1.8633 -0.6398
 7552TIP3   OH244146   5.222   2.783   1.640 -0.3954  0.0351 -0.2980
 7552TIP3    H144147   5.274   2.845   1.691 -1.6461 -0.1544  1.2830
 7552TIP3    H244148   5.285   2.721   1.604  0.6614  1.0361 -0.2052
 7553TIP3   OH244149   0.118   2.068  13.563 -0.1206  0.1732  0.3507
 7553TIP3    H144150   0.035   2.114  13.577 -0.2762  0.0055 -0.0085
 7553TIP3    H244151   0.126   2.009  13.638 -1.4889 -1.5218 -0.7414
 7554TIP3   OH244152   2.269   4.953  12.985 -0.2149  0.1020 -0.4894
 7554TIP3    H144153   2.279   4.876  13.041  0.2088 -0.5883 -1.4727
 7554TIP3    H244154   2.175   4.969  12.983 -0.2332  0.1643  0.4315
 7555TIP3   OH244155   3.662   0.647  13.885  0.1932 -0.3526 -0.8149
 7555TIP3    H144156   3.679   0.735  13.919  2.2446 -0.6276 -1.0581
 7555TIP3    H244157   3.729   0.632  13.819 -0.4368 -1.9063 -1.1595
 7556TIP3   OH244158   2.395   2.568  12.636 -0.0166  0.1033  0.0128
 7556TIP3    H144159   2.322   2.615  12.597  0.6476  1.5947  0.4769
 7556TIP3    H244160   2.387   2.585  12.730  0.6137 -0.1461  0.1179
 7557TIP3   OH244161   4.119   3.910  12.358 -0.2804  0.2476 -0.0536
 7557TIP3    H144162   4.154   3.950  12.438  2.2778 -3.0464  0.6765
 7557TIP3    H244163   4.189   3.919  12.294 -1.1328  0.1503 -1.0230
 7558TIP3   OH244164   6.474   2.714   4.654 -0.7064  0.0713 -0.0541
 7558TIP3    H144165   6.443   2.720   4.744  1.7350  1.0967  0.8262
 7558TIP3    H244166   6.532   2.638   4.653  1.2863  1.4930  0.0179
 7559TIP3   OH244167   5.413   1.610  16.380  0.2720 -0.0217  0.7058
 7559TIP3    H144168   5.363   1.554  16.321  0.3175  0.4774  0.1826
 7559TIP3    H244169   5.504   1.582  16.368  0.1191 -1.1013  1.8485
 7560TIP3   OH244170   6.520   5.045   4.038  0.5205 -1.0835  0.1333
 7560TIP3    H144171   6.481   5.085   3.959 -0.6629 -1.9631  0.2380
 7560TIP3    H244172   6.513   5.113   4.105  0.3854 -0.7584 -0.2060
 7561TIP3   OH244173   0.934   6.246  15.953  0.2730  0.0880  0.4277
 7561TIP3    H144174   0.873   6.190  16.000  0.6306  0.3611  1.2375
 7561TIP3    H244175   1.017   6.197  15.952 -0.0042 -0.3852 -0.8753
 7562TIP3   OH244176   6.299   0.680  11.381  0.0660 -0.0125  0.4406
 7562TIP3    H144177   6.388   0.647  11.389 -0.2497 -0.8497  0.5501
 7562TIP3    H244178   6.289   0.699  11.287  0.3073 -0.0447  0.4079
 7563TIP3   OH244179   2.845   2.954  10.921 -0.4218  0.0938  0.2433
 7563TIP3    H144180   2.762   2.974  10.964 -1.0712 -2.2595  0.2150
 7563TIP3    H244181   2.821   2.894  10.850  1.0522  1.1290 -1.2131
 7564TIP3   OH244182   4.445   5.535   0.853  0.5856 -0.2120  0.1907
 7564TIP3    H144183   4.522   5.526   0.909 -0.4361  0.8432  1.8434
 7564TIP3    H244184   4.478   5.576   0.774  1.9193 -0.9119  0.3492
 7565TIP3   OH244185   0.174   1.247   3.090  0.4094 -0.5936  0.1181
 7565TIP3    H144186   0.257   1.239   3.043 -0.1929  0.5970 -1.2268
 7565TIP3    H244187   0.108   1.226   3.024 -0.7945  5.4929 -1.2002
 7566TIP3   OH244188   4.523   6.063  11.839  0.5238  0.3408  0.2270
 7566TIP3    H144189   4.494   6.112  11.763  2.6296 -0.1153 -0.9467
 7566TIP3    H244190   4.578   6.125  11.888  1.7107 -0.2419 -0.3105
 7567TIP3   OH244191   1.006   3.121  15.302  0.0919 -0.1465 -0.3297
 7567TIP3    H144192   1.027   3.189  15.238 -1.7929 -0.3072 -1.1856
 7567TIP3    H244193   1.056   3.146  15.380  2.2487  0.1950 -1.7342
 7568TIP3   OH244194   3.242   5.378   4.864 -0.1159 -0.5742  0.0667
 7568TIP3    H144195   3.221   5.361   4.956  0.7946  0.7202  0.5567
 7568TIP3    H244196   3.326   5.334   4.851  0.9740  1.2395  0.6024
 7569TIP3   OH244197   3.173   6.284   1.770 -0.3124  0.4587  0.0935
 7569TIP3    H144198   3.229   6.286   1.692 -0.0277  1.6650  0.3058
 7569TIP3    H244199   3.084   6.274   1.735 -0.1270  0.2975 -0.3459
 7570TIP3   OH244200   6.780   3.424  16.950  0.3315 -0.2224  0.1564
 7570TIP3    H144201   6.848   3.423  16.883  1.0492  1.8385  0.7837
 7570TIP3    H244202   6.793   3.344  17.000  1.2692 -0.6294 -0.7250
 7571TIP3   OH244203   0.468   1.686  12.704 -0.3926 -0.2893 -0.3844
 7571TIP3    H144204   0.464   1.620  12.635  0.7824 -0.1817 -0.5727
 7571TIP3    H244205   0.559   1.715  12.705 -0.2059 -0.8047  1.7027
 7572TIP3   OH244206   1.789   5.656   0.447 -0.6316 -0.1087 -0.2227
 7572TIP3    H144207   1.827   5.611   0.522 -2.1091  0.9257  1.2250
 7572TIP3    H244208   1.707   5.611   0.431 -0.4398 -0.1643 -1.0666
 7573TIP3   OH244209   6.263   4.289   3.965 -0.1313  0.5890 -0.2561
 7573TIP3    H144210   6.267   4.384   3.977  0.5121  0.3239  2.2030
 7573TIP3    H244211   6.354   4.261   3.965 -0.3366 -0.0909 -0.5962
 7574TIP3   OH244212   5.299   6.563  16.612 -0.0528  0.2416 -0.7369
 7574TIP3    H144213   5.275   6.589  16.522 -0.4564  2.3741 -0.0857
 7574TIP3    H244214   5.383   6.607  16.627 -0.3629  0.5461  0.1661
 7575TIP3   OH244215   5.168   6.058  15.281 -0.5301  0.2709  0.4085
 7575TIP3    H144216   5.168   5.962  15.283  1.7523  0.1649 -0.8075
 7575TIP3    H244217   5.224   6.083  15.354 -1.9515  0.7793  1.3707
 7576TIP3   OH244218   4.571   5.443  13.021  0.1328 -0.3594  0.0838
 7576TIP3    H144219   4.507   5.483  13.078 -1.2772 -0.0429 -1.6377
 7576TIP3    H244220   4.620   5.516  12.983  0.6868 -0.5370  0.4343
 7577TIP3   OH244221   1.768   5.584  13.589  0.4693  0.6778  0.2615
 7577TIP3    H144222   1.676   5.601  13.568 -0.0569  0.1188  1.9327
 7577TIP3    H244223   1.774   5.600  13.683  2.1668  0.9915  0.1244
 7578TIP3   OH244224   4.082   6.583  14.751  0.4812  0.0672 -0.3832
 7578TIP3    H144225   4.107   6.497  14.786  0.7772  1.0979  2.1429
 7578TIP3    H244226   3.986   6.578  14.744  0.2446  0.2253  1.9639
 7579TIP3   OH244227   1.249   6.214  16.706  0.5546 -0.6600  0.6532
 7579TIP3    H144228   1.200   6.180  16.631  0.5360 -1.3369  0.9695
 7579TIP3    H244229   1.234   6.309  16.703 -0.9241 -0.8593  0.8393
 7580TIP3   OH244230   0.838   0.187  10.696  0.0639 -0.1420  0.4224
 7580TIP3    H144231   0.920   0.192  10.648 -1.3517  0.7630 -2.1029
 7580TIP3    H244232   0.821   0.277  10.725  0.5271 -0.5454  2.0297
 7581TIP3   OH244233   0.120   4.570   1.834 -0.2143  0.0279 -0.3619
 7581TIP3    H144234   0.160   4.614   1.908 -0.2376 -0.9239  0.2285
 7581TIP3    H244235   0.137   4.477   1.848 -3.3075 -0.5432  0.3873
 7582TIP3   OH244236   6.586   5.124   2.415  0.5214 -0.3874  0.2922
 7582TIP3    H144237   6.579   5.216   2.441 -0.8867 -0.8026  1.5304
 7582TIP3    H244238   6.634   5.083   2.487  2.0384 -0.4700 -0.7275
 7583TIP3   OH244239   1.325   2.767   3.061  0.0056 -0.1482 -0.5434
 7583TIP3    H144240   1.325   2.726   3.147  0.0839 -0.9200 -0.9065
 7583TIP3    H244241   1.255   2.723   3.013 -1.3275  1.5756 -0.2803
 7584TIP3   OH244242   1.433   0.653  13.817 -0.1242  0.2181  0.4016
 7584TIP3    H144243   1.487   0.574  13.811 -1.7599 -0.8834 -4.0802
 7584TIP3    H244244   1.346   0.621  13.840 -1.0180  0.3922 -2.3656
 7585TIP3   OH244245   4.599   5.283   0.488  0.4361 -0.3096 -0.0912
 7585TIP3    H144246   4.522   5.324   0.448  0.8962 -0.2700 -0.9443
 7585TIP3    H244247   4.668   5.349   0.480  0.4491 -0.1484  1.1182
 7586TIP3   OH244248   1.813   1.643  14.067 -0.2999  0.0330  0.4106
 7586TIP3    H144249   1.882   1.646  14.134 -0.0223 -0.3813  0.1427
 7586TIP3    H244250   1.848   1.589  13.998 -0.6302  0.3841 -0.0394
 7587TIP3   OH244251   3.285   1.960  15.613 -0.2489  0.5517  0.0635
 7587TIP3    H144252   3.192   1.940  15.600  0.1415  0.0833 -2.6886
 7587TIP3    H244253   3.302   2.033  15.553  1.3117  0.1333 -0.0351
 7588TIP3   OH244254   4.639   3.291   3.583  0.7840  0.3983  0.7425
 7588TIP3    H144255   4.689   3.226   3.533 -0.0109  0.3146  0.0242
 7588TIP3    H244256   4.566   3.313   3.525  0.2926  0.9091  1.5520
 7589TIP3   OH244257   4.883   6.180   2.054 -0.2918  0.0043  0.2890
 7589TIP3    H144258   4.964   6.145   2.017 -0.2447 -0.5011  0.8617
 7589TIP3    H244259   4.824   6.188   1.979  0.3817  0.6614 -0.1849
 7590TIP3   OH244260   0.153   3.048   4.244 -0.2153  0.0566 -0.3393
 7590TIP3    H144261   0.115   3.041   4.332  1.2940  0.3489  0.3681
 7590TIP3    H244262   0.079   3.069   4.188 -1.5186 -1.8086  0.5760
 7591TIP3   OH244263   3.461   5.954  12.161 -0.1419 -0.2381  0.0998
 7591TIP3    H144264   3.549   5.924  12.184 -0.1772 -0.4280 -0.0097
 7591TIP3    H244265   3.451   6.037  12.206  0.9735  0.9407 -1.7100
 7592TIP3   OH244266   2.588   5.389  12.143 -0.2512 -0.7014 -0.5865
 7592TIP3    H144267   2.595   5.474  12.186  1.6772 -1.0119 -0.1662
 7592TIP3    H244268   2.554   5.331  12.211  0.9839 -0.7965 -0.0230
 7593TIP3   OH244269   5.405   0.820  10.893  0.0095  0.0188 -0.0320
 7593TIP3    H144270   5.458   0.899  10.897 -0.0056  0.0279 -0.0072
 7593TIP3    H244271   5.457   0.757  10.843 -0.5531  0.4834 -1.2419
 7594TIP3   OH244272   5.980   1.998   5.612  0.2968 -0.4913  0.8657
 7594TIP3    H144273   5.888   1.970   5.603  0.5227 -1.0198  0.0925
 7594TIP3    H244274   6.021   1.972   5.529  0.6876  1.5590  0.3520
 7595TIP3   OH244275   2.498   3.994  13.976 -0.3922 -0.3371 -0.4505
 7595TIP3    H144276   2.535   3.941  14.047 -0.1447 -0.6097 -0.7775
 7595TIP3    H244277   2.407   4.007  14.000 -0.3264 -0.4921 -0.1161
 7596TIP3   OH244278   3.371   1.484  12.255 -0.1953  0.2573 -1.0981
 7596TIP3    H144279   3.304   1.429  12.216  0.7137 -2.0162  0.3576
 7596TIP3    H244280   3.346   1.491  12.347  1.6196 -0.8348 -0.4744
 7597TIP3   OH244281   6.672   2.976   0.428  0.5236 -0.2133 -0.3760
 7597TIP3    H144282   6.735   2.913   0.463  0.2053  0.7416  2.1222
 7597TIP3    H244283   6.655   2.945   0.339  1.4855 -2.7857  0.2294
 7598TIP3   OH244284   5.814   5.791  14.429  0.5081  0.4295  0.2526
 7598TIP3    H144285   5.843   5.745  14.351  0.4603 -0.7890  0.9260
 7598TIP3    H244286   5.805   5.723  14.496  0.8146  1.4657  1.4078
 7599TIP3   OH244287   2.871   4.475   2.684 -0.0843  0.2293  0.5106
 7599TIP3    H144288   2.812   4.549   2.673 -1.3308 -0.3102  2.8531
 7599TIP3    H244289   2.946   4.510   2.731  0.2725  0.3683 -0.1400
 7600TIP3   OH244290   6.219   4.158  12.316  0.1753  0.5863  0.8318
 7600TIP3    H144291   6.231   4.179  12.223 -1.4868  0.9824  0.6768
 7600TIP3    H244292   6.301   4.117  12.342  0.3891 -0.2780 -1.0348
 7601TIP3   OH244293   4.450   6.039   3.967  0.2170  0.0434 -0.0231
 7601TIP3    H144294   4.449   6.081   4.053 -0.9284 -0.5837  0.2916
 7601TIP3    H244295   4.445   5.945   3.987  0.7707 -0.1562 -0.7631
 7602TIP3   OH244296   4.257   1.649  10.823  0.5450  0.0320 -0.3648
 7602TIP3    H144297   4.348   1.622  10.812  0.8740  1.1902 -0.5354
 7602TIP3    H244298   4.213   1.570  10.854  1.6063 -0.5354 -0.2573
 7603TIP3   OH244299   0.245   0.412   1.149  0.1366 -0.2971  0.2329
 7603TIP3    H144300   0.170   0.450   1.102  0.1445  0.1898  0.6012
 7603TIP3    H244301   0.305   0.385   1.080  0.2306  0.5885 -0.0463
 7604TIP3   OH244302   5.379   5.638  17.105  0.5213 -0.3305  0.0823
 7604TIP3    H144303   5.410   5.709  17.050  0.1056  0.7302  1.1843
 7604TIP3    H244304   5.369   5.564  17.045  2.7224 -0.0159 -0.7613
 7605TIP3   OH244305   2.994   3.484  16.231  0.5224  0.3446  0.1958
 7605TIP3    H144306   2.944   3.546  16.285  2.2214  0.4127  1.7665
 7605TIP3    H244307   3.022   3.535  16.155 -0.0882  0.8332  0.2894
 7606TIP3   OH244308   1.191   6.333  12.750 -0.3354 -0.2031 -0.1765
 7606TIP3    H144309   1.189   6.267  12.820 -0.5257 -0.6834 -0.6289
 7606TIP3    H244310   1.141   6.406  12.786  0.0170 -0.2393  0.3955
 7607TIP3   OH244311   6.366   0.849  15.256  0.5154 -0.3349  0.2810
 7607TIP3    H144312   6.408   0.933  15.238 -0.5092  0.0757 -0.2929
 7607TIP3    H244313   6.438   0.786  15.254  1.2916  0.5008  0.6257
 7608TIP3   OH244314   6.760   2.616   1.923 -0.2911  0.2443 -0.2006
 7608TIP3    H144315   6.848   2.627   1.958 -0.2662  0.7509 -0.4103
 7608TIP3    H244316   6.702   2.625   1.998 -0.0748 -2.4489  0.3739
 7609TIP3   OH244317   5.679   4.660  11.751 -0.0326  0.0828 -0.3109
 7609TIP3    H144318   5.757   4.618  11.714  0.1493  0.1032  0.0461
 7609TIP3    H244319   5.650   4.600  11.820  0.8765  1.0551  0.9638
 7610TIP3   OH244320   6.282   6.782   4.666  0.0480 -0.1249 -0.4089
 7610TIP3    H144321   6.307   6.873   4.682 -1.5479  0.2413  0.1095
 7610TIP3    H244322   6.212   6.787   4.601  0.1746 -1.0092 -0.6253
 7611TIP3   OH244323   6.017   2.678   3.447  0.9503 -0.4916  0.6917
 7611TIP3    H144324   5.925   2.684   3.424  0.9887 -0.4381  0.5553
 7611TIP3    H244325   6.064   2.684   3.364  1.0799 -0.4419  0.7676
 7612TIP3   OH244326   4.740   2.569   3.105  0.1405 -0.2844 -0.4449
 7612TIP3    H144327   4.732   2.474   3.116  0.0484 -0.3840 -1.2964
 7612TIP3    H244328   4.748   2.581   3.010 -0.8678  0.6284 -0.4293
 7613TIP3   OH244329   5.498   6.755   1.981 -0.0159  0.5764 -0.2735
 7613TIP3    H144330   5.474   6.672   1.938  2.5198 -0.9076  0.9257
 7613TIP3    H244331   5.530   6.810   1.910  1.6244 -0.8470 -0.7152
 7614TIP3   OH244332   3.662   5.256  13.439 -0.1518 -0.4306 -0.8454
 7614TIP3    H144333   3.737   5.296  13.484 -0.7596 -0.4632  0.2329
 7614TIP3    H244334   3.617   5.330  13.398 -1.7088  0.2159  1.7822
 7615TIP3   OH244335   5.322   3.787  15.125  0.0497 -0.0154  0.2156
 7615TIP3    H144336   5.342   3.853  15.191 -1.1582  0.2122  0.3790
 7615TIP3    H244337   5.285   3.837  15.052  0.8617 -0.3238 -0.4217
 7616TIP3   OH244338   2.355   5.648   4.880 -0.0412 -0.4264 -0.2480
 7616TIP3    H144339   2.430   5.662   4.821 -0.3867  0.6406 -0.4620
 7616TIP3    H244340   2.347   5.731   4.928 -0.7958 -0.6980  0.1036
 7617TIP3   OH244341   5.096   0.490  11.964 -0.0845  0.0155  0.6710
 7617TIP3    H144342   5.045   0.527  12.036  0.2347  0.4798  0.6657
 7617TIP3    H244343   5.145   0.419  12.004 -0.9232 -0.6070  0.6199
 7618TIP3   OH244344   5.642   5.751   0.898 -0.0507  0.2341  0.2757
 7618TIP3    H144345   5.624   5.820   0.962  0.4620 -0.9736  1.8008
 7618TIP3    H244346   5.669   5.798   0.819 -3.1361  1.8578  0.0603
 7619TIP3   OH244347   2.053   4.176  13.298  0.1938  0.9824  0.1887
 7619TIP3    H144348   1.988   4.246  13.295 -0.9767 -0.0773  0.0422
 7619TIP3    H244349   2.080   4.164  13.207 -1.7278 -0.6182 -0.2557
 7620TIP3   OH244350   4.331   4.678  12.101  0.3587  0.1430  0.1632
 7620TIP3    H144351   4.395   4.670  12.031 -0.1013 -0.2694 -0.2178
 7620TIP3    H244352   4.282   4.596  12.099  0.0495  0.3043  0.6782
 7621TIP3   OH244353   4.586   2.420  13.519  0.8266 -0.1520 -0.0976
 7621TIP3    H144354   4.681   2.423  13.515  0.8610 -1.4950 -0.6583
 7621TIP3    H244355   4.561   2.349  13.460 -0.4848 -0.2774  0.5652
 7622TIP3   OH244356   4.756   1.437  11.144  0.6662 -0.6550  0.1898
 7622TIP3    H144357   4.703   1.513  11.122 -1.1415 -1.4653  1.4371
 7622TIP3    H244358   4.756   1.383  11.065  0.4451 -0.1916 -0.1293
 7623TIP3   OH244359   4.484   6.256   3.817  0.1714 -0.1965 -0.2448
 7623TIP3    H144360   4.412   6.256   3.754  0.2937 -0.4355 -0.3870
 7623TIP3    H244361   4.474   6.174   3.865  0.2668 -0.1651 -0.1707
 7624TIP3   OH244362   6.338   3.291   3.404 -0.0533 -0.1016 -0.4215
 7624TIP3    H144363   6.383   3.220   3.451  1.3626  1.2734  0.3817
 7624TIP3    H244364   6.255   3.252   3.375  0.5146 -1.9584  0.3294
 7625TIP3   OH244365   0.989   3.774  11.820 -0.5189 -0.0816 -0.3943
 7625TIP3    H144366   1.005   3.681  11.801  1.6799  0.3274 -0.8628
 7625TIP3    H244367   0.957   3.811  11.737 -0.6043 -0.2624 -0.4424
 7626TIP3   OH244368   6.081   3.460   5.865 -0.3380 -0.2074 -0.4067
 7626TIP3    H144369   6.042   3.533   5.913 -1.9517 -1.5947  0.4866
 7626TIP3    H244370   6.175   3.470   5.879 -0.4984  1.7147 -0.3851
 7627TIP3   OH244371   5.314   0.925   2.956  0.2007 -0.2069 -0.3946
 7627TIP3    H144372   5.391   0.929   3.013  0.5078  0.2690 -0.8323
 7627TIP3    H244373   5.259   0.856   2.994  1.4325 -1.4651 -0.8021
 7628TIP3   OH244374   4.015   3.359   6.052 -0.4072 -0.5779 -0.6059
 7628TIP3    H144375   4.098   3.390   6.088 -0.9397  0.3845 -0.1664
 7628TIP3    H244376   3.984   3.294   6.115 -1.4551  1.2711  0.8909
 7629TIP3   OH244377   3.840   6.212  11.998  0.1038 -0.1391  0.1644
 7629TIP3    H144378   3.765   6.211  11.939  1.3534 -0.1254 -1.5160
 7629TIP3    H244379   3.823   6.285  12.058 -0.5089  0.8493 -1.1598
 7630TIP3   OH244380   4.315   4.442   2.463 -0.7318 -0.3589 -0.1533
 7630TIP3    H144381   4.406   4.437   2.492 -0.8248  0.1500  0.2531
 7630TIP3    H244382   4.308   4.377   2.393  0.4154  0.8163 -1.4346
 7631TIP3   OH244383   1.384   3.802  15.497  0.4614  0.3383  0.1296
 7631TIP3    H144384   1.440   3.875  15.524 -0.0785  0.1379  1.8915
 7631TIP3    H244385   1.361   3.822  15.406  1.2391  1.7794  0.2266
 7632TIP3   OH244386   1.362   3.454  11.080  0.6079  0.2093  0.2891
 7632TIP3    H144387   1.398   3.374  11.042 -1.1147 -0.2719 -0.4349
 7632TIP3    H244388   1.323   3.501  11.005  1.6825  1.8032  0.6732
 7633TIP3   OH244389   4.371   0.172  13.117 -0.1544 -0.5322 -0.4378
 7633TIP3    H144390   4.450   0.165  13.171 -0.6519 -0.1627  0.3533
 7633TIP3    H244391   4.340   0.262  13.129 -1.6145 -1.1336  0.5967
 7634TIP3   OH244392   2.209   3.001  14.239 -0.0977  0.0788 -0.2870
 7634TIP3    H144393   2.256   3.070  14.286 -0.0278 -0.6005  0.6682
 7634TIP3    H244394   2.160   2.955  14.306  0.5994 -1.4072 -0.7380
 7635TIP3   OH244395   4.915   3.407   0.360 -0.0300 -0.0972 -0.0481
 7635TIP3    H144396   4.890   3.480   0.417  1.6659  0.4918  0.0055
 7635TIP3    H244397   4.908   3.329   0.416  0.4220  0.3216  0.6073
 7636TIP3   OH244398   3.285   2.806   6.293  0.0579 -0.1541  0.1655
 7636TIP3    H144399   3.236   2.728   6.320 -0.0823  0.1076  0.6715
 7636TIP3    H244400   3.369   2.771   6.263  0.9215 -0.3770  2.5484
 7637TIP3   OH244401   1.793   1.679  15.892 -0.1633 -0.2184  0.0105
 7637TIP3    H144402   1.830   1.655  15.977 -1.9260 -1.8038  0.4151
 7637TIP3    H244403   1.865   1.722  15.845  1.3221 -0.7262  1.7106
 7638TIP3   OH244404   2.252   2.923  13.790 -0.2249  0.1025 -0.3217
 7638TIP3    H144405   2.198   2.960  13.720 -0.4082 -0.5074 -0.5052
 7638TIP3    H244406   2.264   2.996  13.851 -2.3101 -0.0245  0.3568
 7639TIP3   OH244407   4.435   1.634  14.465 -0.0778 -0.0196  0.2809
 7639TIP3    H144408   4.345   1.665  14.470  0.1203  1.1069 -2.0364
 7639TIP3    H244409   4.487   1.709  14.494  0.2101  0.3994 -1.2350
 7640TIP3   OH244410   4.030   1.690  12.924 -0.4844 -0.1478  0.3132
 7640TIP3    H144411   4.089   1.637  12.870 -0.2650 -0.4791  0.8701
 7640TIP3    H244412   3.943   1.673  12.888 -0.2671  0.2290 -0.4192
 7641TIP3   OH244413   6.181   1.418  12.165  0.3428 -0.2169  0.7080
 7641TIP3    H144414   6.190   1.390  12.256  3.2646  1.0333  0.9278
 7641TIP3    H244415   6.271   1.439  12.137 -0.1993 -1.8201 -2.9105
 7642TIP3   OH244416   1.096   5.921  14.803  0.1552 -0.0589  0.2279
 7642TIP3    H144417   1.037   5.852  14.773 -0.0909  0.1613  0.2068
 7642TIP3    H244418   1.062   6.001  14.763  0.7631 -0.0044 -0.1881
 7643TIP3   OH244419   1.277   5.972  15.149  0.0214 -0.2052 -0.3035
 7643TIP3    H144420   1.216   6.019  15.205  1.4971  1.2551  0.1718
 7643TIP3    H244421   1.314   6.039  15.092 -0.8356 -1.5266 -2.5273
 7644TIP3   OH244422   1.375   3.303  16.845 -0.0052  0.1125 -0.4755
 7644TIP3    H144423   1.456   3.338  16.881  0.7656 -0.8422 -1.2328
 7644TIP3    H244424   1.401   3.262  16.762 -1.1810 -0.5868 -0.5212
 7645TIP3   OH244425   1.340   0.273   4.652 -0.0069  0.1800 -0.5279
 7645TIP3    H144426   1.287   0.214   4.598 -2.3124 -0.1115  1.8434
 7645TIP3    H244427   1.299   0.359   4.640  1.6615  0.8349 -1.8748
 7646TIP3   OH244428   2.394   3.490   3.278 -0.8005  1.1843 -0.0801
 7646TIP3    H144429   2.348   3.452   3.203 -1.1911 -2.7850  1.9078
 7646TIP3    H244430   2.325   3.527   3.332 -0.9803  0.5003  0.1601
 7647TIP3   OH244431   6.346   3.179  15.610 -0.6320 -0.0994  0.0220
 7647TIP3    H144432   6.358   3.227  15.528 -0.9253 -0.4540 -0.2302
 7647TIP3    H244433   6.405   3.103  15.601  0.2733  0.5051  0.6655
 7648TIP3   OH244434   1.454   1.512   5.634 -0.2934  0.5545 -0.0843
 7648TIP3    H144435   1.518   1.480   5.698  1.2442  2.2126 -0.7082
 7648TIP3    H244436   1.450   1.444   5.567 -0.1593 -0.1437  0.6020
 7649TIP3   OH244437   6.793   2.185  14.662  0.3819  0.1838  0.1793
 7649TIP3    H144438   6.744   2.206  14.741 -0.1145  3.3388 -0.8574
 7649TIP3    H244439   6.788   2.263  14.608  1.5434 -1.4980 -2.5963
 7650TIP3   OH244440   6.473   0.917  13.129 -0.0417 -0.1283 -0.2556
 7650TIP3    H144441   6.433   0.966  13.058  0.3588 -2.1668 -1.9779
 7650TIP3    H244442   6.548   0.873  13.089  0.5322 -0.8939  1.5606
 7651TIP3   OH244443   1.956   4.807  12.494 -0.4627  0.2732 -0.1245
 7651TIP3    H144444   1.954   4.838  12.403  0.4314  1.9900  0.3918
 7651TIP3    H244445   1.926   4.882  12.545  0.9135  0.0068  1.1330
 7652TIP3   OH244446   3.591   4.033   5.974 -0.5313  0.2458 -1.1303
 7652TIP3    H144447   3.593   4.068   6.063  0.8146  0.5322 -1.2488
 7652TIP3    H244448   3.499   4.037   5.948 -0.7110  1.7549 -0.3767
 7653TIP3   OH244449   6.044   5.916   5.458  0.1432  0.5107  0.0988
 7653TIP3    H144450   6.125   5.872   5.483  0.3873  1.2327  0.5911
 7653TIP3    H244451   5.988   5.845   5.424  0.9991  0.0184 -0.3301
 7654TIP3   OH244452   1.141   1.617  13.888  0.4076  0.3847  0.1740
 7654TIP3    H144453   1.074   1.616  13.819  1.3331  0.7771 -0.7545
 7654TIP3    H244454   1.176   1.528  13.888  1.9887  0.9452 -1.4943
 7655TIP3   OH244455   0.946   5.286  14.164 -0.6728  0.2028  0.2362
 7655TIP3    H144456   0.911   5.324  14.083  0.2579 -1.3208 -0.9275
 7655TIP3    H244457   0.993   5.358  14.206  1.9445  0.2232 -2.4112
 7656TIP3   OH244458   2.770   1.156   3.230  0.0887 -0.0661 -0.8363
 7656TIP3    H144459   2.813   1.132   3.147 -0.7902 -0.8876 -1.0710
 7656TIP3    H244460   2.837   1.139   3.296  0.4272 -0.5042 -1.2756
 7657TIP3   OH244461   5.727   1.287   1.232  0.3427 -0.2446  0.0094
 7657TIP3    H144462   5.797   1.318   1.289  0.5910 -1.0321  0.1494
 7657TIP3    H244463   5.722   1.351   1.162  1.6734 -0.5318 -0.3792
 7658TIP3   OH244464   4.110   1.831   1.230  0.3863  0.1623 -0.3429
 7658TIP3    H144465   4.151   1.849   1.145  0.4239 -2.3967 -0.9609
 7658TIP3    H244466   4.044   1.764   1.210 -0.6692  0.6151  1.4348
 7659TIP3   OH244467   3.365   3.021  13.642 -0.2060 -0.1278 -0.2592
 7659TIP3    H144468   3.380   2.989  13.553  1.9686  1.0180 -0.3840
 7659TIP3    H244469   3.278   3.060  13.639 -1.3138 -2.4486 -1.1123
 7660TIP3   OH244470   5.018   5.491  12.325 -0.3010  0.6831 -0.3986
 7660TIP3    H144471   5.047   5.513  12.236  0.1711 -0.8065 -0.6318
 7660TIP3    H244472   5.052   5.562  12.379  0.3914  1.0127 -1.2454
 7661TIP3   OH244473   2.688   6.510   4.126 -0.9668  0.3673 -0.6528
 7661TIP3    H144474   2.678   6.417   4.103 -1.0148  0.0734  0.4854
 7661TIP3    H244475   2.763   6.539   4.074  0.2834 -0.8389  0.3894
 7662TIP3   OH244476   4.286   0.083  12.277  0.1487 -0.3260  0.1213
 7662TIP3    H144477   4.311   0.002  12.232  0.4163 -0.1936  0.0277
 7662TIP3    H244478   4.215   0.056  12.336  1.2662 -0.9570  1.2273
 7663TIP3   OH244479   1.781   5.024  14.787  0.2997 -0.1485 -0.2353
 7663TIP3    H144480   1.734   5.107  14.788  1.6808  0.6871  1.2044
 7663TIP3    H244481   1.856   5.039  14.729  0.6516 -0.3015  0.1698
 7664TIP3   OH244482   4.475   2.681   3.164 -0.4308 -0.2818  0.0819
 7664TIP3    H144483   4.515   2.637   3.089 -1.4050 -0.8754 -0.0953
 7664TIP3    H244484   4.486   2.619   3.236 -0.9123 -0.3833  0.0658
 7665TIP3   OH244485   1.390   3.397   4.636 -0.5553 -0.2318 -0.5609
 7665TIP3    H144486   1.425   3.313   4.665 -1.0081 -0.0129  0.6909
 7665TIP3    H244487   1.336   3.377   4.561  0.1984 -0.9114 -0.9355
 7666TIP3   OH244488   1.224   0.963  11.886 -0.1095 -0.0909  0.3779
 7666TIP3    H144489   1.179   1.034  11.841 -0.5014 -0.9993 -0.6972
 7666TIP3    H244490   1.241   0.898  11.818  1.5770 -0.3946  1.0418
 7667TIP3   OH244491   4.408   4.085   1.385 -0.3988  0.3613 -0.2527
 7667TIP3    H144492   4.493   4.121   1.409 -0.0323 -0.2247 -0.6347
 7667TIP3    H244493   4.346   4.127   1.444  0.2205  0.4200  0.3634
 7668TIP3   OH244494   2.182   3.810  16.262  0.1543 -0.4801  0.3850
 7668TIP3    H144495   2.232   3.869  16.318  1.3582 -1.3120  0.2148
 7668TIP3    H244496   2.245   3.746  16.231 -1.2457 -2.3702  1.1992
 7669TIP3   OH244497   4.111   2.420   0.519 -0.0702  0.1986  0.0764
 7669TIP3    H144498   4.070   2.498   0.480 -1.0148 -0.9780 -1.4590
 7669TIP3    H244499   4.205   2.434   0.508 -0.2124  1.1605 -0.0554
 7670TIP3   OH244500   2.470   4.489   0.156  0.0168 -0.0524 -1.0867
 7670TIP3    H144501   2.511   4.523   0.076  0.4097  0.9982 -0.4490
 7670TIP3    H244502   2.411   4.420   0.124  3.4000 -2.8487 -1.9532
 7671TIP3   OH244503   1.690   1.929   0.222 -0.6968 -0.0264 -0.4149
 7671TIP3    H144504   1.606   1.965   0.192 -0.7211  0.5320  0.2900
 7671TIP3    H244505   1.698   1.958   0.313  0.8595  1.0638 -0.8490
 7672TIP3   OH244506   4.439   4.991  16.714  0.3867 -0.2476  0.2828
 7672TIP3    H144507   4.505   4.977  16.646  1.8251  0.9435  1.3667
 7672TIP3    H244508   4.371   5.043  16.671  1.2804  0.5082 -0.2651
 7673TIP3   OH244509   4.110   0.883   0.635  0.0455  0.1180 -0.4453
 7673TIP3    H144510   4.063   0.920   0.561  0.2404 -0.8425 -1.0666
 7673TIP3    H244511   4.090   0.790   0.632  2.4280 -0.4427 -1.1090
 7674TIP3   OH244512   5.119   2.454   3.714  0.4022  0.7721 -0.1162
 7674TIP3    H144513   5.199   2.419   3.676  1.3582  1.0010  1.5676
 7674TIP3    H244514   5.114   2.413   3.801 -1.3417  0.7228 -0.2136
 7675TIP3   OH244515   0.610   1.295   4.314 -0.2283  0.2864  0.2403
 7675TIP3    H144516   0.547   1.246   4.366 -1.1893 -0.7590 -1.8062
 7675TIP3    H244517   0.674   1.229   4.285  2.6219  1.4674  3.1766
 7676TIP3   OH244518   1.963   3.781   1.199 -0.0589  0.1752 -0.3626
 7676TIP3    H144519   1.964   3.686   1.211  0.6697  0.2545  0.2072
 7676TIP3    H244520   1.871   3.801   1.181 -0.1308 -0.7065 -1.0911
 7677TIP3   OH244521   1.561   0.781  11.520  0.6528 -0.2507  0.2401
 7677TIP3    H144522   1.563   0.793  11.425  1.4735  2.8279  0.5327
 7677TIP3    H244523   1.628   0.840  11.553  0.0996 -0.9131  2.7894
 7678TIP3   OH244524   0.053   0.858  12.353 -0.3378  0.6076  0.5980
 7678TIP3    H144525   0.103   0.928  12.394 -1.6988  1.9697  0.0367
 7678TIP3    H244526   0.096   0.843  12.269  0.5004  0.0943  1.1011
 7679TIP3   OH244527   4.383   2.340  16.032  0.0659  0.5824  0.3651
 7679TIP3    H144528   4.397   2.316  15.940  1.9664  2.2091  0.1810
 7679TIP3    H244529   4.304   2.393  16.032  0.1543  0.7161 -0.3666
 7680TIP3   OH244530   1.266   0.376  12.976 -0.0345 -0.2439  0.5397
 7680TIP3    H144531   1.175   0.351  12.993 -0.7450  2.8563  1.9693
 7680TIP3    H244532   1.297   0.412  13.059  1.5058  1.4750 -0.6987
 7681TIP3   OH244533   5.714   4.698   3.020 -0.0861 -0.1044 -0.3931
 7681TIP3    H144534   5.721   4.651   2.937 -1.0130 -0.5589 -0.2229
 7681TIP3    H244535   5.781   4.767   3.014  0.4733 -0.6983 -1.1312
 7682TIP3   OH244536   4.831   6.701  16.001 -0.2335 -0.4577 -0.4740
 7682TIP3    H144537   4.776   6.669  15.930 -1.5720  1.9923 -0.6680
 7682TIP3    H244538   4.911   6.650  15.994 -0.7009 -1.0055 -3.1201
 7683TIP3   OH244539   6.054   6.400   3.535 -0.0474  0.5031  0.2386
 7683TIP3    H144540   6.135   6.356   3.510  2.2333  4.7838 -0.9679
 7683TIP3    H244541   6.043   6.379   3.628  1.8103 -1.1343  0.1613
 7684TIP3   OH244542   4.610   6.124  13.165  0.3751 -0.0651  0.3216
 7684TIP3    H144543   4.627   6.074  13.086  0.2807  0.2423  0.1064
 7684TIP3    H244544   4.541   6.076  13.210 -0.1195  0.1810 -0.1655
 7685TIP3   OH244545   1.351   6.590  11.024  0.3188  0.1763  0.0063
 7685TIP3    H144546   1.423   6.599  11.086  0.8651  0.8115 -0.6947
 7685TIP3    H244547   1.388   6.539  10.952  0.1383  0.6825 -0.4501
 7686TIP3   OH244548   3.584   2.623  14.728  0.1177  0.0080 -0.1480
 7686TIP3    H144549   3.493   2.605  14.706  0.1418 -1.3113  0.7223
 7686TIP3    H244550   3.580   2.669  14.813  0.1789  2.1877 -1.2533
 7687TIP3   OH244551   2.200   6.005  13.273 -0.0074  0.0995 -0.2584
 7687TIP3    H144552   2.232   5.922  13.238  0.1161  0.2458 -0.4942
 7687TIP3    H244553   2.154   5.981  13.354 -1.3426 -0.4017 -1.1241
 7688TIP3   OH244554   4.786   0.556  16.792 -0.4205  0.7375 -0.5617
 7688TIP3    H144555   4.763   0.585  16.704 -1.9912 -0.3390 -0.5463
 7688TIP3    H244556   4.865   0.503  16.779 -0.9627  0.1031 -1.4360
 7689TIP3   OH244557   2.714   0.548  14.382  1.0773  0.4599  0.4916
 7689TIP3    H144558   2.768   0.470  14.379 -1.5919 -1.6362  2.3509
 7689TIP3    H244559   2.751   0.606  14.315  2.8433 -2.5697 -1.3523
 7690TIP3   OH244560   2.769   6.361  14.782 -0.4081  0.3831  0.2992
 7690TIP3    H144561   2.776   6.442  14.732 -0.5327 -0.2671 -0.8038
 7690TIP3    H244562   2.687   6.321  14.752 -0.5572  0.0388  1.1285
 7691TIP3   OH244563   5.653   4.802   5.842  1.1857 -0.5230 -0.1354
 7691TIP3    H144564   5.656   4.733   5.775  1.5978 -0.1605 -0.5016
 7691TIP3    H244565   5.577   4.855   5.819  2.1090  0.4012 -1.1404
 7692TIP3   OH244566   2.113   6.411   4.551 -0.7467 -0.4963  0.2546
 7692TIP3    H144567   2.138   6.323   4.523 -1.0570 -0.2333 -0.9037
 7692TIP3    H244568   2.083   6.454   4.471 -0.7672  0.6108  0.8374
 7693TIP3   OH244569   1.186   2.292  10.700  0.2696 -0.2237  0.2103
 7693TIP3    H144570   1.219   2.337  10.777  0.2970 -1.5184  0.9881
 7693TIP3    H244571   1.264   2.263  10.653  0.2507  0.3560 -0.1895
 7694TIP3   OH244572   4.805   0.349   1.628  0.1890  0.1216  0.1281
 7694TIP3    H144573   4.772   0.336   1.539  0.7256  0.3442 -0.1084
 7694TIP3    H244574   4.899   0.361   1.617  0.1393  1.0953  0.6317
 7695TIP3   OH244575   6.597   1.671  11.073 -0.0877  0.5761 -0.0640
 7695TIP3    H144576   6.679   1.687  11.119 -1.0635 -0.1536  2.0727
 7695TIP3    H244577   6.599   1.577  11.052  0.0420  0.7633 -0.9398
 7696TIP3   OH244578   3.971   0.175   6.012 -0.5199 -0.0433 -0.0415
 7696TIP3    H144579   3.886   0.202   6.047 -0.2050  0.3523  0.4416
 7696TIP3    H244580   3.995   0.099   6.065 -0.2454  0.2856  0.3099
 7697TIP3   OH244581   1.699   3.896   1.088 -0.0707  0.5294  0.1746
 7697TIP3    H144582   1.608   3.874   1.107  0.3490  0.3158  2.1290
 7697TIP3    H244583   1.695   3.946   1.007 -1.8039 -0.3955 -0.3610
 7698TIP3   OH244584   0.782   1.525  15.042  0.3038 -0.3063  0.8387
 7698TIP3    H144585   0.806   1.432  15.038  1.5142  0.0203 -0.0504
 7698TIP3    H244586   0.719   1.530  15.114  0.8523 -1.6728  1.4532
 7699TIP3   OH244587   5.166   3.730   4.223  0.0721 -0.0296  0.0331
 7699TIP3    H144588   5.206   3.782   4.153 -1.8858  2.9041  0.9145
 7699TIP3    H244589   5.190   3.776   4.303 -2.0190 -0.2304  0.8383
 7700TIP3   OH244590   1.034   3.278   2.449  1.1388 -0.1809  0.2101
 7700TIP3    H144591   0.938   3.281   2.454  1.0677  0.1064 -0.9283
 7700TIP3    H244592   1.064   3.320   2.530  0.3357 -1.9765  1.4948
 7701TIP3   OH244593   6.390   4.754   3.566  0.6570  0.0808 -0.3215
 7701TIP3    H144594   6.457   4.785   3.505  0.1624  0.0006 -0.9199
 7701TIP3    H244595   6.416   4.790   3.651  1.1468  0.5144 -0.6479
 7702TIP3   OH244596   2.278   0.905   3.243 -0.4930  0.4156  0.0297
 7702TIP3    H144597   2.268   0.997   3.218  1.0406  0.5632 -0.1212
 7702TIP3    H244598   2.189   0.874   3.259 -1.2563  1.2406 -2.3320
 7703TIP3   OH244599   4.286   4.709   2.432  0.1566 -0.2599 -0.0002
 7703TIP3    H144600   4.279   4.613   2.432  1.7844 -0.4244 -1.1923
 7703TIP3    H244601   4.363   4.727   2.485 -0.2947  0.4250  0.4346
 7704TIP3   OH244602   5.000   2.915  16.441  0.2138 -0.1112  0.0497
 7704TIP3    H144603   5.067   2.977  16.469  0.4924  0.5278 -1.8887
 7704TIP3    H244604   5.042   2.830  16.444 -0.2417 -0.3386  2.9768
 7705TIP3   OH244605   1.239   3.277  16.401 -0.0253 -0.3059 -0.5449
 7705TIP3    H144606   1.176   3.235  16.460 -0.6266 -1.4452 -1.9358
 7705TIP3    H244607   1.193   3.283  16.317  1.5819 -0.8277 -1.5040
 7706TIP3   OH244608   0.831   6.666  11.832 -0.2500 -0.4188 -0.3262
 7706TIP3    H144609   0.914   6.713  11.836 -0.5415  0.1045 -0.3000
 7706TIP3    H244610   0.767   6.733  11.807 -0.7154 -0.7482 -0.0272
 7707TIP3   OH244611   3.112   3.489   4.091 -0.2957  0.3238 -0.0405
 7707TIP3    H144612   3.142   3.540   4.166  0.5553  1.2218 -0.9728
 7707TIP3    H244613   3.019   3.473   4.109 -0.0099  0.1609  1.3936
 7708TIP3   OH244614   1.133   2.545   3.662 -0.0547  0.0338 -0.5858
 7708TIP3    H144615   1.147   2.459   3.623  0.3359 -0.7816  1.2650
 7708TIP3    H244616   1.067   2.531   3.729  0.9304  0.8860  0.6146
 7709TIP3   OH244617   5.523   0.923  15.836 -0.0972  0.7755  0.7034
 7709TIP3    H144618   5.513   0.843  15.887  0.1563  0.3076  0.0283
 7709TIP3    H244619   5.520   0.993  15.901  2.3093  0.1050  1.6459
 7710TIP3   OH244620   3.089   4.216   0.927  0.2554 -0.1673 -0.1976
 7710TIP3    H144621   3.005   4.236   0.970 -0.3300  1.4850 -1.9551
 7710TIP3    H244622   3.120   4.301   0.896  2.7959 -0.6937  0.7050
 7711TIP3   OH244623   6.502   1.370   0.951  0.2106  0.3712 -0.3175
 7711TIP3    H144624   6.436   1.439   0.944  0.4718  0.7403  0.6786
 7711TIP3    H244625   6.474   1.319   1.027  0.8071  0.2423 -0.1832
 7712TIP3   OH244626   5.110   4.328   3.507  0.2388  0.2095 -0.4530
 7712TIP3    H144627   5.047   4.371   3.449 -0.0459  1.3138  0.6212
 7712TIP3    H244628   5.176   4.396   3.523 -0.5104  0.4822  1.7401
 7713TIP3   OH244629   0.060   2.367   1.870 -0.3356  0.1196 -0.2762
 7713TIP3    H144630   0.064   2.338   1.961 -0.9134  0.9560  0.0309
 7713TIP3    H244631   0.013   2.450   1.874  0.8019  0.8312 -1.1794
 7714TIP3   OH244632   4.391   1.371  14.368 -0.0686  0.5867 -0.2402
 7714TIP3    H144633   4.428   1.454  14.397 -0.8771  1.1539 -0.8016
 7714TIP3    H244634   4.298   1.379  14.387 -0.5028  0.6647 -2.2351
 7715TIP3   OH244635   1.220   1.790  17.307 -0.3269  0.2905 -0.9931
 7715TIP3    H144636   1.315   1.795  17.293  0.5510 -2.4827  2.2845
 7715TIP3    H244637   1.189   1.729  17.241  0.3375  0.5491 -1.5533
 7716TIP3   OH244638   5.601   1.118   4.170 -0.2736  0.3725 -0.2513
 7716TIP3    H144639   5.555   1.199   4.194  0.6226  0.9597 -0.4631
 7716TIP3    H244640   5.687   1.147   4.141 -0.0762 -0.6321 -0.7226
 7717TIP3   OH244641   6.559   1.323   3.938  0.2940 -0.6526  0.3175
 7717TIP3    H144642   6.523   1.362   4.018  0.9503 -2.5287  1.5833
 7717TIP3    H244643   6.615   1.391   3.902 -0.4469  0.4330  1.1268
 7718TIP3   OH244644   0.145   5.409   4.126  0.4071 -0.0047 -0.0728
 7718TIP3    H144645   0.172   5.383   4.214  0.8309 -1.1045 -0.4938
 7718TIP3    H244646   0.164   5.331   4.072 -1.3784  0.0452 -0.8372
 7719TIP3   OH244647   1.684   4.727  11.320 -0.3523  0.1091  0.1943
 7719TIP3    H144648   1.649   4.782  11.389 -0.4594 -0.4076  0.5538
 7719TIP3    H244649   1.614   4.723  11.254  0.3262  1.8629 -0.6754
 7720TIP3   OH244650   3.006   4.083  12.172  0.0100  0.5831 -0.4556
 7720TIP3    H144651   3.008   4.139  12.094 -0.5309  0.5827 -0.4732
 7720TIP3    H244652   2.956   4.132  12.236  0.6156  0.6636 -0.0364
 7721TIP3   OH244653   1.745   6.020   5.743  0.6592 -0.5138 -0.0432
 7721TIP3    H144654   1.693   6.100   5.746  1.5005  0.0976 -0.8779
 7721TIP3    H244655   1.810   6.030   5.812  1.0295 -0.2802 -0.4235
 7722TIP3   OH244656   2.813   2.931   5.919  0.6035  0.5194 -0.3067
 7722TIP3    H144657   2.800   3.016   5.962  0.2610  0.3617 -0.0923
 7722TIP3    H244658   2.893   2.896   5.959  0.5211  0.5648 -0.0978
 7723TIP3   OH244659   2.685   1.771  17.034 -0.4820 -0.1402  0.7862
 7723TIP3    H144660   2.651   1.724  16.958 -0.2220  2.0428 -0.7633
 7723TIP3    H244661   2.611   1.771  17.096 -1.5283  0.0773 -0.4236
 7724TIP3   OH244662   3.838   3.919   0.226  0.0288 -0.0370  0.0594
 7724TIP3    H144663   3.837   3.834   0.183  0.1959 -0.6764  1.2541
 7724TIP3    H244664   3.910   3.967   0.185 -1.0054  0.1241 -1.6650
 7725TIP3   OH244665   0.694   4.101  17.151 -0.6553 -0.3362 -0.4855
 7725TIP3    H144666   0.690   4.044  17.074 -0.2667  0.2014 -0.9082
 7725TIP3    H244667   0.788   4.113  17.166 -0.7250  0.8445 -0.8898
 7726TIP3   OH244668   4.257   5.413   2.672 -0.1944  0.4805  0.0304
 7726TIP3    H144669   4.188   5.456   2.622 -0.4567  1.0267  0.8398
 7726TIP3    H244670   4.270   5.329   2.628 -0.9691  0.6127 -0.4703
 7727TIP3   OH244671   3.180   6.115   5.684 -1.0367 -0.6423 -0.2074
 7727TIP3    H144672   3.097   6.102   5.729 -1.0219 -0.5727 -0.1593
 7727TIP3    H244673   3.200   6.030   5.644 -0.8502 -0.8201  0.2505
 7728TIP3   OH244674   0.968   6.591  16.818  0.8047 -0.8032 -0.0822
 7728TIP3    H144675   0.894   6.628  16.770  0.7660 -1.2004 -0.3284
 7728TIP3    H244676   0.977   6.648  16.895 -0.0097 -0.9803  0.1555
 7729TIP3   OH244677   1.462   0.558  13.203 -0.2198 -0.0175 -0.1060
 7729TIP3    H144678   1.519   0.520  13.136 -0.0995  0.4450 -0.2663
 7729TIP3    H244679   1.465   0.652  13.187 -2.8863 -0.0991 -1.6118
 7730TIP3   OH244680   2.743   5.978  12.139 -0.3630  0.4258 -0.0510
 7730TIP3    H144681   2.813   6.000  12.077  0.1419 -0.0718  0.3266
 7730TIP3    H244682   2.663   5.983  12.087  0.2416 -2.3909 -1.4513
 7731TIP3   OH244683   3.763   4.434   5.672  0.4001  0.2507 -0.1703
 7731TIP3    H144684   3.821   4.398   5.605  1.1671  1.4676 -0.1730
 7731TIP3    H244685   3.693   4.477   5.622  0.4878  0.3791 -0.1832
 7732TIP3   OH244686   5.665   4.386   2.841 -0.1643 -0.1372  0.1261
 7732TIP3    H144687   5.743   4.439   2.829  0.2454 -0.6096  0.6647
 7732TIP3    H244688   5.647   4.389   2.935 -0.8634  0.0558 -0.0015
 7733TIP3   OH244689   4.313   6.063  16.950  0.2587 -0.7553  0.8086
 7733TIP3    H144690   4.326   5.987  17.007 -0.1981 -0.4462  1.3343
 7733TIP3    H244691   4.233   6.042  16.902 -1.6845  0.6978  3.1888
 7734TIP3   OH244692   0.118   0.037  15.632 -0.0327 -0.4583  0.2447
 7734TIP3    H144693   0.181  -0.007  15.575 -0.4891 -0.2289 -0.4419
 7734TIP3    H244694   0.062   0.087  15.573  2.5455  3.9442  1.0634
 7735TIP3   OH244695   0.416   4.439   3.256 -0.4997 -0.4756 -0.2090
 7735TIP3    H144696   0.327   4.467   3.277 -0.8784 -0.2607 -1.9735
 7735TIP3    H244697   0.411   4.344   3.250 -1.1562 -0.3488 -2.4556
 7736TIP3   OH244698   0.656   4.143   5.172 -0.2447  0.4100  0.1424
 7736TIP3    H144699   0.602   4.089   5.114  0.1598 -0.0759  0.2200
 7736TIP3    H244700   0.708   4.081   5.222 -0.3077  0.8439  0.7600
 7737TIP3   OH244701   1.598   3.683  14.070  0.0593  0.0423  0.1381
 7737TIP3    H144702   1.572   3.633  13.992 -0.2210  1.5660 -0.7697
 7737TIP3    H244703   1.694   3.677  14.071  0.3775  2.7081 -2.2791
 7738TIP3   OH244704   0.502   3.024  14.346 -0.0132 -0.2724 -0.0185
 7738TIP3    H144705   0.481   2.973  14.268 -1.9685  2.3546 -1.3677
 7738TIP3    H244706   0.584   2.987  14.378  0.7392 -1.6267 -3.1576
 7739TIP3   OH244707   6.340   0.009   1.958  0.4940 -0.6166 -0.3204
 7739TIP3    H144708   6.248  -0.013   1.938  0.3556 -0.2762 -0.0687
 7739TIP3    H244709   6.361  -0.042   2.035  0.1178  0.2352  0.3678
 7740TIP3   OH244710   3.212   3.811   3.327  0.1937  0.1942 -0.4302
 7740TIP3    H144711   3.205   3.875   3.397  0.4783  1.1445 -1.2365
 7740TIP3    H244712   3.237   3.730   3.371 -0.5460  0.5366  0.6539
 7741TIP3   OH244713   0.964   0.153  17.209 -0.0308 -0.5619  0.1241
 7741TIP3    H144714   0.906   0.148  17.285 -0.3474 -0.1176 -0.0883
 7741TIP3    H244715   0.968   0.246  17.186  1.8546 -0.3731  0.9676
 7742TIP3   OH244716   4.706   3.753  14.688  0.5437 -0.2378  0.3426
 7742TIP3    H144717   4.727   3.727  14.778  1.0285 -0.4374  0.1731
 7742TIP3    H244718   4.610   3.752  14.686  0.5284 -0.4363  0.8004
 7743TIP3   OH244719   5.435   2.370  12.274  0.3240  0.2124 -1.1115
 7743TIP3    H144720   5.511   2.340  12.325  0.2931  1.3030 -0.3913
 7743TIP3    H244721   5.438   2.466  12.281  0.0039  0.3636 -2.7290
 7744TIP3   OH244722   4.338   0.751   0.985  0.2788 -0.1678  0.5073
 7744TIP3    H144723   4.297   0.831   0.954 -0.1780 -0.0320  1.4273
 7744TIP3    H244724   4.284   0.681   0.948  1.3520 -0.1195 -1.2574
 7745TIP3   OH244725   1.877   5.324   5.880 -0.0108 -0.2739 -0.6842
 7745TIP3    H144726   1.805   5.282   5.928  1.1342 -0.9151  0.5169
 7745TIP3    H244727   1.921   5.252   5.835 -0.3250  0.1686 -1.7411
 7746TIP3   OH244728   2.819   1.839   0.275  0.1833  0.3717  0.0523
 7746TIP3    H144729   2.749   1.811   0.216 -0.4319  0.3212  0.7903
 7746TIP3    H244730   2.776   1.899   0.335  1.1741  1.7710 -0.6011
 7747TIP3   OH244731   0.415   0.855   3.464 -0.0101  0.4791 -0.0604
 7747TIP3    H144732   0.376   0.772   3.437 -1.3833  1.5373 -1.5416
 7747TIP3    H244733   0.418   0.851   3.559 -1.9732 -0.4549 -0.0006
 7748TIP3   OH244734   0.055   1.891   5.294  0.5920 -0.2303  0.3180
 7748TIP3    H144735   0.109   1.821   5.258 -1.1014 -2.1046  1.2090
 7748TIP3    H244736   0.087   1.903   5.384 -0.8525 -1.8797  1.1081
 7749TIP3   OH244737   5.583   3.018   5.069 -0.5126 -0.1480  0.3284
 7749TIP3    H144738   5.561   3.107   5.097 -1.8855  0.0844 -1.3223
 7749TIP3    H244739   5.514   2.995   5.006  1.0586 -1.5330 -0.9713
 7750TIP3   OH244740   1.753   5.935  15.577 -0.1477 -0.3497  0.1615
 7750TIP3    H144741   1.810   5.963  15.506  0.1955 -1.8468 -0.1922
 7750TIP3    H244742   1.666   5.967  15.552  0.4925  1.9886  0.7332
 7751TIP3   OH244743   3.608   6.472  14.302 -0.3876  0.6172 -0.1194
 7751TIP3    H144744   3.683   6.528  14.281 -1.3182  1.5452 -1.0760
 7751TIP3    H244745   3.613   6.400  14.240 -0.1508  0.5473 -0.0197
 7752TIP3   OH244746   6.377   3.123   1.867 -0.3343 -0.4628  0.1267
 7752TIP3    H144747   6.294   3.077   1.850 -0.2860 -0.3168 -0.5126
 7752TIP3    H244748   6.439   3.052   1.885 -0.4803 -0.5985  0.1056
 7753TIP3   OH244749   6.689   4.577  10.820 -0.2414  0.1940 -0.1095
 7753TIP3    H144750   6.739   4.583  10.739  2.0923  1.8780  1.3336
 7753TIP3    H244751   6.719   4.497  10.861 -0.5439 -0.0413 -0.3410
 7754TIP3   OH244752   5.117   6.310   3.628  0.4958  0.1737 -0.2083
 7754TIP3    H144753   5.037   6.341   3.585  0.8689  0.9863 -0.3228
 7754TIP3    H244754   5.183   6.375   3.606  0.9142  0.1270  0.8706
 7755TIP3   OH244755   0.776   1.783  15.148  0.4068 -0.4652  0.1167
 7755TIP3    H144756   0.780   1.693  15.117  0.5418 -0.0769 -1.0220
 7755TIP3    H244757   0.854   1.825  15.112 -0.7096  0.6411 -1.1219
 7756TIP3   OH244758   4.597   0.809  15.378  0.1234  0.2968  0.4982
 7756TIP3    H144759   4.504   0.810  15.401  0.0340  0.5502  0.1476
 7756TIP3    H244760   4.639   0.860  15.447  0.1048 -0.4215  1.0502
 7757TIP3   OH244761   1.196   4.358  14.155  0.1147  0.1321  0.4280
 7757TIP3    H144762   1.189   4.382  14.248  0.1909 -0.1220  0.5020
 7757TIP3    H244763   1.276   4.306  14.150 -0.4261 -0.7261  0.4136
 7758TIP3   OH244764   1.147   2.119   5.857  0.4182  0.3983  0.3237
 7758TIP3    H144765   1.228   2.143   5.903 -0.6255 -0.9626  3.1507
 7758TIP3    H244766   1.090   2.195   5.868  0.8072  0.8174 -0.4583
 7759TIP3   OH244767   2.675   2.821   0.342 -0.0115  0.8146 -0.4245
 7759TIP3    H144768   2.722   2.761   0.284  1.1051  0.7508  0.5275
 7759TIP3    H244769   2.599   2.848   0.290  0.3726 -0.0826 -1.5096
 7760TIP3   OH244770   1.439   4.381  11.341 -0.7193 -0.3645 -0.3542
 7760TIP3    H144771   1.478   4.295  11.327  1.2144  0.2804  0.7284
 7760TIP3    H244772   1.444   4.395  11.435 -1.5160  0.7336 -0.4483
 7761TIP3   OH244773   5.104   0.405   3.523  0.6688  0.0684 -0.0709
 7761TIP3    H144774   5.124   0.397   3.616  0.8131 -1.1834 -0.1992
 7761TIP3    H244775   5.021   0.358   3.512  1.5378 -1.3389 -0.8650
 7762TIP3   OH244776   4.375   5.530   0.148 -0.2152 -0.3548 -0.2582
 7762TIP3    H144777   4.422   5.492   0.222  0.3702 -0.1213 -0.5037
 7762TIP3    H244778   4.328   5.456   0.109  1.0616 -0.8811 -0.8486
 7763TIP3   OH244779   0.332   2.951  16.623 -0.4170  0.2411  0.0901
 7763TIP3    H144780   0.357   2.939  16.531 -0.4546  0.3799  0.0613
 7763TIP3    H244781   0.293   2.868  16.648  0.5628 -0.1718  0.2975
 7764TIP3   OH244782   1.883   0.200  11.457  0.9796 -0.4435  0.0572
 7764TIP3    H144783   1.969   0.178  11.423  2.5968  0.7008  3.0522
 7764TIP3    H244784   1.861   0.284  11.417  1.0961 -0.8595 -0.9042
 7765TIP3   OH244785   3.992   0.504   5.984 -0.0888 -0.1766 -0.0623
 7765TIP3    H144786   4.047   0.425   5.980  0.0768 -0.0981 -4.5961
 7765TIP3    H244787   3.903   0.472   5.974 -0.3154  0.1167  0.8825
 7766TIP3   OH244788   1.675   5.014   0.656  0.1820  0.3058 -0.8535
 7766TIP3    H144789   1.645   5.048   0.740  0.4274  1.3784 -1.1912
 7766TIP3    H244790   1.638   4.925   0.652 -0.2909  0.4406  0.1298
 7767TIP3   OH244791   0.581   5.028  14.095  0.5163  0.1280  0.0351
 7767TIP3    H144792   0.514   5.084  14.056  0.0369  0.4321  1.2475
 7767TIP3    H244793   0.624   5.084  14.159  0.6523 -0.6219  0.6082
 7768TIP3   OH244794   1.745   0.659  13.040 -0.0525 -0.8558 -0.0253
 7768TIP3    H144795   1.745   0.700  13.127  1.0849  1.4690 -1.0262
 7768TIP3    H244796   1.669   0.698  12.996 -1.3712 -2.9590  0.2584
 7769TIP3   OH244797   1.020   5.272  15.313 -0.5141 -0.0446 -0.5347
 7769TIP3    H144798   1.010   5.267  15.408  0.3272 -0.5205 -0.4584
 7769TIP3    H244799   0.961   5.205  15.279  1.8010 -2.4886 -0.1285
 7770TIP3   OH244800   2.699   1.967   4.350 -0.2721 -0.2653  0.0927
 7770TIP3    H144801   2.753   1.994   4.424 -0.3978 -0.7421  0.3630
 7770TIP3    H244802   2.759   1.918   4.293  0.0074  0.7362 -0.5012
 7771TIP3   OH244803   6.207   2.859  11.405  0.1404  0.3025 -0.7776
 7771TIP3    H144804   6.205   2.768  11.434  1.4186  0.8063  1.0317
 7771TIP3    H244805   6.158   2.907  11.472  2.1444  1.3440 -0.0001
 7772TIP3   OH244806   1.154   2.157  15.549  0.3327 -0.3368  0.0228
 7772TIP3    H144807   1.244   2.189  15.540  0.7625 -1.4894  0.1097
 7772TIP3    H244808   1.115   2.169  15.463  0.3918  0.6694  0.1253
 7773TIP3   OH244809   3.908   3.067  11.535  0.1992 -0.0732  0.1281
 7773TIP3    H144810   3.816   3.077  11.561 -0.1790 -0.1363 -1.0963
 7773TIP3    H244811   3.957   3.070  11.617 -0.5563  3.8197  0.6437
 7774TIP3   OH244812   4.118   6.513  13.544 -0.6494  0.5061 -0.0649
 7774TIP3    H144813   4.061   6.579  13.506  0.5875  0.7830 -1.5452
 7774TIP3    H244814   4.200   6.519  13.494  0.5290 -0.1963  1.6454
 7775TIP3   OH244815   2.422   3.521  13.802  0.2113  0.3278  0.1849
 7775TIP3    H144816   2.416   3.615  13.820 -3.1512  0.0502  1.1970
 7775TIP3    H244817   2.444   3.516  13.709 -0.8110  2.1801 -0.2172
 7776TIP3   OH244818   2.370   2.981  16.704  0.4196  0.7721  0.2269
 7776TIP3    H144819   2.393   2.888  16.711 -0.3427  0.5486 -0.0692
 7776TIP3    H244820   2.279   2.980  16.673 -0.5637  1.5669  2.7970
 7777TIP3   OH244821   0.387   2.940  11.891 -0.5256 -0.5961 -0.4334
 7777TIP3    H144822   0.297   2.941  11.926 -0.6309 -0.2833 -0.7127
 7777TIP3    H244823   0.389   2.863  11.834 -0.8067 -0.2458 -0.9211
 7778TIP3   OH244824   0.761   5.710   4.131 -0.0219 -0.9729  0.2209
 7778TIP3    H144825   0.694   5.705   4.200 -0.9763  1.1395 -0.4774
 7778TIP3    H244826   0.742   5.635   4.074 -2.3707 -0.0061 -0.3865
 7779TIP3   OH244827   0.537   3.668  11.412  0.5669 -0.2007  0.1684
 7779TIP3    H144828   0.477   3.632  11.477  1.8272  0.3681  1.6846
 7779TIP3    H244829   0.612   3.609  11.412  1.8287  1.3326  1.3385
 7780TIP3   OH244830   0.003   2.385  11.109  0.0014  0.7973  0.1754
 7780TIP3    H144831   0.044   2.471  11.099  1.5922  0.2869  1.6258
 7780TIP3    H244832  -0.047   2.392  11.191  1.0758  0.0516  0.9269
 7781TIP3   OH244833   4.428   3.294   0.769  0.0900  0.6798  0.3572
 7781TIP3    H144834   4.359   3.308   0.833 -1.2919  2.4181 -1.3884
 7781TIP3    H244835   4.394   3.333   0.688  2.1715 -0.4697 -1.1746
 7782TIP3   OH244836   0.876   1.875  14.827 -0.4749 -0.5565  0.1036
 7782TIP3    H144837   0.951   1.895  14.882  0.4120 -0.9782 -0.9235
 7782TIP3    H244838   0.892   1.786  14.795 -1.5953 -0.7928  0.1626
 7783TIP3   OH244839   6.240   3.639  15.025 -0.4753  0.0634 -0.0286
 7783TIP3    H144840   6.300   3.569  14.999  1.5169  1.5448  0.3573
 7783TIP3    H244841   6.160   3.593  15.051  1.3354 -2.2578  1.9902
 7784TIP3   OH244842   1.661   0.872   1.909 -0.4973 -0.1108  0.0346
 7784TIP3    H144843   1.596   0.837   1.848 -0.7700 -0.8865  0.7444
 7784TIP3    H244844   1.610   0.921   1.973 -0.6713 -2.2901  1.6988
 7785TIP3   OH244845   2.258   3.474  13.163  0.2123 -0.5668 -0.5407
 7785TIP3    H144846   2.238   3.381  13.160 -0.5368 -0.4720  0.5547
 7785TIP3    H244847   2.310   3.491  13.085  1.4390 -2.1409 -0.1119
 7786TIP3   OH244848   4.056   1.632   0.618 -0.0131 -0.3757 -0.0100
 7786TIP3    H144849   4.026   1.650   0.528  0.1440 -1.4884 -0.2953
 7786TIP3    H244850   4.151   1.625   0.610 -0.0060 -0.5552  0.2267
 7787TIP3   OH244851   0.121   4.538  12.248  0.1493 -0.5805  0.6952
 7787TIP3    H144852   0.071   4.481  12.189 -2.2518  0.7977  1.2828
 7787TIP3    H244853   0.143   4.482  12.322 -1.4564 -1.0069  0.8927
 7788TIP3   OH244854   3.502   4.727  16.032 -0.0338 -0.1352 -0.9931
 7788TIP3    H144855   3.472   4.689  15.950  0.2230  1.0432 -1.6486
 7788TIP3    H244856   3.592   4.756  16.015 -0.2610  0.8735 -0.5726
 7789TIP3   OH244857   1.364   6.246   5.493 -0.1235 -0.1806  0.0253
 7789TIP3    H144858   1.318   6.201   5.565  1.4389 -0.1649  1.0702
 7789TIP3    H244859   1.356   6.339   5.514 -0.2805 -0.1373 -0.2209
 7790TIP3   OH244860   0.379   5.602  17.261  0.3973  0.6952 -0.8184
 7790TIP3    H144861   0.335   5.673  17.308 -0.2181  1.0040 -1.8291
 7790TIP3    H244862   0.467   5.636  17.243  0.7702  0.4310  0.4059
 7791TIP3   OH244863   5.338   0.927  11.560  0.0412 -0.1046 -0.6438
 7791TIP3    H144864   5.250   0.946  11.529  0.4087 -0.5289 -2.0501
 7791TIP3    H244865   5.391   0.922  11.480  1.5668  1.1988  0.1997
 7792TIP3   OH244866   6.784   4.334  15.522 -0.2867  0.5801 -0.1075
 7792TIP3    H144867   6.815   4.382  15.599  1.7392  1.7811 -1.5582
 7792TIP3    H244868   6.861   4.284  15.492 -1.7797 -2.0604  0.1617
 7793TIP3   OH244869   0.205   1.023  12.529 -0.8424 -0.3199 -0.2501
 7793TIP3    H144870   0.283   0.996  12.479 -0.5321  0.0324  0.0411
 7793TIP3    H244871   0.239   1.083  12.596 -1.7408  2.3365 -2.0318
 7794TIP3   OH244872   4.341   1.045  13.167 -0.1723  0.3435 -0.3433
 7794TIP3    H144873   4.365   1.115  13.107  2.7213  0.5884  0.9259
 7794TIP3    H244874   4.403   1.053  13.240 -1.7590 -1.6117  1.3803
 7795TIP3   OH244875   5.724   0.332   0.082  0.5139 -0.3678  0.4137
 7795TIP3    H144876   5.638   0.302   0.054  1.9135 -1.1753 -3.7369
 7795TIP3    H244877   5.762   0.256   0.127 -0.1834 -0.7553  0.3626
 7796TIP3   OH244878   6.802   3.973  16.440  0.4149 -0.4287  0.4799
 7796TIP3    H144879   6.781   3.883  16.465  1.7988 -0.5341  1.3690
 7796TIP3    H244880   6.844   4.011  16.518  1.0184  0.5771 -0.2976
 7797TIP3   OH244881   4.430   6.122   1.444 -0.3592  0.4966 -0.4816
 7797TIP3    H144882   4.478   6.044   1.472 -1.3743  0.0200 -0.0323
 7797TIP3    H244883   4.431   6.179   1.522 -1.5516 -0.0312 -0.0603
 7798TIP3   OH244884   5.787   4.747   3.768  0.5388 -0.1158 -0.6328
 7798TIP3    H144885   5.857   4.785   3.822 -0.1435  0.4968 -0.1389
 7798TIP3    H244886   5.707   4.771   3.815 -0.0605  0.1565 -1.7632
 7799TIP3   OH244887   1.139   4.304   3.572  0.3201  0.1710  0.0117
 7799TIP3    H144888   1.153   4.219   3.532  1.0885 -0.2499  1.1042
 7799TIP3    H244889   1.139   4.366   3.499  0.1671 -0.7193 -0.7498
 7800TIP3   OH244890   0.815   2.593   1.944 -0.1924 -0.2323  0.2198
 7800TIP3    H144891   0.844   2.563   1.858 -0.1635 -1.8954  0.7642
 7800TIP3    H244892   0.871   2.667   1.965 -1.0426  1.0539 -1.7211
 7801TIP3   OH244893   2.388   1.052  16.693  0.3143 -0.0030  0.0496
 7801TIP3    H144894   2.343   1.136  16.703  1.1339  0.3765  0.5854
 7801TIP3    H244895   2.390   1.015  16.781  2.7722  0.8901  0.4491
 7802TIP3   OH244896   4.623   6.400  16.182 -0.6081 -0.6837  0.1975
 7802TIP3    H144897   4.665   6.345  16.249  0.9720 -0.7937 -0.8238
 7802TIP3    H244898   4.656   6.366  16.099 -0.2926  1.2301 -0.5059
 7803TIP3   OH244899   3.682   3.306  12.989 -0.1106 -0.0788 -0.5334
 7803TIP3    H144900   3.600   3.288  13.036  0.7967  3.2376  2.7769
 7803TIP3    H244901   3.672   3.259  12.907 -4.3769 -1.6635  0.5852
 7804TIP3   OH244902   5.243   5.194  11.742 -0.1818 -0.2730 -0.0471
 7804TIP3    H144903   5.226   5.116  11.690  0.1517 -0.2672 -0.1674
 7804TIP3    H244904   5.158   5.219  11.777 -0.6840  0.5372 -1.7318
 7805TIP3   OH244905   6.462   3.269   4.926  0.1379 -0.3633  0.0225
 7805TIP3    H144906   6.467   3.364   4.930  1.7862 -0.4409  2.5615
 7805TIP3    H244907   6.535   3.243   4.870 -1.0454 -0.1491 -1.6746
 7806TIP3   OH244908   3.280   1.436   1.735 -0.2482  0.2807  0.1746
 7806TIP3    H144909   3.279   1.355   1.785 -0.7253 -0.2189 -0.6383
 7806TIP3    H244910   3.189   1.448   1.706 -0.2606  1.2886  0.5705
 7807TIP3   OH244911   4.716   3.911   0.999  0.5861 -0.3265  0.1518
 7807TIP3    H144912   4.750   3.837   0.948  1.8403  0.1113  0.3128
 7807TIP3    H244913   4.646   3.948   0.944 -1.2041 -2.5636  0.7704
 7808TIP3   OH244914   0.296   2.145   0.063  0.7943 -0.1037  0.2506
 7808TIP3    H144915   0.336   2.177   0.144  1.7813  0.5260 -0.4591
 7808TIP3    H244916   0.261   2.224   0.021  1.2775 -0.2560 -0.4626
 7809TIP3   OH244917   6.513   1.187  15.778  0.4552  0.2617  0.2227
 7809TIP3    H144918   6.569   1.154  15.708  0.0382 -1.0169  0.4786
 7809TIP3    H244919   6.487   1.275  15.748 -2.3230 -1.3863 -2.8505
 7810TIP3   OH244920   3.327   4.848  14.988  0.2114  0.6586  0.1361
 7810TIP3    H144921   3.317   4.799  15.070 -2.4543  1.4191  0.3586
 7810TIP3    H244922   3.341   4.781  14.922  0.0976 -0.1538  0.9159
 7811TIP3   OH244923   1.921   5.503   4.089 -0.4121 -0.3422  0.0286
 7811TIP3    H144924   1.970   5.463   4.017 -0.8017  1.1441 -1.1084
 7811TIP3    H244925   1.961   5.589   4.101 -1.5799  0.1981  0.2554
 7812TIP3   OH244926   3.809   4.906   0.628  0.0026  0.4028 -0.1356
 7812TIP3    H144927   3.848   4.818   0.634  0.0448  0.3962 -0.5113
 7812TIP3    H244928   3.771   4.910   0.540  0.0087  0.7639 -0.1231
 7813TIP3   OH244929   2.847   0.499  16.262 -0.1674  0.6781 -0.3999
 7813TIP3    H144930   2.840   0.516  16.356  1.0290 -1.3144  0.1043
 7813TIP3    H244931   2.850   0.403  16.256  0.3568  0.7953 -2.4335
 7814TIP3   OH244932   4.579   5.568   5.680 -0.3891 -0.0751  0.5132
 7814TIP3    H144933   4.549   5.650   5.719  0.9600  0.2507  0.9089
 7814TIP3    H244934   4.665   5.553   5.718 -0.0331 -0.9782 -0.5801
 7815TIP3   OH244935   1.180   0.453   4.317  0.5352  0.1141  0.2378
 7815TIP3    H144936   1.275   0.468   4.318  0.3981  1.0793  1.6990
 7815TIP3    H244937   1.158   0.425   4.406 -0.4534 -0.9091 -0.3004
 7816TIP3   OH244938   3.237   4.850   1.363  0.0876  0.1998  0.3261
 7816TIP3    H144939   3.199   4.843   1.450  2.4429  0.8763  1.4828
 7816TIP3    H244940   3.319   4.898   1.375  1.3199 -1.0909 -1.9948
 7817TIP3   OH244941   0.953   1.031  12.706  0.3619  0.9632  0.0957
 7817TIP3    H144942   0.927   0.982  12.628 -0.2845  0.4358  0.6296
 7817TIP3    H244943   1.048   1.025  12.708  0.5344  2.4558 -1.5930
 7818TIP3   OH244944   0.429   1.794  16.300 -0.2110 -0.1183  0.3359
 7818TIP3    H144945   0.502   1.780  16.240 -0.3913  0.8966 -0.1523
 7818TIP3    H244946   0.467   1.837  16.376 -0.4251  1.4524 -0.3906
 7819TIP3   OH244947   6.021   2.012   4.234  0.5385  0.4883  1.2357
 7819TIP3    H144948   5.962   2.032   4.162 -1.0113 -0.8425  2.0580
 7819TIP3    H244949   6.088   2.080   4.231  0.2793  0.7041 -1.1705
 7820TIP3   OH244950   4.308   6.158   4.629  0.0664  0.7805  0.2374
 7820TIP3    H144951   4.220   6.195   4.627  0.2518  1.1866 -0.8140
 7820TIP3    H244952   4.364   6.232   4.652  0.1362  0.5096  0.9655
 7821TIP3   OH244953   1.638   4.687   6.593  0.0324  0.1128 -0.6529
 7821TIP3    H144954   1.702   4.754   6.616  0.7787 -0.6095 -0.5937
 7821TIP3    H244955   1.607   4.654   6.678 -0.1661  0.2209 -0.6825
 7822TIP3   OH244956   0.448   0.120  14.606  0.3222  0.3519 -0.0233
 7822TIP3    H144957   0.453   0.025  14.612  2.0819  0.4895  1.3823
 7822TIP3    H244958   0.515   0.144  14.543  0.4339  0.7096  0.2277
 7823TIP3   OH244959   2.325   0.666   0.264 -0.8191 -0.5283  0.1457
 7823TIP3    H144960   2.365   0.753   0.257 -1.4840 -0.1982  0.3240
 7823TIP3    H244961   2.246   0.672   0.210 -0.3269 -1.3585 -0.6812
 7824TIP3   OH244962   4.951   0.588   1.361  0.0975  0.1128 -0.4745
 7824TIP3    H144963   4.938   0.604   1.455 -2.0991  1.3567 -0.9298
 7824TIP3    H244964   4.865   0.603   1.322  0.5185 -2.1691 -2.5038
 7825TIP3   OH244965   6.515   3.576   3.442  0.2136 -0.2560 -0.0545
 7825TIP3    H144966   6.562   3.611   3.518  0.5873 -0.5009 -0.1690
 7825TIP3    H244967   6.510   3.482   3.457 -0.2385 -0.2330 -0.0490
 7826TIP3   OH244968   3.478   2.087   5.221  0.2433  0.1669 -0.3232
 7826TIP3    H144969   3.550   2.150   5.225  0.9090 -0.5336 -1.0138
 7826TIP3    H244970   3.430   2.100   5.303  1.7032 -0.0216  0.5928
 7827TIP3   OH244971   3.398   1.042  14.809 -0.2673  0.0550  0.2663
 7827TIP3    H144972   3.494   1.041  14.818 -0.3069 -0.4607  0.6747
 7827TIP3    H244973   3.380   1.120  14.757  0.5324 -0.9620 -1.6421
 7828TIP3   OH244974   2.469   0.170   3.115  0.5640 -0.7132 -0.1155
 7828TIP3    H144975   2.431   0.210   3.194  1.9338 -0.0145  0.2347
 7828TIP3    H244976   2.532   0.235   3.085 -0.8307 -0.3825 -2.5756
 7829TIP3   OH244977   6.232   2.378  15.224 -1.0818  0.3872  0.3160
 7829TIP3    H144978   6.322   2.345  15.221 -1.4824 -0.8291  1.0618
 7829TIP3    H244979   6.240   2.469  15.196  0.1866 -0.0738 -0.9707
 7830TIP3   OH244980   1.596   3.055   0.803 -0.3145 -0.3625  0.0188
 7830TIP3    H144981   1.626   2.966   0.822  1.2548 -0.1549 -1.2165
 7830TIP3    H244982   1.531   3.073   0.870  1.3033 -1.4443  2.0164
 7831TIP3   OH244983   5.000   4.587  16.183  0.1959 -0.3163 -0.4503
 7831TIP3    H144984   5.043   4.669  16.161  0.1481  0.0120  0.6376
 7831TIP3    H244985   4.927   4.581  16.121  0.5448  0.1666 -0.9156
 7832TIP3   OH244986   3.962   3.891   1.243 -0.2437 -0.0683  0.1612
 7832TIP3    H144987   4.051   3.907   1.276 -0.1397 -0.1918 -0.0529
 7832TIP3    H244988   3.957   3.795   1.236 -0.0137 -0.0184 -0.8510
 7833TIP3   OH244989   4.367   5.785   0.613 -0.0745  0.3054  0.0944
 7833TIP3    H144990   4.301   5.744   0.557  0.4931 -1.2885  0.5514
 7833TIP3    H244991   4.444   5.729   0.604  0.1400  0.2083  2.1759
 7834TIP3   OH244992   5.451   5.065  17.129  0.7073  0.7976 -0.2015
 7834TIP3    H144993   5.487   5.148  17.159 -0.0017  1.0936 -0.1482
 7834TIP3    H244994   5.368   5.057  17.175  0.6622  0.1714 -0.3858
 7835TIP3   OH244995   3.923   3.288  11.927 -0.0943  0.2701  0.3437
 7835TIP3    H144996   3.990   3.276  11.859 -0.4464  0.1082  0.0231
 7835TIP3    H244997   3.884   3.202  11.939 -1.0935  0.5997 -0.3652
 7836TIP3   OH244998   0.217   5.816   0.070  0.5000  0.0736 -0.2295
 7836TIP3    H144999   0.242   5.827   0.162 -1.3654  1.2825  0.1735
 7836TIP3    H245000   0.256   5.892   0.025 -0.7202  0.8870  0.0488
 7837TIP3   OH245001   5.114   2.313   1.563  0.0661 -0.3811 -0.3316
 7837TIP3    H145002   5.206   2.293   1.579 -0.2353 -2.1458 -0.5032
 7837TIP3    H245003   5.068   2.234   1.592 -1.2882  0.0037 -1.3381
 7838TIP3   OH245004   6.035   0.617   5.478  0.0107 -0.4765 -0.1731
 7838TIP3    H145005   6.078   0.700   5.458 -1.9994  0.5593 -0.4823
 7838TIP3    H245006   6.099   0.568   5.530  1.2709  1.2238 -0.0574
 7839TIP3   OH245007   2.472   3.967  11.241  0.0421  0.3861  0.0976
 7839TIP3    H145008   2.529   3.954  11.317 -0.1442  0.4663  0.2529
 7839TIP3    H245009   2.514   3.918  11.171  0.5927  0.8974  0.0691
 7840TIP3   OH245010   0.170   2.645   3.671  0.6799  0.5662  0.1810
 7840TIP3    H145011   0.164   2.696   3.752 -0.2148  0.3448  0.2661
 7840TIP3    H245012   0.226   2.571   3.693  0.2801  0.4025  0.6598
 7841TIP3   OH245013   2.182   1.882  16.520  0.5549 -0.5998  0.0904
 7841TIP3    H145014   2.122   1.807  16.526 -0.1820 -0.2444 -2.0426
 7841TIP3    H245015   2.155   1.928  16.440  2.2861  0.8194  0.2676
 7842TIP3   OH245016   0.298   5.233   1.177  0.8183  0.3753 -0.6840
 7842TIP3    H145017   0.356   5.234   1.253  0.7281 -1.1271 -0.5689
 7842TIP3    H245018   0.248   5.152   1.186  0.5158  0.3702 -2.1384
 7843TIP3   OH245019   6.777   0.831   5.499  0.0179 -0.1163  0.5059
 7843TIP3    H145020   6.853   0.843   5.556 -0.0636  1.3339  0.3407
 7843TIP3    H245021   6.740   0.746   5.525  1.3768 -0.5911  0.9463
 7844TIP3   OH245022   0.471   0.049  16.921  0.3011 -0.4671 -0.0758
 7844TIP3    H145023   0.484   0.140  16.898 -0.4985 -0.1686  0.5952
 7844TIP3    H245024   0.494   0.000  16.842  0.5616  0.3236 -0.4922
 7845TIP3   OH245025   5.526   4.350   2.428  0.2744  0.3607 -0.3405
 7845TIP3    H145026   5.617   4.359   2.455  0.6621 -1.6083 -0.8053
 7845TIP3    H245027   5.479   4.416   2.479  1.6498 -0.0196  1.5262
 7846TIP3   OH245028   0.008   1.887   5.810  0.0053 -0.6024  0.0098
 7846TIP3    H145029   0.030   1.919   5.723  0.8150  0.6592  0.6367
 7846TIP3    H245030  -0.086   1.907   5.820  0.3428  1.0400  0.1255
 7847TIP3   OH245031   2.189   4.461  16.148  0.4224 -0.0085 -0.2452
 7847TIP3    H145032   2.165   4.537  16.201  0.3414  1.2885 -2.0477
 7847TIP3    H245033   2.279   4.441  16.175  0.0460  0.0065  1.0557
 7848TIP3   OH245034   4.173   6.102   0.783  0.1456 -0.2280 -0.3028
 7848TIP3    H145035   4.211   6.018   0.809  0.8155  0.4035  0.8374
 7848TIP3    H245036   4.211   6.119   0.696 -1.1278 -1.7557 -1.2175
 7849TIP3   OH245037   5.942   4.916   1.396  0.0801  0.0477  0.3424
 7849TIP3    H145038   5.848   4.934   1.394 -0.0913 -0.8423  0.1408
 7849TIP3    H245039   5.972   4.952   1.480 -0.6357 -0.5805  0.8755
 7850TIP3   OH245040   4.041   3.716   4.049  0.1610 -0.1581  0.1700
 7850TIP3    H145041   4.095   3.643   4.017 -0.3225 -0.7575  0.7094
 7850TIP3    H245042   4.099   3.793   4.042  1.8012 -1.0646  2.4970
 7851TIP3   OH245043   5.998   6.691  10.818 -0.3431 -0.0071 -0.3087
 7851TIP3    H145044   5.985   6.775  10.774 -0.4806 -0.0680 -0.3860
 7851TIP3    H245045   5.909   6.656  10.830 -0.2193 -1.0625 -2.0605
 7852TIP3   OH245046   4.306   4.076  15.152  0.1022  0.7514 -0.2016
 7852TIP3    H145047   4.246   4.004  15.132 -0.6003  1.2184  0.1861
 7852TIP3    H245048   4.280   4.105  15.240  0.5456  1.3149 -0.2500
 7853TIP3   OH245049   3.428   3.138  16.024 -0.1564 -0.4305  0.7752
 7853TIP3    H145050   3.437   3.108  15.933 -0.4923 -1.1147  0.9596
 7853TIP3    H245051   3.508   3.106  16.067 -0.7452 -1.5451  1.0902
 7854TIP3   OH245052   4.674   4.537  15.056 -0.0971 -0.4576  0.1829
 7854TIP3    H145053   4.663   4.628  15.084 -0.3206 -0.7155  0.9509
 7854TIP3    H245054   4.698   4.543  14.963  0.9981  0.4358  0.5066
 7855TIP3   OH245055   6.648   6.512   4.909  0.4638  0.4226 -0.0588
 7855TIP3    H145056   6.608   6.521   4.996 -1.0447 -1.2487 -0.5047
 7855TIP3    H245057   6.607   6.581   4.857  0.3084  0.5415  0.2166
 7856TIP3   OH245058   2.783   0.162   6.142 -0.3793 -0.2552  0.0593
 7856TIP3    H145059   2.853   0.147   6.205 -0.8592  0.1518  0.7124
 7856TIP3    H245060   2.764   0.256   6.149 -0.3325 -0.1672 -0.8210
 7857TIP3   OH245061   1.990   1.673  14.672 -0.2290  0.4804  0.0071
 7857TIP3    H145062   2.077   1.633  14.660 -0.1725  0.0009  1.7916
 7857TIP3    H245063   1.999   1.730  14.748 -1.3765  0.7579 -0.0426
 7858TIP3   OH245064   4.043   0.884  10.908 -0.3941  0.2258  0.3553
 7858TIP3    H145065   4.119   0.913  10.960  0.3708  0.9674 -1.1221
 7858TIP3    H245066   4.029   0.954  10.845  0.9083 -2.0675 -2.7193
 7859TIP3   OH245067   1.921   1.987   2.110  0.1869 -0.3592 -0.0517
 7859TIP3    H145068   1.983   1.920   2.082  0.6918  0.1398 -0.1329
 7859TIP3    H245069   1.835   1.945   2.100  0.5582 -1.7283  1.8059
 7860TIP3   OH245070   5.600   4.319  12.805  0.3206  0.6097  0.3072
 7860TIP3    H145071   5.682   4.342  12.849  0.1193 -0.0602  1.0547
 7860TIP3    H245072   5.621   4.240  12.755  0.6725  1.6260 -1.2196
 7861TIP3   OH245073   3.069   1.739   0.363 -0.6925 -0.1054  0.3777
 7861TIP3    H145074   3.057   1.678   0.436  0.7171 -0.2608  0.5098
 7861TIP3    H245075   2.980   1.758   0.332 -1.1831 -2.0961  0.4481
 7862TIP3   OH245076   0.455   6.600   6.049  0.4727  0.1939  0.1584
 7862TIP3    H145077   0.365   6.596   6.080  0.3665  0.3134 -0.1401
 7862TIP3    H245078   0.464   6.524   5.991  0.6819 -0.0470  0.4972
 7863TIP3   OH245079   0.460   0.757   4.003  0.0946 -0.1324 -1.0254
 7863TIP3    H145080   0.396   0.825   4.023 -0.3366 -1.1313  1.3029
 7863TIP3    H245081   0.430   0.681   4.052  0.8007 -1.9255 -3.1983
 7864TIP3   OH245082   3.255   0.716   1.019 -0.5460 -0.2046 -0.1571
 7864TIP3    H145083   3.219   0.692   0.934  0.3533 -0.4259 -0.4962
 7864TIP3    H245084   3.217   0.801   1.039 -0.3184  0.1257 -1.0687
 7865TIP3   OH245085   0.762   6.655   2.592  0.0725 -0.3801 -0.1976
 7865TIP3    H145086   0.687   6.711   2.571 -0.9223 -1.1717  1.1383
 7865TIP3    H245087   0.798   6.630   2.506 -1.0856  0.1403 -0.8520
 7866TIP3   OH245088   5.102   1.355  14.546 -0.0060  0.1740  0.2716
 7866TIP3    H145089   5.014   1.381  14.521 -0.0281  0.7118  0.8954
 7866TIP3    H245090   5.136   1.428  14.597  1.8069  1.1555 -2.1600
 7867TIP3   OH245091   1.416   5.706   0.255 -0.1676  0.2301 -0.0809
 7867TIP3    H145092   1.327   5.713   0.290 -0.6039 -1.3090 -0.8104
 7867TIP3    H245093   1.464   5.776   0.299 -1.5002  0.4834  1.0505
 7868TIP3   OH245094   2.506   1.315  14.790 -0.3725  0.5782  0.1921
 7868TIP3    H145095   2.570   1.247  14.773 -0.1866  0.8856 -0.3633
 7868TIP3    H245096   2.422   1.275  14.769 -0.4131  0.0459  1.3039
 7869TIP3   OH245097   0.274   0.771  14.710  0.0045 -0.1954  0.2099
 7869TIP3    H145098   0.225   0.690  14.697  0.1743 -0.2226 -0.2962
 7869TIP3    H245099   0.250   0.825  14.634 -0.9789  0.6746  1.1054
 7870TIP3   OH245100   1.573   2.484   5.177 -0.1333  0.2695 -0.1394
 7870TIP3    H145101   1.569   2.524   5.091 -0.0249 -0.3253 -0.4308
 7870TIP3    H245102   1.484   2.450   5.192 -0.4731  1.3801  0.4937
 7871TIP3   OH245103   5.136   6.049   2.281 -0.1429 -0.3136  0.2092
 7871TIP3    H145104   5.174   5.967   2.314  1.2348  0.2299  0.0626
 7871TIP3    H245105   5.053   6.057   2.327 -0.0329 -1.5112  0.6556
 7872TIP3   OH245106   0.066   4.232   2.778 -0.0421  0.0049 -0.3483
 7872TIP3    H145107   0.120   4.311   2.779  2.0255 -1.3070 -1.2137
 7872TIP3    H245108  -0.009   4.255   2.723 -0.0062  1.6543  0.2433
 7873TIP3   OH245109   1.966   5.499   3.374 -0.6500 -0.0279 -0.3812
 7873TIP3    H145110   1.882   5.464   3.403 -0.7845 -0.3272 -1.0937
 7873TIP3    H245111   1.996   5.554   3.446 -0.6388 -1.2810  0.5982
 7874TIP3   OH245112   6.664   0.841   2.829 -0.1334  0.1977  0.2755
 7874TIP3    H145113   6.704   0.878   2.908  0.4908 -1.6800  0.9032
 7874TIP3    H245114   6.736   0.834   2.767 -0.7326  2.1697 -0.6952
 7875TIP3   OH245115   5.263   2.248   0.438  0.1327  0.3123  0.3229
 7875TIP3    H145116   5.261   2.223   0.346 -0.3167  0.2597  0.3465
 7875TIP3    H245117   5.318   2.327   0.440 -0.1053  0.4892 -0.0347
 7876TIP3   OH245118   1.875   5.998   2.818  0.0396  0.3737  0.3392
 7876TIP3    H145119   1.952   5.969   2.867 -0.4334 -0.3304  0.6912
 7876TIP3    H245120   1.825   6.050   2.882  1.6466  3.4433 -0.7175
 7877TIP3   OH245121   0.585   6.642  13.040 -0.8322  0.1826 -0.0026
 7877TIP3    H145122   0.622   6.634  13.128 -0.1126  1.6461 -0.1495
 7877TIP3    H245123   0.490   6.636  13.053 -0.7555  0.8696  0.9429
 7878TIP3   OH245124   1.068   4.361  13.606  0.4411 -0.2703 -0.5077
 7878TIP3    H145125   1.105   4.277  13.579  2.5522  1.4119 -3.5257
 7878TIP3    H245126   1.107   4.378  13.692  1.2543 -1.6600 -0.5696
 7879TIP3   OH245127   4.071   2.558  12.574  0.2639  0.2625 -0.3419
 7879TIP3    H145128   4.027   2.487  12.527 -1.9078  1.9912 -1.1082
 7879TIP3    H245129   4.099   2.619  12.506  0.9207  0.7855  0.3709
 7880TIP3   OH245130   6.058   5.138   5.695 -0.0755  0.1478  0.1712
 7880TIP3    H145131   6.117   5.198   5.649 -0.3475  1.0987  1.0209
 7880TIP3    H245132   6.101   5.052   5.689  2.0954  1.0128  1.8737
 7881TIP3   OH245133   2.391   6.625  13.567  0.0315  0.3374 -0.1454
 7881TIP3    H145134   2.308   6.664  13.541  0.1545 -0.2103 -1.4622
 7881TIP3    H245135   2.398   6.643  13.661 -1.2962  0.8776 -0.1264
 7882TIP3   OH245136   3.620   4.532   3.377  0.0086 -0.6017  0.0948
 7882TIP3    H145137   3.543   4.483   3.405 -0.0718 -0.9040 -0.6183
 7882TIP3    H245138   3.585   4.609   3.332  0.1333 -0.0830  0.8725
 7883TIP3   OH245139   6.239   1.737  12.118  0.2543  0.0106 -0.1120
 7883TIP3    H145140   6.178   1.688  12.173  1.7552 -3.6742 -1.4679
 7883TIP3    H245141   6.320   1.742  12.169  0.6436 -0.4915 -0.6669
 7884TIP3   OH245142   6.151   6.386   3.092 -0.9026  0.0955  0.2809
 7884TIP3    H145143   6.066   6.357   3.059 -1.4421  0.0924  1.6050
 7884TIP3    H245144   6.153   6.480   3.074 -0.4408 -0.1980 -1.2923
 7885TIP3   OH245145   5.781   1.464  15.353  0.2052 -0.2436  0.5004
 7885TIP3    H145146   5.779   1.545  15.404 -2.4744 -1.2850  2.2842
 7885TIP3    H245147   5.745   1.398  15.412  0.0160 -2.2424 -1.7059
 7886TIP3   OH245148   2.606   2.495   3.459 -0.0265 -0.2715 -0.3286
 7886TIP3    H145149   2.626   2.586   3.438 -0.7872 -0.5119 -2.2957
 7886TIP3    H245150   2.525   2.500   3.510 -0.4309  0.1295 -0.9944
 7887TIP3   OH245151   1.351   2.556  11.299 -0.2267  0.0195 -0.8818
 7887TIP3    H145152   1.364   2.467  11.268 -0.1887 -0.5272  0.6379
 7887TIP3    H245153   1.436   2.598  11.288  0.9501 -1.3298  2.0166
 7888TIP3   OH245154   3.329   3.932  11.035 -0.4806 -0.2533  0.3893
 7888TIP3    H145155   3.324   4.024  11.061 -2.0725  0.0627 -0.8365
 7888TIP3    H245156   3.356   3.934  10.943 -0.0497 -1.0340  0.4900
 7889TIP3   OH245157   0.119   1.394   0.829 -0.3117 -0.2012  0.3405
 7889TIP3    H145158   0.161   1.340   0.897  0.2061 -1.4953 -0.9616
 7889TIP3    H245159   0.040   1.346   0.806  0.0272 -0.2885 -0.6641
 7890TIP3   OH245160   5.107   4.954  14.937  0.0268  0.1982 -0.0711
 7890TIP3    H145161   5.043   4.932  14.869 -0.3017  0.7819  0.0368
 7890TIP3    H245162   5.190   4.962  14.891 -0.0731 -0.0722 -0.2967
 7891TIP3   OH245163   5.370   6.328  11.171  0.2119 -0.1294  0.3767
 7891TIP3    H145164   5.305   6.259  11.181 -0.1989 -0.1286 -1.7948
 7891TIP3    H245165   5.318   6.407  11.153  0.7612  0.2230  0.3277
 7892TIP3   OH245166   4.485   4.739   2.609 -0.3837  0.3079 -0.1402
 7892TIP3    H145167   4.563   4.701   2.650  0.1782  2.4350  0.9119
 7892TIP3    H245168   4.513   4.826   2.581 -1.3162 -0.3068 -3.3835
 7893TIP3   OH245169   3.928   5.936   6.666 -0.0269  0.4805 -0.0766
 7893TIP3    H145170   3.891   5.850   6.689 -0.4977  0.5463 -0.5808
 7893TIP3    H245171   3.851   5.992   6.653  0.1862  0.3287 -2.2888
 7894TIP3   OH245172   6.369   1.145   0.777 -0.1425 -0.2057 -0.3178
 7894TIP3    H145173   6.273   1.139   0.778 -0.2642  0.2768 -3.1264
 7894TIP3    H245174   6.387   1.238   0.764  0.7042 -0.3959 -0.5503
 7895TIP3   OH245175   3.813   3.986  11.111 -0.0864 -0.5339  0.2993
 7895TIP3    H145176   3.900   3.956  11.138  0.4675 -1.0230 -1.7982
 7895TIP3    H245177   3.792   4.058  11.171  1.5963 -0.6546  1.0828
 7896TIP3   OH245178   0.786   1.654   1.942  0.0713 -0.4300  0.2007
 7896TIP3    H145179   0.865   1.646   1.888  0.1416 -0.1497  0.2584
 7896TIP3    H245180   0.790   1.578   2.001  0.9034  0.1905  0.9802
 7897TIP3   OH245181   6.329   6.492   1.592 -0.6174 -0.4078 -0.1012
 7897TIP3    H145182   6.375   6.529   1.668  1.5671  2.9488 -2.7331
 7897TIP3    H245183   6.245   6.538   1.590 -0.7378 -0.6075  0.3584
 7898TIP3   OH245184   1.244   5.584   5.317  0.0011 -0.1874 -0.3172
 7898TIP3    H145185   1.183   5.651   5.349  0.1726  1.1786 -2.6247
 7898TIP3    H245186   1.215   5.566   5.228  0.1742 -3.0113  0.1150
 7899TIP3   OH245187   6.344   2.732   4.897  0.3484  0.5374  0.1598
 7899TIP3    H145188   6.374   2.768   4.980  0.4670 -1.0134  0.8385
 7899TIP3    H245189   6.249   2.722   4.908  0.4418 -0.2210  0.3627
 7900TIP3   OH245190   2.072   6.577   3.825  0.6608 -0.1961 -0.6563
 7900TIP3    H145191   2.110   6.489   3.821  0.4034 -0.4018  0.6934
 7900TIP3    H245192   2.147   6.635   3.841  0.5596 -0.5446  1.4935
 7901TIP3   OH245193   4.781   4.559   2.413 -0.0798 -0.7283 -0.2497
 7901TIP3    H145194   4.768   4.649   2.441 -1.3640 -1.0787  0.3624
 7901TIP3    H245195   4.839   4.521   2.479 -0.3538 -0.6268  0.0482
 7902TIP3   OH245196   4.986   5.146  16.921 -0.3805  0.5268  0.1991
 7902TIP3    H145197   5.074   5.181  16.902  0.7484 -2.1536  0.0375
 7902TIP3    H245198   4.956   5.112  16.837 -0.9277  0.0737  0.5742
 7903TIP3   OH245199   2.686   3.441  13.969  0.3779 -0.9434 -0.4575
 7903TIP3    H145200   2.639   3.464  13.888 -0.5096 -3.0852 -0.6244
 7903TIP3    H245201   2.625   3.386  14.017  0.5900  0.9097  2.1123
 7904TIP3   OH245202   4.215   5.437  11.793  0.4222 -0.0589 -0.0438
 7904TIP3    H145203   4.298   5.460  11.750  0.5112 -0.3637 -0.0377
 7904TIP3    H245204   4.229   5.459  11.885  0.5715 -0.3155 -0.0058
 7905TIP3   OH245205   3.684   5.608  14.072 -0.4069  0.2380 -0.3764
 7905TIP3    H145206   3.750   5.602  14.142 -1.1898 -1.2675  0.2892
 7905TIP3    H245207   3.641   5.692  14.086 -0.2056  0.1862  0.6332
 7906TIP3   OH245208   4.496   6.657   0.374 -0.2546  0.4066  0.0059
 7906TIP3    H145209   4.551   6.586   0.406 -0.9064  0.5112  1.4469
 7906TIP3    H245210   4.557   6.726   0.349  0.3774 -0.5588 -1.2029
 7907TIP3   OH245211   6.591   3.829  16.902  0.3507 -0.5650  0.4311
 7907TIP3    H145212   6.505   3.861  16.875  1.0926 -1.0967 -3.1982
 7907TIP3    H245213   6.644   3.908  16.910  0.2111 -0.3758 -0.3749
 7908TIP3   OH245214   3.532   5.081  15.827  0.1945 -0.6753  0.2711
 7908TIP3    H145215   3.548   5.168  15.864 -1.2584 -0.5686  0.7204
 7908TIP3    H245216   3.447   5.055  15.863  0.2061 -1.9158 -0.5377
 7909TIP3   OH245217   6.017   1.742   0.999  0.1444 -0.1362  0.2570
 7909TIP3    H145218   6.087   1.798   1.033  1.7795 -1.9011 -0.0061
 7909TIP3    H245219   5.983   1.790   0.924 -0.0736  1.5124  1.3548
 7910TIP3   OH245220   4.703   3.684  15.741 -0.2457  0.2939  0.2589
 7910TIP3    H145221   4.706   3.615  15.808  0.3995  0.2166  0.1563
 7910TIP3    H245222   4.687   3.637  15.659 -1.6951  0.4498  0.4351
 7911TIP3   OH245223   1.895   0.888   0.989  0.7136 -0.7468  0.2472
 7911TIP3    H145224   1.971   0.895   1.046  0.5681 -0.9609  0.4700
 7911TIP3    H245225   1.931   0.872   0.902  0.9288 -0.6993  0.3286
 7912TIP3   OH245226   2.310   5.477   0.531 -0.3101 -0.2356  0.3785
 7912TIP3    H145227   2.315   5.568   0.502  0.2847 -0.4894 -0.3417
 7912TIP3    H245228   2.330   5.480   0.624 -0.6332  0.4077  0.4294
 7913TIP3   OH245229   3.204   2.120  11.286 -0.2299 -0.4190 -0.3692
 7913TIP3    H145230   3.179   2.171  11.209  0.7957  0.5982 -0.0561
 7913TIP3    H245231   3.214   2.184  11.356  2.6633 -0.7358 -0.3420
 7914TIP3   OH245232   5.548   1.821   4.297  0.3408  0.6169  0.1172
 7914TIP3    H145233   5.535   1.762   4.372  1.0381 -0.4469 -0.5830
 7914TIP3    H245234   5.479   1.887   4.307 -1.7459 -1.4100 -0.1384
 7915TIP3   OH245235   4.626   0.818   3.850 -0.0831  0.4198 -0.2061
 7915TIP3    H145236   4.708   0.846   3.809  0.3722  0.7705  0.9088
 7915TIP3    H245237   4.598   0.894   3.901  0.2247 -0.5154  1.4209
 7916TIP3   OH245238   0.765   5.753  13.530  0.3159  0.0239  0.3251
 7916TIP3    H145239   0.722   5.669  13.519  0.4999 -0.2209  1.4377
 7916TIP3    H245240   0.812   5.747  13.613 -1.2618  1.8847  1.4591
 7917TIP3   OH245241   6.053   0.242  11.899  0.3347  0.0982 -0.0060
 7917TIP3    H145242   5.964   0.229  11.867  0.6500  0.8299 -1.2481
 7917TIP3    H245243   6.058   0.336  11.917  1.2621  0.3128 -1.2773
 7918TIP3   OH245244   4.754   1.482  16.703  0.3400  0.5987 -0.4677
 7918TIP3    H145245   4.703   1.429  16.643  1.5623 -0.2337 -0.8064
 7918TIP3    H245246   4.795   1.419  16.763  1.5143  1.1574 -0.6421
 7919TIP3   OH245247   0.428   3.570   3.584 -0.2282 -0.5737  0.3338
 7919TIP3    H145248   0.417   3.665   3.589  1.3796 -0.3753  0.6764
 7919TIP3    H245249   0.387   3.538   3.665 -0.8271 -0.1874  0.1913
 7920TIP3   OH245250   6.803   4.998  15.652  0.1260 -0.1155 -0.4536
 7920TIP3    H145251   6.766   5.007  15.740 -1.0506 -0.7966 -0.8518
 7920TIP3    H245252   6.815   4.904  15.641 -2.1469 -0.3144 -1.9192
 7921TIP3   OH245253   2.190   0.471  16.058 -0.3267 -0.0648 -0.2820
 7921TIP3    H145254   2.275   0.485  16.099 -0.1396  1.2323 -1.0791
 7921TIP3    H245255   2.127   0.506  16.121 -0.3407 -1.5395  0.5635
 7922TIP3   OH245256   1.451   4.268   5.248 -0.4983 -0.6185 -0.7684
 7922TIP3    H145257   1.444   4.178   5.218  0.9905 -0.7037 -0.9320
 7922TIP3    H245258   1.447   4.263   5.344 -1.0138 -0.7881 -0.7979
 7923TIP3   OH245259   2.333   0.056   0.807  0.3417 -0.0724 -0.4962
 7923TIP3    H145260   2.239   0.050   0.787  0.3362 -1.0474 -0.2559
 7923TIP3    H245261   2.350  -0.020   0.863  1.5145 -0.5879 -1.4907
 7924TIP3   OH245262   6.370   6.390  12.933 -0.1498  0.4062  0.1994
 7924TIP3    H145263   6.434   6.445  12.888 -0.9723  0.1208 -1.3969
 7924TIP3    H245264   6.420   6.345  13.000  1.3989 -0.0293 -1.1784
 7925TIP3   OH245265   6.664   1.742   5.350 -0.0650 -0.2994 -0.1809
 7925TIP3    H145266   6.650   1.669   5.288 -0.3432 -0.3254 -0.0902
 7925TIP3    H245267   6.737   1.791   5.313 -0.6408  0.0506 -0.8822
 7926TIP3   OH245268   2.879   4.768   6.139 -0.2786  0.1774 -0.4794
 7926TIP3    H145269   2.857   4.838   6.201  0.0043 -0.2646  0.1334
 7926TIP3    H245270   2.888   4.813   6.055 -1.3047  0.6994 -0.3347
 7927TIP3   OH245271   4.863   0.225   4.192  0.5292  0.0253 -0.4570
 7927TIP3    H145272   4.786   0.182   4.229  0.4225  1.1949  0.7499
 7927TIP3    H245273   4.918   0.246   4.268  0.4701  2.1808 -0.9263
 7928TIP3   OH245274   1.696   1.431   3.750  0.1540 -1.3292  0.3133
 7928TIP3    H145275   1.627   1.368   3.733  0.3661 -1.8717  1.3770
 7928TIP3    H245276   1.685   1.456   3.842 -0.1585  0.4854 -0.1696
 7929TIP3   OH245277   0.477   3.873  16.473  0.2735 -0.2677 -0.0054
 7929TIP3    H145278   0.471   3.952  16.419 -1.3937 -0.9157 -0.8301
 7929TIP3    H245279   0.439   3.898  16.557 -3.7494 -1.0131 -1.3627
 7930TIP3   OH245280   6.763   3.375   5.347 -0.9169 -0.3150  0.3112
 7930TIP3    H145281   6.737   3.323   5.423 -0.2191 -0.6332  0.3401
 7930TIP3    H245282   6.858   3.366   5.343 -0.7815  0.9243  0.2925
 7931TIP3   OH245283   5.038   3.387   6.742  0.3682 -0.0014 -0.0305
 7931TIP3    H145284   4.953   3.430   6.752  0.0186 -0.3270 -1.3972
 7931TIP3    H245285   5.019   3.294   6.744  0.6842 -0.0777 -0.4440
 7932TIP3   OH245286   6.234   3.918  12.067 -0.1952 -0.1315  0.4664
 7932TIP3    H145287   6.242   4.007  12.034  0.2348 -1.1958 -2.6294
 7932TIP3    H245288   6.322   3.881  12.058 -0.7103 -1.3327  0.1753
 7933TIP3   OH245289   0.677   2.660  11.723  0.2149  0.3779  0.1209
 7933TIP3    H145290   0.744   2.664  11.655 -1.0640  1.4215 -1.1349
 7933TIP3    H245291   0.641   2.571  11.716  0.5020  0.2813 -0.1485
 7934TIP3   OH245292   0.450   0.440  11.190 -0.0995  0.1189 -0.3474
 7934TIP3    H145293   0.504   0.510  11.155 -1.0577  0.9259 -0.2660
 7934TIP3    H245294   0.395   0.413  11.117  0.2149 -0.5049 -0.3568
 7935TIP3   OH245295   4.869   5.876  13.454 -0.6086  0.2065  0.0727
 7935TIP3    H145296   4.795   5.933  13.436 -1.0614 -0.2451  0.4790
 7935TIP3    H245297   4.877   5.821  13.376  1.9327  2.9839 -1.8505
 7936TIP3   OH245298   6.160   1.579   6.486  0.6276 -0.0231  0.2310
 7936TIP3    H145299   6.219   1.520   6.532  0.3149 -0.5542 -0.0502
 7936TIP3    H245300   6.084   1.525   6.462  0.6346  0.3254 -0.6110
 7937TIP3   OH245301   4.324   3.658   2.532  0.2024 -0.0174  0.4611
 7937TIP3    H145302   4.377   3.590   2.490 -1.0665 -0.3724 -0.6556
 7937TIP3    H245303   4.329   3.638   2.625  0.4936 -1.1793  0.2138
 7938TIP3   OH245304   1.952   5.382   6.400  0.6459 -0.2593 -0.1838
 7938TIP3    H145305   1.961   5.302   6.348 -2.3588  1.3647 -3.6570
 7938TIP3    H245306   1.894   5.358   6.472 -0.3679 -1.2382 -1.2902
 7939TIP3   OH245307   0.369   3.609   1.222 -0.0880  0.4356  0.5619
 7939TIP3    H145308   0.348   3.531   1.274  0.6589  0.0497  0.3009
 7939TIP3    H245309   0.372   3.576   1.132  2.8924  0.1554  0.6783
 7940TIP3   OH245310   4.862   3.317   6.208  0.0960  0.7415  0.3214
 7940TIP3    H145311   4.903   3.366   6.279 -1.9435  1.2032  1.2450
 7940TIP3    H245312   4.773   3.299   6.239 -1.2172  1.8009 -2.4767
 7941TIP3   OH245313   3.730   4.034  14.873  0.7171 -0.1700 -0.0216
 7941TIP3    H145314   3.731   4.129  14.889  1.2103  0.2574 -2.2974
 7941TIP3    H245315   3.649   4.018  14.825 -0.2282 -1.2326  1.8293
 7942TIP3   OH245316   4.491   5.376  12.264 -0.1888  0.1702 -0.6506
 7942TIP3    H145317   4.431   5.334  12.202 -1.3110  2.1184 -0.9505
 7942TIP3    H245318   4.527   5.450  12.217  3.1415 -1.3212 -0.7352
 7943TIP3   OH245319   0.538   6.101   2.375 -0.4599 -0.5167 -0.1731
 7943TIP3    H145320   0.518   6.039   2.305  2.6846 -1.0496 -0.7463
 7943TIP3    H245321   0.628   6.080   2.401  0.0002  2.4740  1.0426
 7944TIP3   OH245322   0.141   3.420  16.730 -0.4513 -0.0538 -0.4818
 7944TIP3    H145323   0.198   3.488  16.694  1.0718 -0.3256  1.2308
 7944TIP3    H245324   0.167   3.340  16.686  1.1710 -0.3284  0.8774
 7945TIP3   OH245325   3.155   6.740   2.561 -0.2497  0.1213 -0.1392
 7945TIP3    H145326   3.132   6.761   2.470 -1.5828  2.0031  0.5580
 7945TIP3    H245327   3.169   6.645   2.561  0.1760  0.1330 -2.3654
 7946TIP3   OH245328   5.693   5.598   3.442 -0.7521 -0.2513  0.0555
 7946TIP3    H145329   5.634   5.674   3.441 -0.1609  0.3213 -3.4002
 7946TIP3    H245330   5.642   5.529   3.484 -2.9284  0.9245 -0.5086
 7947TIP3   OH245331   5.581   1.810   5.638 -0.0566 -0.0243 -0.0402
 7947TIP3    H145332   5.635   1.887   5.652 -1.1723  0.7187  0.3453
 7947TIP3    H245333   5.571   1.771   5.725 -0.4860  0.0950 -0.0311
 7948TIP3   OH245334   3.587   4.941   5.162 -0.2859 -0.1408 -0.0713
 7948TIP3    H145335   3.633   4.879   5.107  0.1044 -0.2957  0.4291
 7948TIP3    H245336   3.503   4.899   5.181  0.3719 -0.9733  1.0987
 7949TIP3   OH245337   6.161   0.109  16.438 -0.1728  0.0934  0.4768
 7949TIP3    H145338   6.148   0.014  16.434 -4.0562  0.3407  2.0678
 7949TIP3    H245339   6.170   0.127  16.532  1.2151  1.2692  0.1370
 7950TIP3   OH245340   0.056   0.442   5.780  0.1556 -0.2817  0.1041
 7950TIP3    H145341   0.028   0.503   5.712 -0.8077  0.2327  0.9350
 7950TIP3    H245342   0.036   0.487   5.862  2.6539 -0.2223  0.7857
 7951TIP3   OH245343   5.712   5.653   4.386 -0.1035  0.5239 -0.3664
 7951TIP3    H145344   5.794   5.696   4.409  0.6833 -0.3651 -1.4112
 7951TIP3    H245345   5.667   5.715   4.329  0.1806  0.7076 -0.3904
 7952TIP3   OH245346   1.651   6.677   1.619 -0.1072 -0.3330  0.3081
 7952TIP3    H145347   1.702   6.667   1.538 -1.6348 -0.3554 -0.6896
 7952TIP3    H245348   1.709   6.726   1.677  0.6414  0.6550 -1.1793
 7953TIP3   OH245349   5.273   1.744  16.123  0.0601  0.6776  0.3212
 7953TIP3    H145350   5.286   1.677  16.055 -1.0766 -0.4927  1.2095
 7953TIP3    H245351   5.345   1.729  16.184  0.0237  0.5168  0.3261
 7954TIP3   OH245352   1.496   3.196   4.841 -0.2278  0.6108  0.5061
 7954TIP3    H145353   1.570   3.252   4.865 -0.2035  0.7037  0.2257
 7954TIP3    H245354   1.459   3.167   4.924  0.8340 -0.3746  0.6475
 7955TIP3   OH245355   0.053   3.595   2.407  0.0479 -0.2191  0.0577
 7955TIP3    H145356   0.043   3.670   2.466 -0.0499 -0.3594  0.2222
 7955TIP3    H245357   0.147   3.576   2.408 -0.0961 -0.9985  1.1581
 7956TIP3   OH245358   4.231   2.131  12.880 -0.2216 -0.3386 -0.1445
 7956TIP3    H145359   4.250   2.201  12.817 -0.8323 -0.5864 -0.6103
 7956TIP3    H245360   4.186   2.064  12.828  0.9596 -1.3934  0.1370
 7957TIP3   OH245361   3.829   3.486  14.424  0.2531  0.2236 -0.1327
 7957TIP3    H145362   3.824   3.437  14.506  0.2253  1.0296  0.3517
 7957TIP3    H245363   3.907   3.452  14.381 -0.7541 -1.5642 -0.6717
 7958TIP3   OH245364   5.819   2.960   0.236 -0.1844  0.0784  0.4500
 7958TIP3    H145365   5.776   2.917   0.310 -1.6182  1.1402  0.2920
 7958TIP3    H245366   5.751   2.963   0.168  0.4386  0.9805 -0.1572
 7959TIP3   OH245367   3.816   0.418   0.080  0.4288 -0.1695  0.3584
 7959TIP3    H145368   3.724   0.410   0.105  0.4236  4.2769  2.8229
 7959TIP3    H245369   3.818   0.396  -0.013 -2.6229 -2.6507  0.7216
 7960TIP3   OH245370   2.539   4.320   6.190 -0.2411  0.0992  0.6571
 7960TIP3    H145371   2.444   4.310   6.192 -0.4590  1.3894 -1.0406
 7960TIP3    H245372   2.553   4.415   6.193  0.7827  0.1286 -2.4193
 7961TIP3   OH245373   4.412   4.414   4.999 -0.7566  1.0057  0.1250
 7961TIP3    H145374   4.473   4.487   5.011 -1.9873  2.4844 -1.8772
 7961TIP3    H245375   4.429   4.383   4.910 -0.8020 -0.6506  0.6722
 7962TIP3   OH245376   6.692   6.386   1.432  0.0248 -0.0657  0.4746
 7962TIP3    H145377   6.635   6.451   1.393  1.8529  2.0430  1.1275
 7962TIP3    H245378   6.702   6.319   1.365 -3.6836 -0.9393  0.5873
 7963TIP3   OH245379   2.465   5.768  17.119  0.2291  0.2474 -0.6939
 7963TIP3    H145380   2.421   5.848  17.147 -0.9672 -0.2986 -0.9788
 7963TIP3    H245381   2.558   5.784  17.138 -0.1326  1.2320  0.3533
 7964TIP3   OH245382   4.351   5.858  11.940  0.4260  0.3071 -0.0639
 7964TIP3    H145383   4.312   5.805  11.870 -0.7913  0.8970  0.1454
 7964TIP3    H245384   4.428   5.898  11.899 -0.5235  0.9962 -1.2136
 7965TIP3   OH245385   2.823   3.092  15.584  0.0371  0.2714 -0.5371
 7965TIP3    H145386   2.841   3.182  15.559  0.6909  0.2498 -0.1576
 7965TIP3    H245387   2.784   3.053  15.505 -0.8865  1.0554 -0.4825
 7966TIP3   OH245388   0.641   3.500   5.572 -0.4798  0.1117  0.2099
 7966TIP3    H145389   0.633   3.582   5.523 -0.4196  0.8882  1.4550
 7966TIP3    H245390   0.631   3.432   5.506 -3.0303  1.0902 -0.5304
 7967TIP3   OH245391   4.204   1.008   0.888 -0.2426 -0.0661  0.2545
 7967TIP3    H145392   4.145   1.078   0.913 -0.5850  0.4751 -1.8493
 7967TIP3    H245393   4.191   0.999   0.793  1.5925 -1.2894  0.0711
 7968TIP3   OH245394   6.017   2.480  14.793 -0.2107 -0.0099 -0.0076
 7968TIP3    H145395   5.962   2.428  14.734  0.5109  0.3784 -1.0569
 7968TIP3    H245396   6.059   2.416  14.850 -0.7801 -0.4068 -0.0294
 7969TIP3   OH245397   5.835   0.532  12.052 -0.2409  0.4956 -0.1855
 7969TIP3    H145398   5.841   0.593  12.126  1.7334  1.2874 -0.9338
 7969TIP3    H245399   5.771   0.573  11.993 -0.3081  0.8957  0.1553
 7970TIP3   OH245400   3.655   2.821  16.917  0.1682 -0.1703  0.7395
 7970TIP3    H145401   3.675   2.912  16.939  0.6941 -0.6084  2.1840
 7970TIP3    H245402   3.740   2.777  16.914 -0.1258 -0.7557  0.7547
 7971TIP3   OH245403   1.963   5.371  14.138  0.4779 -0.4313 -0.4217
 7971TIP3    H145404   1.964   5.277  14.158  1.6924 -0.2347  0.5752
 7971TIP3    H245405   2.055   5.394  14.128  0.3258  0.9889  1.0718
 7972TIP3   OH245406   1.760   1.199   1.444 -0.6805  0.2944 -0.7795
 7972TIP3    H145407   1.853   1.179   1.461 -0.9044 -1.1199 -1.0805
 7972TIP3    H245408   1.740   1.150   1.365 -1.8850 -0.0175 -0.2960
 7973TIP3   OH245409   2.054   1.515  13.471 -0.1393  0.3640  0.1500
 7973TIP3    H145410   2.104   1.596  13.461 -0.0051  0.3892  0.9401
 7973TIP3    H245411   2.119   1.450  13.497 -0.2489 -0.0015 -0.4720
 7974TIP3   OH245412   1.005   2.665   0.906 -0.2972  0.2049 -0.6703
 7974TIP3    H145413   0.926   2.718   0.916 -1.0876  0.0631 -4.4568
 7974TIP3    H245414   1.072   2.728   0.879  0.6017  0.1212  1.2037
 7975TIP3   OH245415   1.548   6.018  12.744  0.4299  0.3220 -0.1604
 7975TIP3    H145416   1.568   5.946  12.804 -2.7207  0.7093  1.5602
 7975TIP3    H245417   1.505   5.976  12.670  0.0856  0.2800  0.0629
 7976TIP3   OH245418   3.196   6.110  12.231 -0.1906 -0.2654 -0.0455
 7976TIP3    H145419   3.202   6.193  12.279  2.6871  0.2086 -1.0189
 7976TIP3    H245420   3.145   6.131  12.153  2.1901  1.2118 -1.3014
 7977TIP3   OH245421   1.400   0.988   5.700 -0.0267  0.3350 -0.4470
 7977TIP3    H145422   1.440   0.916   5.748 -1.3136 -0.2195 -0.1504
 7977TIP3    H245423   1.372   0.948   5.617 -0.0642  0.6716 -0.5966
 7978TIP3   OH245424   4.486   1.396  10.971  0.6406 -0.0679 -0.0688
 7978TIP3    H145425   4.400   1.375  10.935 -1.5990  2.3517  3.2664
 7978TIP3    H245426   4.519   1.466  10.915 -1.5233  1.7821  0.8330
 7979TIP3   OH245427   3.469   3.335  11.533  0.0171 -0.0059 -0.7327
 7979TIP3    H145428   3.445   3.378  11.451 -0.4906 -0.7627 -0.9897
 7979TIP3    H245429   3.385   3.316  11.576  0.2915  1.0645  0.3314
 7980TIP3   OH245430   0.209   4.614  16.186  0.0261  0.1403 -0.4969
 7980TIP3    H145431   0.122   4.641  16.217  0.3072  0.4311  0.0665
 7980TIP3    H245432   0.196   4.526  16.152  0.2489 -1.6000  3.4041
 7981TIP3   OH245433   5.655   6.403  17.250 -0.6148  0.5223  0.8703
 7981TIP3    H145434   5.594   6.417  17.178 -0.7946 -2.3231  0.3196
 7981TIP3    H245435   5.600   6.376  17.324 -0.2465  0.8362  1.2649
 7982TIP3   OH245436   5.683   4.815  13.957 -0.5557  0.3633 -0.5325
 7982TIP3    H145437   5.663   4.909  13.960 -0.5051  0.3595  0.5897
 7982TIP3    H245438   5.611   4.774  14.005 -0.7123 -0.2022 -1.2419
 7983TIP3   OH245439   4.536   2.874   0.145  0.2545  0.2392 -0.2741
 7983TIP3    H145440   4.575   2.837   0.224 -0.5064  0.3082  0.1489
 7983TIP3    H245441   4.446   2.840   0.145  0.2314  0.2899 -1.0775
 7984TIP3   OH245442   2.029   3.561  14.883 -0.0283 -0.3355 -0.2447
 7984TIP3    H145443   1.976   3.485  14.906  0.2986 -0.6316 -0.4447
 7984TIP3    H245444   2.119   3.527  14.879  0.3586  0.4262  1.3689
 7985TIP3   OH245445   1.459   4.301   1.685 -0.6088 -0.0213 -0.4959
 7985TIP3    H145446   1.398   4.374   1.694 -0.9676 -0.5395  1.8296
 7985TIP3    H245447   1.438   4.263   1.599  0.1143  2.9855 -2.1375
 7986TIP3   OH245448   2.460   4.370  11.616  0.4843 -0.0061 -0.2584
 7986TIP3    H145449   2.445   4.351  11.709 -1.0400 -2.3678 -0.8779
 7986TIP3    H245450   2.386   4.426  11.591  0.5714  0.1424 -0.1857
 7987TIP3   OH245451   6.274   4.681   5.592  0.3814 -0.9006 -0.1006
 7987TIP3    H145452   6.298   4.667   5.501  0.1114 -0.3230 -0.2661
 7987TIP3    H245453   6.179   4.680   5.592  0.3835 -1.3705  0.2561
 7988TIP3   OH245454   5.365   3.352   2.008 -0.3194 -0.6260 -0.4921
 7988TIP3    H145455   5.366   3.428   2.066  0.0279 -1.0018  0.0019
 7988TIP3    H245456   5.274   3.347   1.978 -1.1856 -1.9468  2.0873
 7989TIP3   OH245457   5.400   3.605   5.466 -0.0300  0.0832  0.0637
 7989TIP3    H145458   5.405   3.511   5.445  0.0356  0.0364  0.2915
 7989TIP3    H245459   5.401   3.608   5.561  3.5128  0.4875  0.1425
 7990TIP3   OH245460   5.325   5.000   6.190 -0.4454 -0.3946 -0.1123
 7990TIP3    H145461   5.350   5.092   6.182  1.3655 -0.8582 -0.2561
 7990TIP3    H245462   5.358   4.959   6.110  0.2149 -1.4321  0.6632
 7991TIP3   OH245463   3.895   1.445  13.692 -0.6284  0.3356  0.6721
 7991TIP3    H145464   3.930   1.427  13.605  1.2187  2.0298  0.9770
 7991TIP3    H245465   3.813   1.397  13.696  1.1439 -3.1307 -0.4971
 7992TIP3   OH245466   2.216   1.248  17.030  0.1427 -0.1037 -0.1468
 7992TIP3    H145467   2.152   1.305  17.073  1.6320  1.8918 -0.4064
 7992TIP3    H245468   2.204   1.266  16.936  1.9402  1.4027 -0.1488
 7993TIP3   OH245469   4.583   3.911  12.314 -0.2123  0.1438 -0.7104
 7993TIP3    H145470   4.662   3.951  12.280  0.8509 -1.2672  0.0016
 7993TIP3    H245471   4.559   3.846  12.248  0.7567 -1.2524  0.2569
 7994TIP3   OH245472   6.569   4.667  11.045 -0.4302 -0.2125 -0.0508
 7994TIP3    H145473   6.524   4.749  11.025 -0.9352 -0.6417 -0.7417
 7994TIP3    H245474   6.620   4.648  10.965 -0.4590 -0.6550  0.0308
 7995TIP3   OH245475   4.485   6.700   2.131 -0.0632  0.4287 -0.0246
 7995TIP3    H145476   4.545   6.654   2.072  3.2214  1.6898  2.0192
 7995TIP3    H245477   4.417   6.636   2.150  2.4173 -2.4289  0.0682
 7996TIP3   OH245478   1.354   4.042  15.026  0.7321  0.2342 -0.7482
 7996TIP3    H145479   1.429   4.099  15.042  0.9261  0.3518 -1.9760
 7996TIP3    H245480   1.282   4.102  15.005  0.8135  0.0600 -1.5597
 7997TIP3   OH245481   4.238   2.353  12.038  0.6642  0.1344  0.1190
 7997TIP3    H145482   4.146   2.325  12.039 -0.2304  2.7221 -0.9939
 7997TIP3    H245483   4.267   2.336  11.949  0.6223  1.1055 -0.0914
 7998TIP3   OH245484   0.253   5.833   3.982 -0.1761 -0.0882  0.4460
 7998TIP3    H145485   0.160   5.829   4.001 -0.2041  0.5867  0.4758
 7998TIP3    H245486   0.294   5.851   4.067  0.0430 -1.0439  0.5524
 7999TIP3   OH245487   5.155   4.803   5.689 -0.8961 -0.0949  0.4308
 7999TIP3    H145488   5.173   4.890   5.653  0.2391  0.1825  1.5576
 7999TIP3    H245489   5.073   4.776   5.649  0.3691  0.0542 -2.5180
 8000TIP3   OH245490   6.048   3.551  16.795 -0.7717 -0.1116  0.4032
 8000TIP3    H145491   6.008   3.633  16.767  0.5095 -0.7039 -3.9323
 8000TIP3    H245492   5.985   3.484  16.769  1.5771 -0.8821 -4.3488
 8001TIP3   OH245493   5.870   6.312  13.416  0.4081  0.0245  0.3473
 8001TIP3    H145494   5.818   6.341  13.342 -0.5683 -1.9892  0.1757
 8001TIP3    H245495   5.945   6.371  13.418 -0.1834  0.8927 -1.4652
 8002TIP3   OH245496   6.768   5.002   1.724 -0.5374 -0.1581  0.2010
 8002TIP3    H145497   6.763   4.979   1.631 -0.3194 -1.6033  0.5328
 8002TIP3    H245498   6.811   5.088   1.724 -1.3906  0.3077 -1.0693
 8003TIP3   OH245499   0.733   2.259  12.937 -0.5448 -0.5890  0.0650
 8003TIP3    H145500   0.798   2.311  12.983 -0.7143  1.2998 -1.6839
 8003TIP3    H245501   0.680   2.219  13.007  0.1055  0.9336  1.4938
 8004TIP3   OH245502   6.154   3.224   2.511  0.3446  0.4513  0.0171
 8004TIP3    H145503   6.081   3.283   2.491 -1.0817 -0.5737  1.8972
 8004TIP3    H245504   6.209   3.273   2.571  1.0119  1.0631 -1.0600
 8005TIP3   OH245505   0.558   1.331   2.497  0.1887  0.4447  0.2602
 8005TIP3    H145506   0.515   1.301   2.416 -1.5180  0.7040  1.0160
 8005TIP3    H245507   0.532   1.266   2.563  0.8216  0.7187  0.7885
 8006TIP3   OH245508   4.251   6.307  11.391  0.0497 -0.0273 -0.0986
 8006TIP3    H145509   4.324   6.292  11.332  0.2341  0.8894 -0.1245
 8006TIP3    H245510   4.179   6.255  11.355  1.2849 -2.8324  1.2159
 8007TIP3   OH245511   0.882   3.903   2.097  0.4990  0.1637  0.2493
 8007TIP3    H145512   0.791   3.899   2.068  0.6996 -0.0890 -0.3660
 8007TIP3    H245513   0.885   3.851   2.177 -0.7573  3.5011  2.6998
 8008TIP3   OH245514   1.268   3.827  15.997 -0.1470  0.0275 -0.2422
 8008TIP3    H145515   1.174   3.811  15.990 -0.6738  1.4902  2.3129
 8008TIP3    H245516   1.294   3.853  15.909 -1.9585 -1.0790 -1.1705
 8009TIP3   OH245517   5.193   4.283   3.809  0.6197 -0.0051 -0.4689
 8009TIP3    H145518   5.276   4.311   3.849  1.0601  0.8095 -1.8946
 8009TIP3    H245519   5.219   4.224   3.739 -0.0988 -0.7161 -0.1568
 8010TIP3   OH245520   6.057   0.993   2.287 -0.5649  0.6768 -0.7359
 8010TIP3    H145521   6.127   0.941   2.245  0.0592  1.1681 -0.3206
 8010TIP3    H245522   5.977   0.966   2.241 -0.2114 -0.4274 -0.7361
 8011TIP3   OH245523   5.008   1.856  16.291  0.2751 -0.4736  0.3400
 8011TIP3    H145524   5.078   1.920  16.308 -0.3028  0.6397 -1.2346
 8011TIP3    H245525   4.935   1.886  16.343  0.1431 -0.0829 -0.0638
 8012TIP3   OH245526   0.228   4.507  16.750  0.4195  0.0948  0.5364
 8012TIP3    H145527   0.156   4.554  16.709  0.6480 -0.3768 -0.4140
 8012TIP3    H245528   0.233   4.544  16.839 -1.0485  0.0595  0.6552
 8013TIP3   OH245529   4.440   2.654  16.169 -0.2697 -0.1567 -0.3547
 8013TIP3    H145530   4.493   2.691  16.239 -2.0711  1.3524  0.2983
 8013TIP3    H245531   4.350   2.678  16.191 -0.9846 -0.2886 -2.7925
 8014TIP3   OH245532   1.832   1.240   1.947  0.3972  0.1369  0.4070
 8014TIP3    H145533   1.912   1.247   1.998  0.2680 -0.4582  0.6924
 8014TIP3    H245534   1.828   1.322   1.898  2.7357 -0.9950 -1.9186
 8015TIP3   OH245535   1.699   6.104  14.138  0.0609 -0.5902  0.5826
 8015TIP3    H145536   1.610   6.080  14.162 -0.0158 -0.0731  0.8351
 8015TIP3    H245537   1.750   6.092  14.219 -0.4535  2.4909  1.5119
 8016TIP3   OH245538   3.338   5.224  16.358 -0.0315  0.1130  0.2963
 8016TIP3    H145539   3.419   5.197  16.313  0.1917  1.3334 -0.0681
 8016TIP3    H245540   3.272   5.222  16.289  0.3743  2.2952 -0.2222
 8017TIP3   OH245541   6.006   1.895  15.748  0.6460  0.1474  0.0417
 8017TIP3    H145542   6.088   1.854  15.775  1.0614 -1.0195 -2.7464
 8017TIP3    H245543   6.032   1.982  15.718  0.6396  0.2509  0.3242
 8018TIP3   OH245544   0.547   0.726  15.715  0.2933 -1.0221 -0.0447
 8018TIP3    H145545   0.616   0.665  15.741  0.8567  0.0329  1.0327
 8018TIP3    H245546   0.525   0.773  15.796 -2.8642 -2.4263  0.0598
 8019TIP3   OH245547   0.581   0.223  10.352 -0.3251  0.4302  0.0746
 8019TIP3    H145548   0.494   0.192  10.376 -1.2904  3.2375  0.6382
 8019TIP3    H245549   0.626   0.235  10.435 -0.1354  0.8631 -0.0868
 8020TIP3   OH245550   5.733   2.494   2.439  0.1072  0.4248  0.4219
 8020TIP3    H145551   5.734   2.589   2.437  0.4098  0.4151  0.0834
 8020TIP3    H245552   5.682   2.469   2.362 -2.4270  0.3575  2.0135
 8021TIP3   OH245553   3.109   4.148  12.592  0.2571 -0.5079 -0.5265
 8021TIP3    H145554   3.106   4.155  12.688  1.0259  0.3174 -0.5455
 8021TIP3    H245555   3.156   4.066  12.576  0.1720 -0.6244 -0.1954
 8022TIP3   OH245556   5.643   3.727  12.115  0.6503 -0.7502  0.1358
 8022TIP3    H145557   5.667   3.686  12.032 -1.5016  0.4035 -1.1553
 8022TIP3    H245558   5.573   3.671  12.150  1.4508 -1.1527  1.1179
 8023TIP3   OH245559   2.193   0.239   1.636 -0.0864  0.0163 -0.9417
 8023TIP3    H145560   2.180   0.156   1.682 -1.9033  0.3935 -0.6936
 8023TIP3    H245561   2.151   0.225   1.551 -1.3105  0.9770 -0.5243
 8024TIP3   OH245562   2.698   0.624  10.735 -0.0957  0.0874 -0.3250
 8024TIP3    H145563   2.655   0.699  10.777  1.3061  1.2541 -0.9099
 8024TIP3    H245564   2.764   0.596  10.797 -0.6785 -0.7600 -0.0668
 8025TIP3   OH245565   4.597   2.685  14.998 -0.6315  0.1259  0.3399
 8025TIP3    H145566   4.670   2.741  15.024 -0.0634 -0.6349  0.4221
 8025TIP3    H245567   4.605   2.607  15.053 -2.0676  0.4152  1.0137
 8026TIP3   OH245568   5.141   3.067  12.992  0.7085 -0.2789  0.1934
 8026TIP3    H145569   5.162   3.008  13.065  0.6475 -2.1347 -1.1910
 8026TIP3    H245570   5.057   3.106  13.015  0.9783 -0.3790  1.3771
 8027TIP3   OH245571   6.554   6.088   2.174 -0.4506  0.3631  0.4152
 8027TIP3    H145572   6.564   6.018   2.109  0.8985  0.9668 -0.0626
 8027TIP3    H245573   6.460   6.093   2.188 -0.5561 -2.0630  1.0502
 8028TIP3   OH245574   0.620   1.352  15.560 -0.2786 -0.3466 -0.6131
 8028TIP3    H145575   0.536   1.348  15.512  0.1661  0.6607 -1.5146
 8028TIP3    H245576   0.600   1.402  15.639 -0.3199  0.7837 -1.3181
 8029TIP3   OH245577   1.778   1.914  13.656 -0.1234  0.0597 -0.6021
 8029TIP3    H145578   1.858   1.862  13.665 -1.2785 -1.8989 -1.0148
 8029TIP3    H245579   1.714   1.869  13.712 -1.3948  0.5748 -1.6072
 8030TIP3   OH245580   3.139   6.352  16.528 -0.2028  0.2418 -0.2957
 8030TIP3    H145581   3.230   6.366  16.553 -0.0624  0.1293 -0.7453
 8030TIP3    H245582   3.121   6.261  16.554  0.0165  0.0453 -0.8046
 8031TIP3   OH245583   1.096   4.040  16.242  0.0641  0.5372  0.0354
 8031TIP3    H145584   1.089   4.036  16.337  0.0527 -0.6146 -0.0049
 8031TIP3    H245585   1.076   3.951  16.212 -1.7284  1.2850 -1.1672
 8032TIP3   OH245586   4.679   5.729  14.470 -0.6297  0.2772  0.6245
 8032TIP3    H145587   4.683   5.734  14.566  2.6226  0.5687  0.5694
 8032TIP3    H245588   4.697   5.818  14.441  0.4230 -0.1999 -0.2385
 8033TIP3   OH245589   2.579   5.155   1.062 -0.0740 -0.0559  0.0980
 8033TIP3    H145590   2.613   5.103   1.135  0.9251  0.4080 -0.0083
 8033TIP3    H245591   2.511   5.101   1.022 -0.0660 -0.6543  0.8788
 8034TIP3   OH245592   6.710   4.887  10.030 -0.2985 -0.2956 -0.2781
 8034TIP3    H145593   6.712   4.947  10.104 -0.1743 -0.0739 -0.4581
 8034TIP3    H245594   6.729   4.943   9.954  0.5131 -0.6792 -0.3688
 8035TIP3   OH245595   0.849   0.045   2.294  0.3002 -0.0354 -0.2428
 8035TIP3    H145596   0.806   0.128   2.270 -0.0805 -0.7526 -2.2833
 8035TIP3    H245597   0.813   0.022   2.379 -1.0975  0.9047 -0.5546
 8036TIP3   OH245598   0.744   2.376   0.653  0.0587  0.0111 -0.0844
 8036TIP3    H145599   0.781   2.375   0.741 -0.7178 -0.1097  0.2409
 8036TIP3    H245600   0.747   2.285   0.624 -1.3475 -0.2361  0.5182
 8037TIP3   OH245601   0.563   0.391   2.745  0.2129 -0.1506  0.2510
 8037TIP3    H145602   0.471   0.371   2.733  0.6312 -1.3323 -1.2696
 8037TIP3    H245603   0.604   0.307   2.767  0.7539  0.5927  2.4487
 8038TIP3   OH245604   5.847   3.790   3.814  0.1767  0.7776 -0.2811
 8038TIP3    H145605   5.801   3.707   3.831  1.7759 -0.2495 -0.7233
 8038TIP3    H245606   5.813   3.819   3.729 -1.9065  1.7071  0.7965
 8039TIP3   OH245607   4.659   5.031  15.079  0.0106  0.2487 -0.0146
 8039TIP3    H145608   4.602   5.043  15.004  0.3056  1.7033 -0.0412
 8039TIP3    H245609   4.735   5.086  15.060  0.3433  0.1856  1.0771
 8040TIP3   OH245610   6.792   6.062   5.343  0.0547  0.5110  0.4303
 8040TIP3    H145611   6.805   6.094   5.432  1.1960  0.3240  0.3456
 8040TIP3    H245612   6.843   6.122   5.288  0.8522 -0.4496  0.1000
 8041TIP3   OH245613   3.218   3.141  13.933 -0.4437  0.0015 -0.9032
 8041TIP3    H145614   3.227   3.175  14.021 -1.0340  0.5004 -1.0310
 8041TIP3    H245615   3.249   3.051  13.939 -0.2380  0.1109 -0.2474
 8042TIP3   OH245616   1.105   1.347   1.065 -0.1809  0.7769  0.2548
 8042TIP3    H145617   1.166   1.281   1.099  0.3349  0.8261 -0.5395
 8042TIP3    H245618   1.031   1.296   1.033 -0.5925  0.7187  1.2688
 8043TIP3   OH245619   5.957   2.520   5.697  0.6790 -0.2907  0.0356
 8043TIP3    H145620   5.923   2.450   5.753  0.8634 -0.4828 -0.0951
 8043TIP3    H245621   6.040   2.545   5.738  1.5095 -1.3704 -0.9083
 8044TIP3   OH245622   5.891   2.691  16.860 -0.4966  0.0724  0.0568
 8044TIP3    H145623   5.859   2.603  16.881  0.2538 -0.0182  0.9084
 8044TIP3    H245624   5.813   2.740  16.834 -1.2963 -0.2133  1.7896
 8045TIP3   OH245625   5.448   6.667  14.103 -0.3804  0.2519  0.6365
 8045TIP3    H145626   5.393   6.606  14.053  1.5749 -0.3741 -0.8767
 8045TIP3    H245627   5.400   6.750  14.100 -1.2663 -0.2682 -0.6307
 8046TIP3   OH245628   2.903   5.995  13.441  0.1263  0.1101 -0.0006
 8046TIP3    H145629   2.808   5.989  13.441  0.1422 -0.1717 -0.8961
 8046TIP3    H245630   2.924   6.048  13.518 -0.7668  0.4833 -0.0168
 8047TIP3   OH245631   4.108   5.806   0.197 -0.1499  0.0085 -0.4941
 8047TIP3    H145632   4.089   5.752   0.121  0.5504 -2.7537  1.1488
 8047TIP3    H245633   4.118   5.895   0.162  0.0909 -1.1204 -3.5686
 8048TIP3   OH245634   4.157   1.599   4.747 -0.2408  0.0697 -0.2800
 8048TIP3    H145635   4.138   1.639   4.832 -1.4609  0.5998 -0.7799
 8048TIP3    H245636   4.232   1.649   4.713 -0.1474  0.2613  0.2058
 8049TIP3   OH245637   3.707   6.238   2.967 -0.1166  0.7753  0.3251
 8049TIP3    H145638   3.664   6.247   3.051 -1.0732 -0.9074  0.0680
 8049TIP3    H245639   3.688   6.319   2.921 -1.0614  1.0011  1.0846
 8050TIP3   OH245640   1.541   4.451   3.239 -0.5832  0.0149  0.0205
 8050TIP3    H145641   1.516   4.538   3.270 -0.0377 -0.0377  0.6533
 8050TIP3    H245642   1.632   4.441   3.268  0.4151  0.4450 -2.6946
 8051TIP3   OH245643   3.639   5.963  11.198 -0.1748 -0.5983 -0.2565
 8051TIP3    H145644   3.604   6.003  11.278  1.2652 -1.2104  0.7229
 8051TIP3    H245645   3.718   5.917  11.227  1.1564  0.2857 -2.2556
 8052TIP3   OH245646   4.205   6.484   3.232  0.1600  0.2184  0.9794
 8052TIP3    H145647   4.290   6.488   3.188  0.1132  0.1776  0.8840
 8052TIP3    H245648   4.216   6.536   3.312  0.9338 -1.5705  2.1009
 8053TIP3   OH245649   2.493   4.943   2.602  0.2040  0.8560 -0.1265
 8053TIP3    H145650   2.526   5.033   2.604  2.5275  0.0888 -0.6349
 8053TIP3    H245651   2.451   4.935   2.517  4.3818  0.1874 -2.4161
 8054TIP3   OH245652   6.004   4.872   4.273  0.4498  0.6162 -0.0259
 8054TIP3    H145653   5.972   4.792   4.230 -0.8470  0.5641  0.9762
 8054TIP3    H245654   6.003   4.938   4.203 -0.8057  0.3286 -0.3194
 8055TIP3   OH245655   2.814   2.639  11.610 -0.2618  0.1557  0.5492
 8055TIP3    H145656   2.751   2.568  11.609  0.0519 -0.2495  2.8954
 8055TIP3    H245657   2.763   2.717  11.634 -0.1554  0.1738  0.7177
 8056TIP3   OH245658   6.417   2.447  14.591 -0.4866  0.2007  0.2686
 8056TIP3    H145659   6.355   2.402  14.533 -1.7069  1.2511  0.6948
 8056TIP3    H245660   6.446   2.523  14.540 -2.3616  1.7123  1.3089
 8057TIP3   OH245661   1.423   5.583   4.066 -0.5553  0.5357  0.5466
 8057TIP3    H145662   1.510   5.586   4.105  0.5721  1.6971 -1.8618
 8057TIP3    H245663   1.425   5.506   4.008 -1.3335  0.2619  0.8684
 8058TIP3   OH245664   2.282   0.070   4.112 -0.1063  0.4535  0.6669
 8058TIP3    H145665   2.307   0.022   4.033 -2.6073  1.4206 -0.8346
 8058TIP3    H245666   2.221   0.137   4.081 -0.4820  1.4640  3.3219
 8059TIP3   OH245667   5.166   6.066   3.173  0.1540 -0.1077  0.1057
 8059TIP3    H145668   5.225   6.140   3.166 -1.2198  1.3446  2.6162
 8059TIP3    H245669   5.089   6.092   3.123  0.2997 -0.5747 -0.3733
 8060TIP3   OH245670   4.000   5.955   3.235 -0.2036  0.5376 -0.2993
 8060TIP3    H145671   3.931   5.890   3.218 -0.2977  0.6997 -0.5484
 8060TIP3    H245672   3.989   6.019   3.165 -0.9144  1.4995  0.6667
 8061TIP3   OH245673   3.838   6.306  12.440 -0.4625 -0.0841 -0.8668
 8061TIP3    H145674   3.784   6.323  12.363 -0.4683  1.2993 -0.5715
 8061TIP3    H245675   3.890   6.229  12.415 -3.2405 -2.1806 -0.7987
 8062TIP3   OH245676   1.989   3.196  12.673  0.8604 -0.0178 -0.4773
 8062TIP3    H145677   1.983   3.288  12.699  1.3736 -0.9769  3.7412
 8062TIP3    H245678   2.072   3.166  12.709  0.4145 -2.3308 -1.2054
 8063TIP3   OH245679   3.437   1.487  15.340  0.0828 -0.1076 -0.3751
 8063TIP3    H145680   3.475   1.451  15.420 -1.1045 -1.3309 -0.3181
 8063TIP3    H245681   3.392   1.567  15.368  1.4569  0.6528 -0.2307
 8064TIP3   OH245682   5.551   5.640  11.405  0.1006  0.4872 -0.1237
 8064TIP3    H145683   5.628   5.602  11.363 -0.3247  0.1018 -0.5706
 8064TIP3    H245684   5.586   5.690  11.479  0.9839  2.2460 -1.6642
 8065TIP3   OH245685   4.186   4.855   5.043 -0.0874 -0.6659  0.4976
 8065TIP3    H145686   4.103   4.886   5.008 -0.1919 -2.0797 -0.5899
 8065TIP3    H245687   4.169   4.764   5.069  1.1458 -1.0160  0.1438
 8066TIP3   OH245688   6.273   2.639  15.198  0.0169 -0.1868  0.1825
 8066TIP3    H145689   6.367   2.619  15.196  0.3528  1.3508 -1.2331
 8066TIP3    H245690   6.264   2.700  15.272  0.0937 -0.5107  0.4604
 8067TIP3   OH245691   3.167   0.847   0.206  0.5413  0.1155 -0.3736
 8067TIP3    H145692   3.075   0.854   0.182  0.1658 -1.3047  0.5228
 8067TIP3    H245693   3.189   0.755   0.188  1.6273  0.3033 -0.0440
 8068TIP3   OH245694   1.530   2.919   1.118  0.1314 -0.2625  0.0287
 8068TIP3    H145695   1.461   2.982   1.100  0.7676  0.3939 -0.1437
 8068TIP3    H245696   1.546   2.927   1.212 -1.6415 -2.1009  0.5501
 8069TIP3   OH245697   1.422   4.159  15.949 -0.6212  0.5448  0.1945
 8069TIP3    H145698   1.373   4.167  16.031 -0.2669  0.1021  0.4518
 8069TIP3    H245699   1.379   4.088  15.902  1.3981 -1.7618  1.6155
 8070TIP3   OH245700   4.860   6.542   5.515  0.3201  0.0630 -0.2882
 8070TIP3    H145701   4.816   6.597   5.450 -0.4648  1.0618  1.0300
 8070TIP3    H245702   4.822   6.570   5.599  0.1474 -2.2462  0.4743
 8071TIP3   OH245703   6.199   3.848  12.351  0.2653  0.2984 -0.3755
 8071TIP3    H145704   6.210   3.905  12.275  0.6819  2.6795  1.3459
 8071TIP3    H245705   6.148   3.774  12.319  1.2565  0.7284 -3.1545
 8072TIP3   OH245706   6.320   4.836  14.314  1.0776 -0.1477 -0.5229
 8072TIP3    H145707   6.352   4.856  14.402  0.9096  1.2798 -0.7743
 8072TIP3    H245708   6.241   4.889  14.304  0.0062 -1.7380 -0.8487
 8073TIP3   OH245709   1.675   2.610  12.388  0.0785  0.2438 -0.8569
 8073TIP3    H145710   1.759   2.563  12.381  1.0534  1.7726 -0.0465
 8073TIP3    H245711   1.648   2.596  12.478  0.0520  0.7014 -0.7934
 8074TIP3   OH245712   5.182   0.457   1.020 -0.0525 -0.4590 -0.0102
 8074TIP3    H145713   5.234   0.404   1.081  0.2534 -1.2014 -0.8972
 8074TIP3    H245714   5.243   0.480   0.950 -0.2470  0.8985  0.2394
 8075TIP3   OH245715   2.951   0.344   3.527  0.1927  0.1207 -0.1317
 8075TIP3    H145716   2.999   0.407   3.580  1.2406 -0.7074 -0.0538
 8075TIP3    H245717   2.947   0.384   3.440  0.2227  0.6126  0.0927
 8076TIP3   OH245718   2.056   4.470   5.609 -0.1056  0.1333 -0.3700
 8076TIP3    H145719   2.050   4.375   5.598  1.4422 -0.0056 -0.2770
 8076TIP3    H245720   2.116   4.498   5.540  0.7773  0.7939  0.6342
 8077TIP3   OH245721   2.051   2.139  17.079 -0.2901 -0.1342 -0.1916
 8077TIP3    H145722   1.959   2.167  17.078 -0.2218  0.3360  1.7096
 8077TIP3    H245723   2.047   2.045  17.098 -0.4006 -0.6454 -2.4770
 8078TIP3   OH245724   6.284   2.172   6.084  0.4107 -0.3192  0.3996
 8078TIP3    H145725   6.243   2.259   6.083  1.9833  0.4760 -0.7098
 8078TIP3    H245726   6.263   2.135   5.998 -0.2083 -1.0397  0.8490
 8079TIP3   OH245727   5.844   4.578   3.254 -0.9832  0.0458 -0.0041
 8079TIP3    H145728   5.912   4.636   3.222 -1.6384  0.0288 -1.5035
 8079TIP3    H245729   5.768   4.597   3.199 -1.6846 -1.1078  0.5196
 8080TIP3   OH245730   0.778   5.199   4.506  0.6163 -0.7459 -0.1693
 8080TIP3    H145731   0.705   5.261   4.501  2.5923  1.6801 -1.5557
 8080TIP3    H245732   0.782   5.161   4.418  1.0969 -0.7574 -0.1424
 8081TIP3   OH245733   3.972   3.820   4.417 -0.4958  0.2150 -0.0123
 8081TIP3    H145734   3.930   3.846   4.335  1.6265  1.9181 -0.6543
 8081TIP3    H245735   3.908   3.840   4.485 -0.3466  4.1163 -0.8141
 8082TIP3   OH245736   2.080   1.999   3.618 -0.8033  0.2843 -0.5065
 8082TIP3    H145737   2.165   1.963   3.643  0.2690  0.9064 -2.9084
 8082TIP3    H245738   2.021   1.924   3.618  0.6872 -1.0040 -2.4650
 8083TIP3   OH245739   6.632   4.632   2.583  0.1584 -0.0118  0.5523
 8083TIP3    H145740   6.626   4.572   2.509  1.9538  0.5518 -0.1060
 8083TIP3    H245741   6.610   4.579   2.660  0.8118 -1.2708 -0.1110
 8084TIP3   OH245742   3.983   6.187   3.019  0.0895 -0.3699 -0.1822
 8084TIP3    H145743   4.037   6.241   2.960 -1.2656  0.5834 -0.5863
 8084TIP3    H245744   3.895   6.192   2.982 -0.7919  0.1855  1.8840
 8085TIP3   OH245745   5.046   3.770   0.757  0.3564 -0.5303  0.1615
 8085TIP3    H145746   5.017   3.740   0.843 -1.3138 -0.0275 -0.1870
 8085TIP3    H245747   5.141   3.768   0.761  0.3105 -2.0976  1.4612
 8086TIP3   OH245748   4.689   2.677  15.378 -0.0723 -0.1712 -0.6858
 8086TIP3    H145749   4.713   2.764  15.409 -0.6655 -0.8456  1.9435
 8086TIP3    H245750   4.611   2.691  15.325  0.3308  0.9859 -0.9967
 8087TIP3   OH245751   1.046   6.396   6.361 -0.0315  0.3477 -0.2348
 8087TIP3    H145752   1.130   6.430   6.331 -0.7738  1.5471 -1.0111
 8087TIP3    H245753   1.052   6.301   6.346  0.0059  0.7470 -3.3287
 8088TIP3   OH245754   4.308   5.740   3.428 -0.2325  0.5230 -0.4654
 8088TIP3    H145755   4.315   5.783   3.513 -1.3341  1.4245 -0.8046
 8088TIP3    H245756   4.257   5.661   3.445 -0.0698  0.4693 -0.2202
 8089TIP3   OH245757   5.374   0.322  15.079 -0.3782  0.9719 -0.0612
 8089TIP3    H145758   5.437   0.253  15.061 -1.0371 -0.1413  1.6602
 8089TIP3    H245759   5.342   0.349  14.993  0.6759 -0.0974 -0.8191
 8090TIP3   OH245760   5.849   6.764   2.849 -0.4788 -0.6298 -0.1597
 8090TIP3    H145761   5.880   6.677   2.824  2.0196  0.8238 -2.6364
 8090TIP3    H245762   5.785   6.787   2.782 -0.8401 -0.4046  0.2586
 8091TIP3   OH245763   4.282   3.770   3.791  0.6593 -0.2584  0.0756
 8091TIP3    H145764   4.248   3.820   3.866 -0.5584 -0.4030 -0.3563
 8091TIP3    H245765   4.289   3.834   3.721  0.4491 -0.4061 -0.0808
 8092TIP3   OH245766   2.239   1.420  14.980 -0.2872 -0.0051  0.2143
 8092TIP3    H145767   2.248   1.424  14.884 -1.7919  0.1679  0.0548
 8092TIP3    H245768   2.198   1.335  14.996  0.3010 -0.1907  0.7410
 8093TIP3   OH245769   5.059   1.847   2.486 -0.0122  0.0796  0.3827
 8093TIP3    H145770   5.032   1.798   2.408 -1.2162  0.6275  0.4268
 8093TIP3    H245771   5.101   1.926   2.452 -0.3840  0.2357  0.2764
 8094TIP3   OH245772   4.698   2.977  13.939  0.2246  0.0537 -0.0960
 8094TIP3    H145773   4.710   3.070  13.957  0.1018  0.1858 -0.6642
 8094TIP3    H245774   4.652   2.943  14.016 -1.0931  0.7779 -0.5247
 8095TIP3   OH245775   3.663   2.954  13.405 -0.3923 -0.1894  0.6310
 8095TIP3    H145776   3.740   2.932  13.352 -0.2967  0.1746  0.6205
 8095TIP3    H245777   3.621   3.026  13.358 -0.8459 -0.5104  0.5357
 8096TIP3   OH245778   0.053   5.643  10.333 -0.4289 -0.0276  0.2373
 8096TIP3    H145779   0.026   5.639  10.425 -0.6073 -1.0979  0.1523
 8096TIP3    H245780   0.129   5.586  10.328 -0.3895  0.0646 -0.2671
 8097TIP3   OH245781   0.191   4.118  15.514 -0.8604 -1.1225 -0.2228
 8097TIP3    H145782   0.206   4.094  15.605  0.2067 -0.5988 -0.2416
 8097TIP3    H245783   0.189   4.035  15.467  2.0101 -1.3374 -0.1744
 8098TIP3   OH245784   2.377   5.283   0.098 -0.1077  0.0029  0.5762
 8098TIP3    H145785   2.306   5.333   0.057 -0.0565 -1.0751 -0.8977
 8098TIP3    H245786   2.455   5.309   0.049  0.2375 -0.1248  1.0524
 8099TIP3   OH245787   1.265   2.908   4.197  0.0847  0.5619 -0.0308
 8099TIP3    H145788   1.350   2.920   4.239 -0.4600 -0.3158  1.4006
 8099TIP3    H245789   1.253   2.813   4.192 -1.0555  0.6688  0.3194
 8100TIP3   OH245790   4.347   4.308  15.011 -0.4194 -0.2888 -0.2981
 8100TIP3    H145791   4.353   4.217  15.039 -1.4010 -0.4121 -0.4828
 8100TIP3    H245792   4.421   4.319  14.950  1.1585 -0.2893  1.5118
 8101TIP3   OH245793   1.322   0.948   1.826  0.1959  0.4241 -0.1325
 8101TIP3    H145794   1.313   0.922   1.735  0.0742 -0.6220  0.1691
 8101TIP3    H245795   1.250   0.905   1.871  0.3798  0.7549  0.4989
 8102TIP3   OH245796   2.489   6.479   2.737  0.6072 -0.1023  0.0374
 8102TIP3    H145797   2.530   6.562   2.759  0.1109 -0.3219  1.9619
 8102TIP3    H245798   2.397   6.500   2.724  0.5814 -0.2662 -0.0501
 8103TIP3   OH245799   1.254   0.990   2.865  0.6250 -0.1220 -0.2406
 8103TIP3    H145800   1.192   0.926   2.830  0.1627  0.9789 -1.5456
 8103TIP3    H245801   1.338   0.964   2.828  0.6971 -0.7752  0.3632
 8104TIP3   OH245802   4.993   4.217   4.834 -0.7446 -0.6445  0.4479
 8104TIP3    H145803   4.971   4.132   4.872  2.1247 -1.4921  0.5056
 8104TIP3    H245804   5.089   4.221   4.839 -0.7127  2.1913 -0.4636
 8105TIP3   OH245805   4.429   1.799  13.355 -0.1783  0.3537  0.4630
 8105TIP3    H145806   4.432   1.831  13.446 -0.1200 -0.5618  0.7996
 8105TIP3    H245807   4.505   1.741  13.347 -0.2377  0.3535 -0.1431
 8106TIP3   OH245808   3.813   6.181  17.233  0.3274  0.0849 -0.1356
 8106TIP3    H145809   3.820   6.276  17.234  1.4646  0.0764 -2.5578
 8106TIP3    H245810   3.721   6.164  17.256  0.1063  1.7273  0.3340
 8107TIP3   OH245811   2.660   6.746   4.818  0.1786  0.7657  0.5995
 8107TIP3    H145812   2.676   6.836   4.845 -0.4672  0.5383  1.7868
 8107TIP3    H245813   2.565   6.737   4.818  0.1142  0.7782 -1.9240
 8108TIP3   OH245814   5.489   4.797  17.133 -0.1765 -0.1220  0.0309
 8108TIP3    H145815   5.399   4.793  17.100  0.4792 -1.5130 -1.7593
 8108TIP3    H245816   5.503   4.890  17.152 -1.7607  0.2300 -0.3381
 8109TIP3   OH245817   2.159   5.170   0.917 -0.3321  0.1902 -0.3509
 8109TIP3    H145818   2.112   5.088   0.925  1.2971 -0.8315 -0.7519
 8109TIP3    H245819   2.199   5.167   0.830 -2.0743  2.4684 -1.3482
 8110TIP3   OH245820   0.078   0.631  15.554 -0.2294  0.0676  0.3211
 8110TIP3    H145821   0.154   0.593  15.598 -0.3022  2.2692  2.5161
 8110TIP3    H245822   0.005   0.573  15.578  0.1381 -0.0151  1.2846
 8111TIP3   OH245823   6.552   0.245   4.192 -0.5095  0.2070  0.4424
 8111TIP3    H145824   6.537   0.224   4.285 -0.4930  0.2932  0.4646
 8111TIP3    H245825   6.512   0.173   4.144  0.0567 -0.1828  0.5347
 8112TIP3   OH245826   1.285   4.705   4.118 -0.0967  0.0618  0.5128
 8112TIP3    H145827   1.255   4.771   4.056 -0.4090  1.4908  2.0977
 8112TIP3    H245828   1.238   4.724   4.199  1.5619 -0.6074  1.7110
 8113TIP3   OH245829   4.063   5.653  14.118 -0.2062 -0.7355  0.2422
 8113TIP3    H145830   4.113   5.734  14.127  1.5385 -1.5956 -1.1246
 8113TIP3    H245831   4.089   5.601  14.193  0.5597 -0.9631 -0.1718
 8114TIP3   OH245832   0.108   5.194   2.877  0.5525 -0.0735 -0.3223
 8114TIP3    H145833   0.032   5.175   2.822 -0.5957 -0.8125  1.4273
 8114TIP3    H245834   0.101   5.288   2.896 -1.6272 -0.5966  2.0841
 8115TIP3   OH245835   0.955   6.499  12.818  0.3734  0.6363 -0.0899
 8115TIP3    H145836   0.923   6.567  12.759  0.9016  0.6322 -0.3889
 8115TIP3    H245837   0.965   6.543  12.902 -1.0824  0.4685  0.2022
 8116TIP3   OH245838   4.292   1.509  16.298 -0.0788  0.0077  0.1906
 8116TIP3    H145839   4.266   1.418  16.312  0.3896 -1.5032 -5.9167
 8116TIP3    H245840   4.209   1.555  16.281 -0.1227  0.0050  0.3993
 8117TIP3   OH245841   5.429   5.497   1.711 -0.7201 -0.0770  0.1665
 8117TIP3    H145842   5.334   5.485   1.698 -1.1619  0.4011  2.4076
 8117TIP3    H245843   5.459   5.541   1.632 -2.6485  1.0191 -0.0243
 8118TIP3   OH245844   1.396   5.798  12.419 -0.7756  0.1228  0.2596
 8118TIP3    H145845   1.449   5.870  12.387  0.1526 -0.1521  1.1134
 8118TIP3    H245846   1.410   5.727  12.356  1.2981 -0.5256  1.3342
 8119TIP3   OH245847   5.261   5.836   4.737 -0.2726  0.3023 -0.2005
 8119TIP3    H145848   5.290   5.925   4.760  1.2564 -0.3623  0.5543
 8119TIP3    H245849   5.334   5.800   4.686 -0.8773 -0.5392 -0.4882
 8120TIP3   OH245850   6.053   1.507   3.289  0.2572 -0.1335  0.5227
 8120TIP3    H145851   6.073   1.596   3.260 -0.6687 -0.2089 -0.3888
 8120TIP3    H245852   6.103   1.497   3.371  0.7475  1.0440  0.3894
 8121TIP3   OH245853   1.867   6.292  14.017  0.5771  0.5718 -0.0321
 8121TIP3    H145854   1.821   6.366  13.977  0.2838  0.6054  0.3655
 8121TIP3    H245855   1.802   6.250  14.073  2.0762  3.3083  4.2818
 8122TIP3   OH245856   2.946   4.310  15.689 -0.2096  0.0603  0.8005
 8122TIP3    H145857   2.871   4.343  15.740  0.2497  0.0287  1.5111
 8122TIP3    H245858   3.020   4.362  15.719 -0.1252  0.8941 -0.7349
 8123TIP3   OH245859   3.339   3.746  11.460  0.2826 -0.3075 -0.1166
 8123TIP3    H145860   3.247   3.732  11.435  0.1805  1.1751 -0.6628
 8123TIP3    H245861   3.387   3.681  11.410 -0.3752 -0.4143 -0.6255
 8124TIP3   OH245862   4.029   6.019   0.476 -0.1868 -0.1255  0.0959
 8124TIP3    H145863   4.125   6.022   0.474 -0.2036  0.0301 -0.5578
 8124TIP3    H245864   4.009   5.935   0.519  0.2511 -1.3071 -1.8578
 8125TIP3   OH245865   6.624   6.628  16.332  0.3388 -0.0440  0.6867
 8125TIP3    H145866   6.564   6.687  16.378  0.2809  0.9214 -0.5674
 8125TIP3    H245867   6.630   6.665  16.244  2.1526 -0.5887  0.5541
 8126TIP3   OH245868   6.139   1.626   4.821  0.1801  0.1130  0.0149
 8126TIP3    H145869   6.078   1.554   4.837 -0.6633  0.3748 -1.7421
 8126TIP3    H245870   6.085   1.694   4.780  1.0959  1.4975  1.0520
 8127TIP3   OH245871   0.250   6.183  10.914  0.3011 -0.4382 -0.0641
 8127TIP3    H145872   0.254   6.153  10.823 -0.5610 -0.9504  0.0591
 8127TIP3    H245873   0.278   6.274  10.911  1.7161 -0.8671 -0.6361
 8128TIP3   OH245874   4.728   6.326   4.451 -0.9653  0.2607 -0.3358
 8128TIP3    H145875   4.817   6.294   4.440 -1.0852  0.2363 -1.3540
 8128TIP3    H245876   4.691   6.272   4.521 -0.2045  0.2405  0.0565
 8129TIP3   OH245877   4.043   0.123   6.384  0.3795 -0.4204 -0.1765
 8129TIP3    H145878   4.096   0.185   6.435  1.1574 -0.5152 -0.8617
 8129TIP3    H245879   3.953   0.150   6.401  0.6730  0.3014  0.2919
 8130TIP3   OH245880   6.166   0.757  14.102 -0.2992 -0.7007 -0.9706
 8130TIP3    H145881   6.209   0.832  14.145  0.8627 -0.8801 -1.7643
 8130TIP3    H245882   6.082   0.791  14.072  0.0348  0.1707 -0.9429
 8131TIP3   OH245883   3.124   2.902  12.703 -0.6111  0.6574  0.3949
 8131TIP3    H145884   3.103   2.894  12.611 -0.7793 -1.0150  0.5404
 8131TIP3    H245885   3.217   2.927  12.705 -0.9423  2.0230 -0.1997
 8132TIP3   OH245886   3.363   6.331   1.559 -0.3187  0.5415  0.0782
 8132TIP3    H145887   3.333   6.345   1.470 -0.1001 -0.0595 -0.0971
 8132TIP3    H245888   3.443   6.382   1.567 -0.4058  0.6929 -0.0328
 8133TIP3   OH245889   4.137   4.463  12.161  0.4900 -0.6500 -0.4973
 8133TIP3    H145890   4.156   4.453  12.254  1.2518  0.6111 -0.4864
 8133TIP3    H245891   4.089   4.384  12.137  0.9495 -1.3458  0.7884
 8134TIP3   OH245892   6.284   0.198  16.205  0.4141 -0.0092  0.2014
 8134TIP3    H145893   6.352   0.251  16.245  1.8277 -0.7033 -1.1649
 8134TIP3    H245894   6.225   0.177  16.277  2.3751 -0.5124  1.7693
 8135TIP3   OH245895   5.993   1.225   1.391 -0.2502 -0.1765 -0.0982
 8135TIP3    H145896   6.025   1.165   1.324  2.9039  0.3907  0.7445
 8135TIP3    H245897   5.972   1.169   1.465  0.3471 -0.4635 -0.1411
 8136TIP3   OH245898   0.971   3.158   3.594 -0.7750  0.3310  0.0599
 8136TIP3    H145899   0.895   3.206   3.628 -0.6620  0.2387  0.4497
 8136TIP3    H245900   0.936   3.108   3.520 -1.3489 -0.5816  0.9214
 8137TIP3   OH245901   1.263   1.951   2.103  0.1448  0.1637 -0.0468
 8137TIP3    H145902   1.253   1.857   2.087  1.5093 -0.0173  0.0424
 8137TIP3    H245903   1.351   1.972   2.072 -0.1923  1.4564 -0.2132
 8138TIP3   OH245904   1.521   2.126   4.360 -0.2678 -0.0450 -0.3140
 8138TIP3    H145905   1.515   2.035   4.333 -0.1537 -0.2871  0.4789
 8138TIP3    H245906   1.614   2.141   4.374 -0.2592  0.2680 -0.6684
 8139TIP3   OH245907   5.464   5.727  12.870 -0.0877 -0.0861 -0.4060
 8139TIP3    H145908   5.451   5.807  12.820  1.0120  0.5527  0.2789
 8139TIP3    H245909   5.515   5.754  12.946  2.9955 -1.8620 -1.6435
 8140TIP3   OH245910   0.723   2.111   0.604 -0.5265  0.4391 -0.3446
 8140TIP3    H145911   0.790   2.043   0.604 -0.3624  0.5464 -2.2739
 8140TIP3    H245912   0.641   2.064   0.587 -0.9556  0.3341  1.7875
 8141TIP3   OH245913   5.644   4.805  10.533 -0.5056 -0.2085 -0.1503
 8141TIP3    H145914   5.653   4.727  10.586 -1.2287 -1.2429 -1.4810
 8141TIP3    H245915   5.549   4.814  10.519 -0.3731  0.3990 -0.7358
 8142TIP3   OH245916   0.346   4.753  14.127  0.0081 -0.3037 -0.2247
 8142TIP3    H145917   0.250   4.757  14.127  0.0153 -0.1154  0.0446
 8142TIP3    H245918   0.366   4.660  14.115 -0.2076 -0.3433 -0.2868
 8143TIP3   OH245919   0.618   0.501  15.122 -0.0552  0.4210 -0.2397
 8143TIP3    H145920   0.657   0.577  15.164 -1.1852 -0.6618  3.0742
 8143TIP3    H245921   0.524   0.521  15.120 -0.6243 -1.4917  2.4123
 8144TIP3   OH245922   3.270   0.488  15.813  0.3340 -0.2913  0.2373
 8144TIP3    H145923   3.357   0.492  15.772 -0.8491  1.0457 -2.3957
 8144TIP3    H245924   3.275   0.550  15.885  1.7771 -0.8236  0.6280
 8145TIP3   OH245925   2.988   3.211  14.937  0.4427 -0.9632  0.3435
 8145TIP3    H145926   2.896   3.205  14.913  0.6515 -1.6548 -0.3559
 8145TIP3    H245927   2.990   3.266  15.015 -0.2372  1.8668 -1.4989
 8146TIP3   OH245928   1.455   1.606  12.567  0.2892 -0.3231 -0.7147
 8146TIP3    H145929   1.390   1.544  12.601 -1.9149  1.6764 -1.0220
 8146TIP3    H245930   1.499   1.639  12.645 -1.0774  0.3623 -0.1950
 8147TIP3   OH245931   2.096   6.303   3.500 -0.3033  0.5655  0.3883
 8147TIP3    H145932   2.083   6.250   3.578  0.4681 -0.4349 -0.1370
 8147TIP3    H245933   2.190   6.313   3.492 -0.2426 -0.7832 -1.3003
 8148TIP3   OH245934   0.641   2.376   4.269 -0.3866  0.3457  0.0576
 8148TIP3    H145935   0.720   2.411   4.310 -0.2115  0.7109 -0.5703
 8148TIP3    H245936   0.633   2.287   4.302 -0.4897  0.7699  1.2057
 8149TIP3   OH245937   1.670   6.788   4.962 -0.4452  0.2750  0.6670
 8149TIP3    H145938   1.591   6.739   4.985 -0.3716  0.3741  1.1364
 8149TIP3    H245939   1.645   6.838   4.884 -0.3361 -0.9753 -0.1951
 8150TIP3   OH245940   2.965   5.683  17.154 -0.1964 -0.1735 -0.3133
 8150TIP3    H145941   2.983   5.675  17.060 -1.3629  1.1352 -0.6927
 8150TIP3    H245942   3.039   5.733  17.189 -0.7116  1.0586 -0.9344
 8151TIP3   OH245943   2.731   2.021   2.065 -0.2699  0.1335 -0.4947
 8151TIP3    H145944   2.805   1.966   2.088  0.8974  1.9281  0.2027
 8151TIP3    H245945   2.669   2.010   2.137  0.1619  0.0821 -0.1265
 8152TIP3   OH245946   0.863   1.400   5.106  0.4051 -0.1877 -0.3122
 8152TIP3    H145947   0.854   1.446   5.190  1.1626  0.3500 -0.5051
 8152TIP3    H245948   0.877   1.309   5.131  2.4103  0.2165  0.2636
 8153TIP3   OH245949   2.170   1.270  16.708 -0.5866 -0.3653  0.3515
 8153TIP3    H145950   2.080   1.238  16.701 -0.1461 -1.4844 -0.5682
 8153TIP3    H245951   2.164   1.364  16.695 -1.5554 -0.5174 -0.3739
 8154TIP3   OH245952   4.000   0.854   0.122 -0.0913 -0.6063 -0.3365
 8154TIP3    H145953   4.064   0.858   0.193  0.0144 -1.2195 -0.3869
 8154TIP3    H245954   4.049   0.881   0.044 -0.1565 -0.1183 -0.2084
 8155TIP3   OH245955   3.336   0.801  14.623  0.2731 -0.2477 -0.2559
 8155TIP3    H145956   3.361   0.879  14.573  0.7931 -0.1359  0.1600
 8155TIP3    H245957   3.333   0.832  14.714  0.1548 -0.6389 -0.1262
 8156TIP3   OH245958   5.268   5.257   3.540 -0.0750 -0.6966 -0.0909
 8156TIP3    H145959   5.313   5.205   3.607 -0.6518 -0.3103  0.6089
 8156TIP3    H245960   5.339   5.288   3.483  0.5801 -0.0542  1.0268
 8157TIP3   OH245961   3.048   6.271  17.063 -0.1540  0.2972 -0.7187
 8157TIP3    H145962   3.039   6.314  17.148  1.2855  1.3132 -1.0450
 8157TIP3    H245963   3.088   6.187  17.083 -2.2021 -0.6010 -0.1579
 8158TIP3   OH245964   2.314   3.912   5.591 -0.0739 -0.8059  0.4904
 8158TIP3    H145965   2.358   3.995   5.573 -0.4365 -0.5248  0.8898
 8158TIP3    H245966   2.361   3.876   5.666  1.3816 -1.9358 -0.8958
 8159TIP3   OH245967   0.830   3.194  15.014 -0.5856 -0.0649  0.2490
 8159TIP3    H145968   0.833   3.113  15.066 -2.3039  0.7435  1.7400
 8159TIP3    H245969   0.860   3.168  14.927  1.5117 -1.7002  1.3682
 8160TIP3   OH245970   2.016   2.898  15.625  0.4408  0.4663  0.2042
 8160TIP3    H145971   1.962   2.955  15.569 -1.1590 -1.4079 -0.2861
 8160TIP3    H245972   2.034   2.822  15.570  2.1772  0.2661  0.9849
 8161TIP3   OH245973   3.463   5.444  15.477 -0.1657 -0.6239 -0.7527
 8161TIP3    H145974   3.484   5.354  15.500 -1.1782 -0.3748  1.3930
 8161TIP3    H245975   3.544   5.493  15.490 -0.0464 -0.9523 -0.2577
 8162TIP3   OH245976   6.465   5.379  14.742 -0.6427  0.1869  0.3973
 8162TIP3    H145977   6.423   5.376  14.656 -0.5280 -0.4612  0.3667
 8162TIP3    H245978   6.558   5.391  14.723 -0.6018 -0.0830  0.4308
 8163TIP3   OH245979   1.028   5.178   0.565  0.2294  0.2818  0.1341
 8163TIP3    H145980   1.009   5.089   0.534  0.2424  0.6868 -1.1122
 8163TIP3    H245981   1.091   5.166   0.636  0.5417 -0.6911 -0.2944
 8164TIP3   OH245982   5.377   6.325  15.295  0.1882  0.0664  0.4619
 8164TIP3    H145983   5.297   6.369  15.264 -0.1863  0.3245  1.7102
 8164TIP3    H245984   5.378   6.343  15.389  1.1349 -0.8845  0.6459
 8165TIP3   OH245985   3.255   1.990  13.526 -0.9032 -0.1661  0.0640
 8165TIP3    H145986   3.171   1.949  13.547 -1.2025  0.4444  0.0947
 8165TIP3    H245987   3.241   2.028  13.439 -0.5913 -0.2360 -0.0160
 8166TIP3   OH245988   2.149   0.200   2.204  0.4725 -0.1587 -0.0336
 8166TIP3    H145989   2.132   0.286   2.242 -1.2113 -0.1805 -0.6394
 8166TIP3    H245990   2.127   0.210   2.111  1.4582 -0.9306 -0.3761
 8167TIP3   OH245991   1.428   4.573   2.132  0.1121 -0.0366  0.2705
 8167TIP3    H145992   1.399   4.621   2.209  1.6345  1.0065  0.2497
 8167TIP3    H245993   1.349   4.556   2.082 -1.1775 -2.1525  2.7770
 8168TIP3   OH245994   0.869   5.035   2.728  0.3868 -0.4439 -0.3108
 8168TIP3    H145995   0.921   5.084   2.665 -0.9006 -0.5741 -1.5363
 8168TIP3    H245996   0.869   4.945   2.696  0.8627 -0.8014  0.6601
 8169TIP3   OH245997   4.766   3.159   4.018  0.3973  0.7342 -0.4149
 8169TIP3    H145998   4.793   3.251   4.015 -0.2207  0.9093 -0.6410
 8169TIP3    H245999   4.818   3.122   4.089 -0.1810  1.5379  0.4549
 8170TIP3   OH246000   0.504   5.007   2.161  0.2677 -0.1274 -0.6046
 8170TIP3    H146001   0.483   5.098   2.139  1.6363  0.4888  0.5241
 8170TIP3    H246002   0.587   4.990   2.118  1.6996  0.2705  1.8208
 8171TIP3   OH246003   0.192   2.011   4.261  0.1463  0.2580 -0.0996
 8171TIP3    H146004   0.127   1.999   4.191 -0.0962 -0.1462  0.1955
 8171TIP3    H246005   0.145   2.059   4.329  0.4430  0.8387 -0.2903
 8172TIP3   OH246006   0.828   4.086   4.117  0.2655  0.2035 -0.1904
 8172TIP3    H146007   0.872   4.048   4.193  0.7250  1.5819  0.2619
 8172TIP3    H246008   0.889   4.073   4.045  1.3761  1.8672  0.3803
 8173TIP3   OH246009   4.498   0.208   0.879  0.5065 -0.0385  0.0156
 8173TIP3    H146010   4.403   0.207   0.892  0.6656  0.5776  1.4554
 8173TIP3    H246011   4.510   0.251   0.794 -0.4773  0.4196  0.0929
 8174TIP3   OH246012   6.688   5.621  16.584  0.0813 -0.3279 -0.3106
 8174TIP3    H146013   6.725   5.536  16.610 -0.9090 -0.3456  1.1413
 8174TIP3    H246014   6.732   5.684  16.641 -1.2666 -0.2295  0.6836
 8175TIP3   OH246015   1.477   3.368   0.370  0.2974 -0.0306 -0.3485
 8175TIP3    H146016   1.454   3.343   0.460  0.1900  0.0622 -0.3498
 8175TIP3    H246017   1.540   3.301   0.342 -0.6599 -0.8295 -0.6682
 8176TIP3   OH246018   5.572   1.173   3.308 -0.2294  0.2344 -0.5778
 8176TIP3    H146019   5.626   1.134   3.376 -0.6789  0.5533 -0.0315
 8176TIP3    H246020   5.597   1.265   3.307 -0.4755  0.3022 -0.5962
 8177TIP3   OH246021   0.227   0.084  11.912 -0.5409 -0.0575 -0.6939
 8177TIP3    H146022   0.212   0.068  11.819 -3.1902 -0.8006 -0.2286
 8177TIP3    H246023   0.165   0.027  11.956 -0.7466  1.7144  1.4801
 8178TIP3   OH246024   2.665   5.341   6.338  0.5160 -0.0778 -0.0563
 8178TIP3    H146025   2.691   5.290   6.261 -0.1142 -0.4096 -0.0593
 8178TIP3    H246026   2.629   5.276   6.398  2.9258 -0.1528  1.4424
 8179TIP3   OH246027   4.383   0.905   5.844  0.0811  0.3632 -0.2654
 8179TIP3    H146028   4.323   0.842   5.805  0.8037 -0.1404 -0.5958
 8179TIP3    H246029   4.333   0.947   5.913 -0.3887 -0.6337  0.0120
 8180TIP3   OH246030   3.553   3.551   3.336 -0.4531 -0.0696 -0.0254
 8180TIP3    H146031   3.461   3.560   3.358  0.3327  3.3339  2.7145
 8180TIP3    H246032   3.598   3.544   3.420  1.8688 -1.0480 -1.2389
 8181TIP3   OH246033   2.161   0.399   2.898 -0.1281 -0.2442 -0.2077
 8181TIP3    H146034   2.224   0.327   2.904  2.5949  1.9359 -0.6091
 8181TIP3    H246035   2.107   0.377   2.823  0.0600 -2.2604  0.1895
 8182TIP3   OH246036   1.246   1.087  16.594 -0.2413 -0.3313 -0.0764
 8182TIP3    H146037   1.228   1.143  16.668 -0.7362  0.4428 -0.7647
 8182TIP3    H246038   1.165   1.038  16.580  0.1413 -1.1442  0.4354
 8183TIP3   OH246039   0.730   0.517  13.415 -0.0316  0.1394 -0.2715
 8183TIP3    H146040   0.816   0.551  13.438  0.2226 -1.0620  0.7126
 8183TIP3    H246041   0.669   0.564  13.472 -0.0636  1.1308 -1.1068
 8184TIP3   OH246042   6.568   2.953   0.152 -0.1645 -0.1140  0.0642
 8184TIP3    H146043   6.534   2.876   0.197  0.8412 -0.3133  0.5137
 8184TIP3    H246044   6.555   2.935   0.059  0.9094 -1.2579  0.1142
 8185TIP3   OH246045   2.425   6.549  12.979  0.6088 -0.5498 -0.1032
 8185TIP3    H146046   2.379   6.465  12.980  0.4526 -0.4734 -0.4251
 8185TIP3    H246047   2.483   6.546  13.054  1.1492 -1.2510 -0.5327
 8186TIP3   OH246048   2.328   2.270  16.713  0.1899 -1.1070  0.1026
 8186TIP3    H146049   2.367   2.336  16.655 -0.4462 -0.3238  0.5355
 8186TIP3    H246050   2.355   2.186  16.676 -0.6124 -0.6404 -1.6374
 8187TIP3   OH246051   1.543   5.095   0.887  0.1034  0.1552  0.5467
 8187TIP3    H146052   1.477   5.057   0.946  0.0559  1.0049  1.0517
 8187TIP3    H246053   1.622   5.102   0.941  0.6258 -0.8470 -0.0499
 8188TIP3   OH246054   4.520   5.235  12.515  0.7919  0.4764  0.2233
 8188TIP3    H146055   4.544   5.153  12.471  3.0046  0.5967  1.0592
 8188TIP3    H246056   4.516   5.299  12.445  0.3680 -0.0850 -0.2791
 8189TIP3   OH246057   0.634   2.762   0.208  0.2826 -0.5720 -0.7035
 8189TIP3    H146058   0.657   2.699   0.276 -0.7266 -0.9344 -0.6864
 8189TIP3    H246059   0.582   2.712   0.145  1.1137 -0.2240 -1.7145
 8190TIP3   OH246060   0.124   0.470  13.082 -0.2970  0.0975  0.2851
 8190TIP3    H146061   0.146   0.553  13.039 -0.2919  0.3803  0.8238
 8190TIP3    H246062   0.209   0.434  13.107 -0.3129  0.0512  0.2710
 8191TIP3   OH246063   1.942   4.239   5.380  0.4774 -0.1720  0.1277
 8191TIP3    H146064   1.945   4.144   5.379  2.0016 -0.1539 -0.3460
 8191TIP3    H246065   1.883   4.263   5.309  2.2208 -0.7619 -1.6015
 8192TIP3   OH246066   0.158   6.737  14.057  0.1006  0.7443  0.2797
 8192TIP3    H146067   0.248   6.754  14.086 -0.8880  2.2845  2.7828
 8192TIP3    H246068   0.149   6.642  14.063  1.6357  0.5300 -0.3290
 8193TIP3   OH246069   3.394   0.311   0.970  0.2112  0.2529  0.3380
 8193TIP3    H146070   3.469   0.285   0.916  0.3824  0.7934  0.3093
 8193TIP3    H246071   3.334   0.354   0.909 -1.0118 -1.8234 -0.0265
 8194TIP3   OH246072   5.922   3.309   6.116  0.3482 -0.6808  0.1458
 8194TIP3    H146073   5.848   3.301   6.056  0.1428  0.4327  0.2236
 8194TIP3    H246074   5.957   3.397   6.100  2.2896 -1.5434 -0.5797
 8195TIP3   OH246075   3.278   3.959  17.172 -0.0276  0.1773  0.8234
 8195TIP3    H146076   3.264   3.892  17.106  1.8409  1.0425 -0.5626
 8195TIP3    H246077   3.218   4.030  17.148  2.6091  1.7391 -1.9355
 8196TIP3   OH246078   1.942   3.232  11.368 -0.0480 -0.0943  0.7119
 8196TIP3    H146079   2.019   3.288  11.372  0.4846 -0.6292 -0.9732
 8196TIP3    H246080   1.975   3.148  11.334 -1.3256 -0.3874  0.1307
 8197TIP3   OH246081   3.126   3.628   2.819 -0.2320  0.5312  0.6968
 8197TIP3    H146082   3.200   3.573   2.791 -1.0756 -0.2164 -0.1569
 8197TIP3    H246083   3.167   3.700   2.867  0.9117 -0.9727  2.1362
 8198TIP3   OH246084   0.484   6.617   2.334 -0.2709  0.0993 -0.1563
 8198TIP3    H146085   0.441   6.532   2.332 -1.8878  0.9006 -1.0059
 8198TIP3    H246086   0.576   6.598   2.315 -0.3136 -1.5818  1.1091
 8199TIP3   OH246087   0.501   4.143  15.294  0.4898  0.3222 -0.2440
 8199TIP3    H146088   0.523   4.104  15.379  0.2280 -0.7698 -0.6597
 8199TIP3    H246089   0.450   4.220  15.316  1.2057  0.5766  0.6124
 8200TIP3   OH246090   3.869   6.342  16.685 -0.2357 -0.5364 -0.4687
 8200TIP3    H146091   3.821   6.422  16.708 -0.5387 -1.0498  0.7904
 8200TIP3    H246092   3.960   6.362  16.705 -0.4096 -0.7410  0.6149
 8201TIP3   OH246093   1.013   1.444  13.181 -0.0466 -0.4249  0.7691
 8201TIP3    H146094   0.950   1.380  13.148 -1.1536  0.0484  1.9267
 8201TIP3    H246095   1.038   1.410  13.267 -0.2113  0.4077  1.1471
 8202TIP3   OH246096   4.848   1.397  13.206  0.1468 -0.7994  0.6489
 8202TIP3    H146097   4.874   1.320  13.156  2.3871  1.3371 -1.8016
 8202TIP3    H246098   4.930   1.442  13.227 -0.9901  0.3915  2.9987
 8203TIP3   OH246099   3.528   0.809   4.465  0.0567  0.6584  0.1803
 8203TIP3    H146100   3.468   0.793   4.538  0.1591 -0.0971  0.1053
 8203TIP3    H246101   3.580   0.729   4.459 -1.1634 -0.0406 -1.8537
 8204TIP3   OH246102   2.420   1.772   2.619 -0.6645  0.0618 -0.3316
 8204TIP3    H146103   2.486   1.840   2.610  0.2249 -0.8225 -0.6481
 8204TIP3    H246104   2.466   1.690   2.601 -1.5620 -0.6927  0.6219
 8205TIP3   OH246105   3.941   4.162  16.691 -0.4647 -0.0566 -0.2705
 8205TIP3    H146106   3.966   4.072  16.666  0.4628  0.5426 -1.6304
 8205TIP3    H246107   4.024   4.209  16.693 -1.0239  0.9406 -0.2794
 8206TIP3   OH246108   3.704   4.714   5.068  0.2157  0.1428 -0.1531
 8206TIP3    H146109   3.737   4.691   5.155 -0.1059 -1.4083 -0.4083
 8206TIP3    H246110   3.620   4.668   5.061  1.6198 -2.3467 -2.3896
 8207TIP3   OH246111   4.653   6.656   6.793  0.4192  0.0644 -0.2321
 8207TIP3    H146112   4.566   6.620   6.805 -0.6904  2.4234 -0.7298
 8207TIP3    H246113   4.712   6.587   6.826 -1.5811 -1.5323  0.2193
 8208TIP3   OH246114   5.657   2.481  13.473  0.3121 -0.1096 -0.8950
 8208TIP3    H146115   5.675   2.562  13.425  1.3587  0.4282  0.3082
 8208TIP3    H246116   5.564   2.484  13.491  0.1639  0.3627 -1.6729
 8209TIP3   OH246117   0.957   5.469   2.303  0.1550 -0.5378  0.0002
 8209TIP3    H146118   1.051   5.467   2.319  0.2222  1.7697  0.2734
 8209TIP3    H246119   0.917   5.450   2.388  0.4624  2.1645  0.8429
 8210TIP3   OH246120   3.479   4.484  17.285  0.4145 -0.1684  0.4763
 8210TIP3    H146121   3.420   4.410  17.296 -1.2511  1.2463  1.7741
 8210TIP3    H246122   3.551   4.467  17.346  0.0554 -0.7445  0.7455
 8211TIP3   OH246123   1.886   3.144   0.509 -0.4442  0.1886  0.3120
 8211TIP3    H146124   1.901   3.121   0.601  0.1161 -2.2118 -0.3199
 8211TIP3    H246125   1.973   3.163   0.474 -0.6102  0.6855  0.1515
 8212TIP3   OH246126   0.039   6.640  14.929  0.1340 -0.6557  0.1578
 8212TIP3    H146127   0.128   6.631  14.964  1.1930  0.9793 -1.8879
 8212TIP3    H246128   0.015   6.551  14.904  0.5434 -1.3732  2.0919
 8213TIP3   OH246129   5.279   2.515  13.103  0.0199 -0.2857 -0.8020
 8213TIP3    H146130   5.216   2.571  13.057 -1.8410  0.1162  1.9302
 8213TIP3    H246131   5.227   2.475  13.174  2.9232  0.6267  2.0965
 8214TIP3   OH246132   3.363   0.878   2.313  1.0469  0.5512 -0.2275
 8214TIP3    H146133   3.269   0.861   2.323  1.3720 -0.9850  0.5355
 8214TIP3    H246134   3.376   0.888   2.219  0.3683 -1.0577 -0.5344
 8215TIP3   OH246135   5.305   2.287   4.854  0.1054 -0.0022  0.2572
 8215TIP3    H146136   5.304   2.358   4.918  2.8723 -0.8864  1.4525
 8215TIP3    H246137   5.381   2.306   4.798  0.0181 -1.2342 -0.3184
 8216TIP3   OH246138   1.475   6.716  12.157  0.2576 -0.6801  0.2924
 8216TIP3    H146139   1.550   6.699  12.214 -0.0654 -2.4104  0.2579
 8216TIP3    H246140   1.465   6.811  12.159  1.5579 -0.5273  1.4306
 8217TIP3   OH246141   0.021   3.404   3.141 -0.1885 -0.4426 -0.5864
 8217TIP3    H146142   0.078   3.427   3.068 -1.6440 -0.2691 -1.7283
 8217TIP3    H246143   0.068   3.335   3.188  1.3561  0.3539 -0.9036
 8218TIP3   OH246144   5.394   2.571   1.996 -0.1609 -0.1067  0.3109
 8218TIP3    H146145   5.443   2.652   2.012  1.7638 -1.1561 -0.0343
 8218TIP3    H246146   5.317   2.579   2.053  1.0163  1.0626  1.8413
 8219TIP3   OH246147   6.255   3.601   3.698 -0.2423  0.5229 -0.2279
 8219TIP3    H146148   6.189   3.531   3.700 -0.0465  0.2736 -1.5364
 8219TIP3    H246149   6.245   3.640   3.611 -1.1121  2.9038  0.8547
 8220TIP3   OH246150   0.178   1.637  13.810  0.2642 -0.0078 -0.0116
 8220TIP3    H146151   0.248   1.696  13.836 -1.4160  2.4745 -0.7709
 8220TIP3    H246152   0.169   1.576  13.883  2.9480 -0.2485  0.2245
 8221TIP3   OH246153   4.865   3.974   2.480  0.4981  0.1576 -0.8822
 8221TIP3    H146154   4.874   4.053   2.533  0.1689 -0.7805  0.6395
 8221TIP3    H246155   4.912   3.907   2.529  0.9050 -0.5666 -2.2236
 8222TIP3   OH246156   0.838   1.098   3.985  0.0615  0.0781 -0.5435
 8222TIP3    H146157   0.879   1.185   3.984 -0.4925  0.3567 -1.9611
 8222TIP3    H246158   0.797   1.092   4.071 -1.2650  1.9430 -0.9651
 8223TIP3   OH246159   5.313   2.356  11.071  0.6579 -0.1484  0.4711
 8223TIP3    H146160   5.379   2.323  11.132  1.3462 -0.1688 -0.2594
 8223TIP3    H246161   5.324   2.451  11.072  0.4383 -0.1246  0.6352
 8224TIP3   OH246162   2.801   1.538  15.258 -0.3946  0.5913  0.3574
 8224TIP3    H146163   2.773   1.603  15.323 -0.7169 -0.3678  1.2167
 8224TIP3    H246164   2.749   1.557  15.180  1.1695  2.8104 -0.2305
 8225TIP3   OH246165   4.370   5.112  14.406  0.2183 -0.0522 -0.1653
 8225TIP3    H146166   4.451   5.109  14.354  0.5843  0.6444  0.3621
 8225TIP3    H246167   4.380   5.188  14.462 -1.1690  0.5253 -0.6672
 8226TIP3   OH246168   2.390   0.768   1.310  0.2536 -0.3466  0.0775
 8226TIP3    H146169   2.363   0.855   1.341  0.3084  0.5822 -2.2550
 8226TIP3    H246170   2.382   0.773   1.215 -0.1865 -3.0754 -0.1253
 8227TIP3   OH246171   2.502   4.480   0.522 -0.0117 -0.1758  0.4011
 8227TIP3    H146172   2.542   4.521   0.598 -0.5313 -0.8216  1.0404
 8227TIP3    H246173   2.444   4.547   0.486  1.7135  0.8318 -0.6451
 8228TIP3   OH246174   6.571   4.307   1.549  0.4070 -0.6644  0.1900
 8228TIP3    H146175   6.507   4.378   1.541  0.2737 -0.7788  0.2367
 8228TIP3    H246176   6.656   4.349   1.535  0.4819 -0.1609  1.9707
 8229TIP3   OH246177   5.854   5.168   6.382  0.2051  0.0475  0.2746
 8229TIP3    H146178   5.815   5.235   6.439 -0.4642 -1.1914  1.3366
 8229TIP3    H246179   5.822   5.189   6.295 -1.2467  0.2549  0.8227
 8230TIP3   OH246180   2.653   2.340   4.618  0.1390 -0.4913  0.3734
 8230TIP3    H146181   2.604   2.412   4.658 -0.1652 -0.3823 -0.1814
 8230TIP3    H246182   2.676   2.372   4.530  1.7014 -0.3216  0.8182
 8231TIP3   OH246183   6.399   6.109  16.814 -0.7783 -0.0964  0.6896
 8231TIP3    H146184   6.431   6.115  16.724 -0.8388 -0.7269  0.6217
 8231TIP3    H246185   6.461   6.049  16.856 -0.5157  0.5034  1.1777
 8232TIP3   OH246186   1.625   6.158   5.152 -1.0148  0.4224 -0.3746
 8232TIP3    H146187   1.696   6.094   5.163 -1.6219 -0.4960 -1.5682
 8232TIP3    H246188   1.600   6.180   5.242 -2.3724 -2.8710  0.2222
 8233TIP3   OH246189   0.613   1.391   4.648  0.3684 -0.1008  0.0524
 8233TIP3    H146190   0.544   1.329   4.623  0.4710  0.1109 -0.7903
 8233TIP3    H246191   0.651   1.353   4.727 -0.6625 -0.2533  0.4954
 8234TIP3   OH246192   5.376   4.382   6.702  0.3058 -0.0188 -0.2610
 8234TIP3    H146193   5.387   4.477   6.690  0.5732 -0.2068 -1.8412
 8234TIP3    H246194   5.329   4.373   6.784  0.0867  1.5039 -0.1876
 8235TIP3   OH246195   2.643   0.074  15.293 -0.0197 -0.0699  0.3394
 8235TIP3    H146196   2.662  -0.019  15.304 -1.3946 -0.4893 -0.5236
 8235TIP3    H246197   2.550   0.082  15.313  0.1954  1.2181  0.8886
 8236TIP3   OH246198   1.956   1.113  15.480 -0.6554 -0.4264  0.5900
 8236TIP3    H146199   1.912   1.157  15.408 -0.5488 -0.8864  0.2412
 8236TIP3    H246200   1.967   1.022  15.451 -0.8377 -0.6821  1.2850
 8237TIP3   OH246201   5.881   0.391   0.891 -0.0998  0.5333  0.1624
 8237TIP3    H146202   5.908   0.301   0.871 -1.6786  0.3307 -1.3392
 8237TIP3    H246203   5.953   0.445   0.859  0.1499 -0.1418 -0.4535
 8238TIP3   OH246204   1.419   6.756   4.599  0.1199  0.3362 -0.7161
 8238TIP3    H146205   1.507   6.793   4.610  0.1913  1.1576 -3.3489
 8238TIP3    H246206   1.387   6.794   4.517 -3.0034  0.6215  0.4652
 8239TIP3   OH246207   3.384   0.184   1.242  0.5854  0.1408  0.3211
 8239TIP3    H146208   3.295   0.149   1.241  0.8061 -0.4447  0.2905
 8239TIP3    H246209   3.402   0.206   1.150  1.7149 -3.1014 -0.3853
 8240TIP3   OH246210   2.607   6.185   1.443  0.3576 -0.2683 -0.1028
 8240TIP3    H146211   2.657   6.113   1.403 -1.0047 -0.8642 -0.8089
 8240TIP3    H246212   2.649   6.198   1.529  0.8258 -1.7087 -0.0794
 8241TIP3   OH246213   4.845   1.376  12.582 -0.0345 -0.2624 -0.0054
 8241TIP3    H146214   4.759   1.381  12.624 -0.4641  1.4216 -0.9763
 8241TIP3    H246215   4.904   1.421  12.642 -0.5621  1.7485 -0.9159
 8242TIP3   OH246216   2.335   2.412  13.705 -0.0620 -0.1148 -0.4370
 8242TIP3    H146217   2.379   2.378  13.627  0.0296 -1.9244  0.3771
 8242TIP3    H246218   2.334   2.507  13.691  0.1939 -0.3640 -2.5013
 8243TIP3   OH246219   4.297   6.695  15.385  0.0210  0.1372  0.5237
 8243TIP3    H146220   4.322   6.638  15.312  2.0813  1.1673  0.3574
 8243TIP3    H246221   4.242   6.639  15.441  1.3006 -1.7857 -0.0223
 8244TIP3   OH246222   1.260   3.929  14.375  0.3144  0.5533  0.0692
 8244TIP3    H146223   1.288   3.884  14.296  3.0116 -3.4715  2.8987
 8244TIP3    H246224   1.174   3.892  14.395  0.6032 -0.0888  0.1310
 8245TIP3   OH246225   5.843   0.953  15.898 -0.0324 -0.2872  0.2651
 8245TIP3    H146226   5.778   0.913  15.841  0.0110 -0.5471  0.3945
 8245TIP3    H246227   5.835   0.905  15.981 -1.3141  1.2353  1.0724
 8246TIP3   OH246228   2.748   6.451   4.985 -0.0610 -0.4592  0.6653
 8246TIP3    H146229   2.770   6.540   4.956 -1.1698 -0.7441 -1.1954
 8246TIP3    H246230   2.734   6.402   4.905 -0.0615 -2.1868  1.6748
 8247TIP3   OH246231   2.037   1.858   1.216 -0.4288 -0.0396  0.3533
 8247TIP3    H146232   2.089   1.844   1.295 -0.1631  0.8751  0.3524
 8247TIP3    H246233   2.042   1.952   1.200 -0.1635 -0.2659 -0.9878
 8248TIP3   OH246234   2.852   4.998  15.713  0.2745  0.4829 -0.2258
 8248TIP3    H146235   2.869   5.036  15.800 -0.7890 -1.6218  0.9720
 8248TIP3    H246236   2.776   4.942  15.726  0.9998 -1.0633 -2.1783
 8249TIP3   OH246237   3.072   4.224  13.834 -0.3894  0.0580  0.2935
 8249TIP3    H146238   3.019   4.193  13.761  2.0196 -1.1633 -1.0475
 8249TIP3    H246239   3.079   4.318  13.820  0.1197 -0.1701 -1.1577
 8250TIP3   OH246240   5.121   5.934  15.645  0.0937 -0.4831 -0.1294
 8250TIP3    H146241   5.158   5.846  15.651  1.1349  0.0143  0.8358
 8250TIP3    H246242   5.029   5.919  15.621  0.2745 -1.8206 -0.0583
 8251TIP3   OH246243   0.059   2.684  15.991 -0.6997  0.0113  0.4484
 8251TIP3    H146244   0.121   2.611  16.002 -1.4847 -0.8195 -0.3861
 8251TIP3    H246245   0.041   2.714  16.080  0.8941  0.2724  0.7057
 8252TIP3   OH246246   2.652   1.522   2.931  0.0762  0.1066 -0.6617
 8252TIP3    H146247   2.738   1.489   2.954  0.9155  1.0741 -2.2579
 8252TIP3    H246248   2.646   1.607   2.975  0.1748  0.3004 -1.0225
 8253TIP3   OH246249   5.777   5.788   5.225 -0.3010  0.0842  0.2102
 8253TIP3    H146250   5.829   5.711   5.202  0.7994  0.5754  1.0037
 8253TIP3    H246251   5.691   5.771   5.186 -0.7801 -2.5519  2.1884
 8254TIP3   OH246252   6.749   3.179  10.701  0.4453 -0.0379 -0.4586
 8254TIP3    H146253   6.692   3.208  10.772  1.5866 -0.9195  0.8681
 8254TIP3    H246254   6.715   3.093  10.676  2.8795 -2.0709  2.4985
 8255TIP3   OH246255   3.628   0.695  12.936  0.3587 -0.0088  0.2400
 8255TIP3    H146256   3.637   0.787  12.963  2.3412 -0.1153  0.0803
 8255TIP3    H246257   3.618   0.648  13.019  2.6422  0.0625  0.6346
 8256TIP3   OH246258   4.552   2.817   4.020 -0.0132 -0.1610 -0.3528
 8256TIP3    H146259   4.551   2.727   4.054 -1.2779 -0.1201 -0.2232
 8256TIP3    H246260   4.545   2.872   4.098  0.6339  0.0634 -0.4419
 8257TIP3   OH246261   4.219   6.033  13.738  0.6116 -0.4000  0.4934
 8257TIP3    H146262   4.124   6.032  13.733  0.6378 -2.4714 -1.1561
 8257TIP3    H246263   4.246   6.092  13.667  0.5666  0.1898  0.9636
 8258TIP3   OH246264   5.363   0.099  14.839 -0.1735 -0.0348  0.5337
 8258TIP3    H146265   5.271   0.126  14.845  0.1609  0.9689  1.2350
 8258TIP3    H246266   5.360   0.004  14.853 -1.1792 -0.1471 -0.2685
 8259TIP3   OH246267   0.715   0.956   0.818  0.1773 -0.5589 -0.4557
 8259TIP3    H146268   0.750   0.955   0.907  3.1380  0.3591 -1.4842
 8259TIP3    H246269   0.635   0.904   0.823 -0.4614  0.4931  2.9676
 8260TIP3   OH246270   0.098   0.318  16.704  0.2725 -0.0125  0.4319
 8260TIP3    H146271   0.069   0.371  16.630 -1.0050 -0.7972  0.3259
 8260TIP3    H246272   0.148   0.247  16.665 -0.4395 -0.4513  0.3010
 8261TIP3   OH246273   4.347   0.874   5.494 -0.2600  0.0783 -0.0137
 8261TIP3    H146274   4.282   0.934   5.531 -1.4657 -0.2684 -1.4889
 8261TIP3    H246275   4.297   0.819   5.433  1.2747 -0.7647 -0.5574
 8262TIP3   OH246276   0.430   0.253  13.104  0.5262  0.3781 -0.3151
 8262TIP3    H146277   0.358   0.194  13.126  1.3277 -0.6366 -0.4033
 8262TIP3    H246278   0.467   0.278  13.188  0.9073 -0.1504 -0.3236
 8263TIP3   OH246279   4.748   4.064  15.914  0.4691  0.2539  0.1451
 8263TIP3    H146280   4.750   4.062  15.819 -1.1761  1.4770  0.0331
 8263TIP3    H246281   4.698   3.986  15.939  3.0187 -1.4840  0.2140
 8264TIP3   OH246282   5.001   4.411  14.022  0.0297 -0.5061  0.4887
 8264TIP3    H146283   4.913   4.389  13.991 -0.4687  2.0479 -0.1953
 8264TIP3    H246284   5.036   4.329  14.057 -3.6830 -1.1376  3.4231
 8265TIP3   OH246285   3.152   0.097  14.680 -0.1632  0.6610 -0.5931
 8265TIP3    H146286   3.225   0.041  14.706  0.6535  1.1350 -1.7859
 8265TIP3    H246287   3.097   0.104  14.758 -0.3763 -1.9130 -0.4373
 8266TIP3   OH246288   5.536   3.740   1.930 -0.6214 -0.3438  0.8910
 8266TIP3    H146289   5.605   3.749   1.996 -1.3902 -0.7651  1.7753
 8266TIP3    H246290   5.503   3.651   1.942  1.2233 -1.6009 -2.0802
 8267TIP3   OH246291   5.362   0.388  17.164 -0.0895 -0.4224 -0.6809
 8267TIP3    H146292   5.334   0.479  17.151  0.3068 -0.5390 -2.6491
 8267TIP3    H246293   5.370   0.379  17.259 -0.8454  1.3783 -0.4055
 8268TIP3   OH246294   5.910   5.874   1.602 -0.8059 -0.1676 -0.9116
 8268TIP3    H146295   5.892   5.780   1.595 -1.1861  0.0160 -4.2494
 8268TIP3    H246296   6.000   5.883   1.571  0.1039  0.4308  1.6468
 8269TIP3   OH246297   2.855   5.647  15.948  0.0045  0.5472  0.1583
 8269TIP3    H146298   2.809   5.606  16.022  0.4649  0.1627  0.2330
 8269TIP3    H246299   2.820   5.736  15.945 -1.2241  0.0816 -0.1809
 8270TIP3   OH246300   1.861   1.890   5.534 -0.2880 -0.4316  0.3235
 8270TIP3    H146301   1.907   1.827   5.589 -0.1477 -1.0651 -0.5111
 8270TIP3    H246302   1.872   1.858   5.445  0.5333  1.2234 -0.2206
 8271TIP3   OH246303   2.871   5.455   0.293 -0.3175 -0.1673  0.0295
 8271TIP3    H146304   2.859   5.544   0.327  0.2852 -1.3271  3.6381
 8271TIP3    H246305   2.785   5.414   0.304  0.0739 -0.7752  0.9097
 8272TIP3   OH246306   0.765   2.725   5.293 -0.2205 -0.6371 -0.3371
 8272TIP3    H146307   0.851   2.686   5.306 -1.0431 -2.2577  0.5945
 8272TIP3    H246308   0.782   2.808   5.248  1.9970  0.2768  1.9945
 8273TIP3   OH246309   1.833   2.149   2.788  0.0534  0.5782 -0.2758
 8273TIP3    H146310   1.915   2.179   2.828 -0.1458  0.2241  0.4156
 8273TIP3    H246311   1.857   2.072   2.737  0.6101  1.9608 -2.2384
 8274TIP3   OH246312   1.038   2.207  14.111 -0.5830 -0.1896  0.1183
 8274TIP3    H146313   0.976   2.202  14.183 -1.9721  2.2589 -0.7940
 8274TIP3    H246314   0.997   2.158  14.040 -0.5049 -0.2910  0.1429
 8275TIP3   OH246315   4.480   6.704  13.189 -0.5379  0.4182  0.3085
 8275TIP3    H146316   4.533   6.631  13.223 -0.3568  0.6009  0.4205
 8275TIP3    H246317   4.543   6.775  13.175 -0.8657  0.9037  1.2021
 8276TIP3   OH246318   5.054   3.197  11.086  0.2453 -0.0666  0.1479
 8276TIP3    H146319   5.121   3.157  11.031 -0.6023  0.2034 -1.1084
 8276TIP3    H246320   5.067   3.292  11.075  0.6807  0.0173  1.1956
 8277TIP3   OH246321   6.728   2.181   4.049  0.7726  0.2212 -0.6633
 8277TIP3    H146322   6.677   2.261   4.062  1.2190  0.5195 -0.7094
 8277TIP3    H246323   6.819   2.211   4.049  0.9553 -0.3243 -0.4124
 8278TIP3   OH246324   0.437   1.724  11.217 -0.2154  0.2674  0.1348
 8278TIP3    H146325   0.357   1.777  11.226  0.1437  0.6720  0.9820
 8278TIP3    H246326   0.494   1.777  11.161 -0.1815  0.3856  0.2833
 8279TIP3   OH246327   4.165   6.797   4.015  0.1954  0.2837  0.6093
 8279TIP3    H146328   4.221   6.734   4.060 -0.7269 -0.3274  0.9458
 8279TIP3    H246329   4.152   6.868   4.078 -0.8083 -0.4047  1.2246
 8280TIP3   OH246330   3.489   2.199  13.569  0.3070 -0.2656  0.6037
 8280TIP3    H146331   3.482   2.248  13.651  0.5394  0.7340  0.0513
 8280TIP3    H246332   3.409   2.147  13.564  0.6765 -0.9995  1.8639
 8281TIP3   OH246333   4.071   2.453  13.170 -0.2347 -0.3879 -0.1435
 8281TIP3    H146334   4.112   2.488  13.090 -1.9512  0.5706 -0.6458
 8281TIP3    H246335   4.122   2.374  13.191 -0.3252 -1.1842 -2.6944
 8282TIP3   OH246336   1.427   1.109   1.419  0.0683  0.4278  0.2802
 8282TIP3    H146337   1.349   1.127   1.473 -0.1406  2.7130 -0.6632
 8282TIP3    H246338   1.501   1.121   1.479 -0.2124  1.6277  0.4116
 8283TIP3   OH246339   6.461   0.120   1.087  0.7442 -0.3475 -0.6261
 8283TIP3    H146340   6.419   0.177   1.151 -0.7255 -0.5213 -1.4048
 8283TIP3    H246341   6.533   0.172   1.052  1.7354 -0.3300  1.2944
 8284TIP3   OH246342   1.373   4.603  15.575 -0.3334  0.1391 -0.0080
 8284TIP3    H146343   1.386   4.670  15.508 -1.0489  1.0368  0.7188
 8284TIP3    H246344   1.461   4.569  15.592 -0.3364 -1.4026 -2.6593
 8285TIP3   OH246345   0.186   1.784  12.110 -0.0822  0.5142 -0.0217
 8285TIP3    H146346   0.192   1.808  12.203 -0.1946  0.1398  0.0832
 8285TIP3    H246347   0.250   1.841  12.067  1.6014 -0.8338  0.5770
 8286TIP3   OH246348   1.346   0.882  15.652 -0.0770  0.7478 -0.2563
 8286TIP3    H146349   1.296   0.802  15.665 -0.0682  0.9667  1.2816
 8286TIP3    H246350   1.424   0.871  15.706  0.9391  0.9507 -1.6309
 8287TIP3   OH246351   3.834   1.587  15.257 -0.0462 -0.4100 -0.0922
 8287TIP3    H146352   3.812   1.587  15.164 -1.9413 -0.8379  0.3227
 8287TIP3    H246353   3.881   1.505  15.271  0.9406  0.0077 -0.7841
 8288TIP3   OH246354   2.621   2.328   1.769 -0.3844 -0.0207  0.5293
 8288TIP3    H146355   2.701   2.378   1.784 -0.9662  0.7457  1.2493
 8288TIP3    H246356   2.628   2.251   1.825 -0.1133 -0.0018  0.5180
 8289TIP3   OH246357   5.403   3.132   2.461  0.3065 -0.3809 -0.1201
 8289TIP3    H146358   5.380   3.088   2.543  0.0939  0.5392  0.3294
 8289TIP3    H246359   5.340   3.099   2.397  0.3062 -0.9084  0.1506
 8290TIP3   OH246360   1.700   0.622   4.121 -0.3158  0.0716 -0.2114
 8290TIP3    H146361   1.777   0.627   4.177 -0.5492 -1.4443  0.2793
 8290TIP3    H246362   1.725   0.668   4.041  0.4376  1.2023  0.6398
 8291TIP3   OH246363   1.159   3.238   5.257  0.2420  0.3561  0.3234
 8291TIP3    H146364   1.110   3.157   5.242  2.4484 -0.8409 -1.0092
 8291TIP3    H246365   1.177   3.238   5.352 -0.3465 -0.3684  0.4444
 8292TIP3   OH246366   6.018   4.718   3.073  0.0518 -0.6455  0.8664
 8292TIP3    H146367   6.030   4.805   3.112 -1.5624  0.9183 -1.8197
 8292TIP3    H246368   6.099   4.702   3.025  0.6570 -1.0270  1.9672
 8293TIP3   OH246369   5.090   0.632   0.221 -0.0665  0.5944 -0.9643
 8293TIP3    H146370   5.147   0.698   0.260 -1.6287  1.5461 -0.1907
 8293TIP3    H246371   5.085   0.562   0.286  0.0188  0.6195 -0.9310
 8294TIP3   OH246372   3.747   0.397   4.633  0.1685  0.0397  0.1841
 8294TIP3    H146373   3.803   0.374   4.708  1.3274  0.6861 -0.4649
 8294TIP3    H246374   3.683   0.326   4.630  0.9891 -0.7702  0.9090
 8295TIP3   OH246375   0.098   1.554  15.230  0.4964  0.6827 -0.3132
 8295TIP3    H146376   0.006   1.527  15.228  0.2442  1.5342 -0.5671
 8295TIP3    H246377   0.147   1.472  15.228 -0.2268  0.2405 -2.3308
 8296TIP3   OH246378   5.089   5.434   2.959  0.5636  0.2497 -0.3414
 8296TIP3    H146379   5.150   5.506   2.942  0.6261  1.1033  2.7510
 8296TIP3    H246380   5.002   5.470   2.939  0.6314  1.1313  0.8162
 8297TIP3   OH246381   5.168   6.353   1.908 -0.0139  0.6212 -0.4666
 8297TIP3    H146382   5.141   6.276   1.958  1.2020  0.1052 -0.5842
 8297TIP3    H246383   5.171   6.322   1.817  1.5912  0.4649 -0.3884
 8298TIP3   OH246384   2.836   5.027   5.512  0.1231 -0.1687 -0.6659
 8298TIP3    H146385   2.828   5.035   5.607  1.4870 -0.6709 -0.4986
 8298TIP3    H246386   2.752   5.060   5.479 -0.5638 -0.4345  0.7221
 8299TIP3   OH246387   1.143   1.991   2.894 -0.5573 -0.1000 -0.1421
 8299TIP3    H146388   1.222   2.044   2.898 -0.2291 -0.4405 -1.4168
 8299TIP3    H246389   1.149   1.934   2.970  0.4312 -0.1122 -0.2074
 8300TIP3   OH246390   5.778   3.660   5.470  0.0924  0.5504 -0.5651
 8300TIP3    H146391   5.710   3.627   5.411 -1.7415  2.2898  0.4772
 8300TIP3    H246392   5.767   3.610   5.551 -0.3166  1.1955 -0.2150
 8301TIP3   OH246393   5.951   1.609  13.623  0.1783 -0.0129  0.3982
 8301TIP3    H146394   5.922   1.625  13.534 -0.2235 -0.4350  0.4478
 8301TIP3    H246395   5.973   1.516  13.625 -1.9785 -0.5813  1.3105
 8302TIP3   OH246396   0.436   6.698  13.729 -0.5973  0.3395 -0.0699
 8302TIP3    H146397   0.346   6.665  13.726 -0.8091  0.7430  1.4711
 8302TIP3    H246398   0.445   6.737  13.815  0.7027  1.3688 -0.6416
 8303TIP3   OH246399   4.022   0.476  15.447 -0.0102  0.1808 -0.0292
 8303TIP3    H146400   4.045   0.383  15.460  0.4228  0.1207 -1.1356
 8303TIP3    H246401   4.106   0.519  15.429 -0.3475  0.5827 -0.6661
 8304TIP3   OH246402   4.947   5.849   4.667 -0.0078  0.7637  0.4936
 8304TIP3    H146403   5.027   5.802   4.643 -0.4473  0.3515 -0.2032
 8304TIP3    H246404   4.908   5.874   4.583 -1.0450  0.2197  0.8077
 8305TIP3   OH246405   6.797   4.800  10.306  0.1103  0.1854 -0.0985
 8305TIP3    H146406   6.765   4.780  10.218 -1.8524  1.3892  0.2824
 8305TIP3    H246407   6.735   4.756  10.365  1.8857 -1.3348  0.7534
 8306TIP3   OH246408   4.609   2.516   4.066  0.1115  0.5195 -0.1537
 8306TIP3    H146409   4.538   2.452   4.057 -0.4524  1.3001 -1.6244
 8306TIP3    H246410   4.687   2.463   4.084 -0.1387 -0.7128 -2.3548
 8307TIP3   OH246411   5.789   0.272  16.917  0.2195  0.4598 -0.5317
 8307TIP3    H146412   5.859   0.304  16.975  0.4184  0.4281 -0.7534
 8307TIP3    H246413   5.709   0.279  16.970  0.5645 -0.7045  0.1892
 8308TIP3   OH246414   5.050   2.771   2.817  0.4253 -0.2213  0.1716
 8308TIP3    H146415   5.116   2.768   2.886  0.4006 -0.3598  0.1899
 8308TIP3    H246416   5.095   2.739   2.739  0.5435  0.2422  0.0490
 8309TIP3   OH246417   2.557   4.966   0.406  0.2908 -0.3197 -0.0383
 8309TIP3    H146418   2.606   4.901   0.457  0.7494 -0.6842 -0.9072
 8309TIP3    H246419   2.478   4.920   0.378  0.9083 -0.7331 -1.1757
 8310TIP3   OH246420   5.552   3.903  11.275  0.2992  0.0887  0.5185
 8310TIP3    H146421   5.647   3.909  11.285  0.5142 -0.4910 -0.9439
 8310TIP3    H246422   5.537   3.912  11.181 -1.2892  2.2111  0.9228
 8311TIP3   OH246423   4.940   4.233  10.761 -0.5169 -0.0528 -0.4377
 8311TIP3    H146424   4.965   4.142  10.748  0.4106  0.0602  0.4496
 8311TIP3    H246425   5.008   4.283  10.716  0.4405  0.2353  1.2436
 8312TIP3   OH246426   3.851   0.056   3.532  0.0315  0.3265  0.0435
 8312TIP3    H146427   3.783  -0.002   3.565  0.3384 -1.9258 -2.8613
 8312TIP3    H246428   3.805   0.113   3.471  0.6675 -1.6188 -2.4142
 8313TIP3   OH246429   6.072   2.895  12.504 -0.1560 -0.3047 -0.1224
 8313TIP3    H146430   6.045   2.918  12.593  0.0093  0.8055 -0.3478
 8313TIP3    H246431   6.162   2.863  12.514  0.5097  1.5045 -0.0955
 8314TIP3   OH246432   4.129   6.133  12.603 -0.6025 -0.5421 -0.4518
 8314TIP3    H146433   4.170   6.203  12.653 -1.4127  1.4917 -2.4327
 8314TIP3    H246434   4.198   6.068  12.591  2.0920  2.3914 -3.0644
 8315TIP3   OH246435   3.170   2.157   5.294  0.0162  0.1128  0.1947
 8315TIP3    H146436   3.155   2.245   5.259 -1.4057 -0.0511  0.3214
 8315TIP3    H246437   3.123   2.157   5.377  0.0491 -0.7541  0.2140
 8316TIP3   OH246438   4.018   0.411   1.193  0.0125  0.0030 -0.5490
 8316TIP3    H146439   4.097   0.434   1.144  0.3814  2.1197  0.8942
 8316TIP3    H246440   3.949   0.467   1.156  0.3718  1.8990  1.4157
 8317TIP3   OH246441   4.257   0.109  16.773  0.3131  0.6055 -0.0673
 8317TIP3    H146442   4.310   0.184  16.746  2.0733 -0.4068  0.3752
 8317TIP3    H246443   4.309   0.033  16.747 -0.3046 -0.4389  1.5650
 8318TIP3   OH246444   6.003   1.648  12.821  0.4758  0.0753 -0.0768
 8318TIP3    H146445   6.012   1.721  12.760 -1.2050  0.8065  0.5077
 8318TIP3    H246446   5.965   1.687  12.900  0.6485 -1.2291  0.6761
 8319TIP3   OH246447   5.432   4.390   3.888  0.0230 -0.1558 -0.5230
 8319TIP3    H146448   5.509   4.429   3.847 -0.1575 -1.1155 -1.8197
 8319TIP3    H246449   5.424   4.436   3.972  1.0775  1.0465 -1.0476
 8320TIP3   OH246450   1.890   2.635   2.979 -0.4539 -0.5045 -0.0675
 8320TIP3    H146451   1.877   2.721   2.940 -1.5597 -1.1637 -1.2675
 8320TIP3    H246452   1.910   2.652   3.071 -1.1370  0.9984 -0.1734
 8321TIP3   OH246453   0.660   1.583  17.211 -0.1306 -0.3719 -0.3766
 8321TIP3    H146454   0.732   1.544  17.260  1.3956  1.3989 -1.0982
 8321TIP3    H246455   0.588   1.588  17.274  0.7866 -0.9766  0.7521
 8322TIP3   OH246456   5.518   4.770  11.501 -0.0301 -1.0539 -0.2220
 8322TIP3    H146457   5.522   4.848  11.557 -1.3345 -1.5965  0.6528
 8322TIP3    H246458   5.606   4.732  11.507  0.8460  0.6951 -1.2121
 8323TIP3   OH246459   0.222   0.693  15.337 -0.1317  0.0182 -0.2699
 8323TIP3    H146460   0.169   0.649  15.404 -3.1690  1.2412 -1.6846
 8323TIP3    H246461   0.274   0.756  15.387 -1.1637 -0.1475  1.1076
 8324TIP3   OH246462   0.957   4.997  13.749 -0.4544 -0.1254 -0.5506
 8324TIP3    H146463   0.979   4.919  13.800  2.3884  0.0307 -1.3405
 8324TIP3    H246464   0.970   5.070  13.810  0.6883 -0.0738 -0.8385
 8325TIP3   OH246465   6.336   0.712   4.203 -0.7864 -0.6505 -0.6744
 8325TIP3    H146466   6.245   0.684   4.213 -0.0288 -2.9833  0.2774
 8325TIP3    H246467   6.364   0.735   4.292 -0.1100 -1.0662 -0.7732
 8326TIP3   OH246468   1.759   2.614   6.124  0.0847  0.0566  0.5617
 8326TIP3    H146469   1.744   2.547   6.191  2.7808  0.0574  1.2626
 8326TIP3    H246470   1.798   2.566   6.051  0.6675  0.6324  0.4927
 8327TIP3   OH246471   1.003   4.395   0.163 -0.4786  0.3930  0.1754
 8327TIP3    H146472   1.082   4.359   0.124 -0.5489  0.1757  0.2323
 8327TIP3    H246473   0.969   4.456   0.097  0.4205  1.4632  0.6539
 8328TIP3   OH246474   4.992   2.381  11.617 -0.7143 -0.0938  0.4364
 8328TIP3    H146475   4.927   2.425  11.561  0.8457  2.9777  0.8004
 8328TIP3    H246476   4.984   2.425  11.702  0.7325 -0.7905  0.9688
 8329TIP3   OH246477   6.312   5.100  13.151 -1.3555 -0.3188 -0.2748
 8329TIP3    H146478   6.316   5.106  13.056  2.6555  0.8929 -0.2211
 8329TIP3    H246479   6.350   5.183  13.182 -0.7295 -1.4577  2.3056
 8330TIP3   OH246480   2.523   2.615   1.404 -0.3075  0.3859 -0.5016
 8330TIP3    H146481   2.536   2.584   1.315  1.7888  0.3640 -0.2323
 8330TIP3    H246482   2.505   2.709   1.394 -2.1986  0.0262 -1.0191
 8331TIP3   OH246483   6.179   1.447   5.321 -0.2923 -0.2613 -0.9008
 8331TIP3    H146484   6.102   1.421   5.270 -0.3103  0.1581 -1.0939
 8331TIP3    H246485   6.222   1.513   5.267 -0.2363  0.0922 -0.4345
 8332TIP3   OH246486   2.766   2.049  15.250  0.1687  0.3761 -0.2413
 8332TIP3    H146487   2.825   1.974  15.264  1.4298  1.0629 -1.5536
 8332TIP3    H246488   2.825   2.121  15.228 -1.1750  0.6932 -3.3661
 8333TIP3   OH246489   1.504   1.909  15.493  0.1063 -0.5201  0.1180
 8333TIP3    H146490   1.573   1.869  15.546 -0.6321 -0.6269  1.0283
 8333TIP3    H246491   1.531   2.000  15.483  0.3491 -0.5466  0.5126
 8334TIP3   OH246492   6.044   0.553   3.400 -0.0243 -0.0925  0.0379
 8334TIP3    H146493   6.041   0.531   3.307  0.1698 -0.8133  0.1958
 8334TIP3    H246494   6.075   0.644   3.402 -0.7435  0.1759 -0.6244
 8335TIP3   OH246495   6.173   2.891  10.521 -0.3335  0.3495 -0.7319
 8335TIP3    H146496   6.168   2.973  10.472  1.0046  0.1911 -1.1629
 8335TIP3    H246497   6.237   2.908  10.589 -2.5802  0.7537  1.4268
 8336TIP3   OH246498   2.385   5.144  15.160  0.0341 -0.2074 -0.7550
 8336TIP3    H146499   2.464   5.183  15.195 -2.2262  2.6520  1.7455
 8336TIP3    H246500   2.324   5.218  15.150 -2.7296 -2.3625 -1.2591
 8337TIP3   OH246501   4.052   5.614   5.664  0.3199  0.2224  0.6119
 8337TIP3    H146502   4.046   5.532   5.714 -0.6424 -0.0961  0.0075
 8337TIP3    H246503   3.961   5.638   5.648  0.6027  0.2774 -1.0530
 8338TIP3   OH246504   0.683   3.629   0.424 -0.0028  0.3019 -0.1724
 8338TIP3    H146505   0.705   3.596   0.511  0.7020  1.9831  0.3305
 8338TIP3    H246506   0.606   3.685   0.438 -0.2267  0.1387 -0.7224
 8339TIP3   OH246507   0.388   3.380  13.057  0.2626  0.2100  0.2985
 8339TIP3    H146508   0.417   3.328  13.132  1.6641  1.9332  1.0248
 8339TIP3    H246509   0.438   3.345  12.983  0.4973 -0.0775  0.5909
 8340TIP3   OH246510   6.327   2.081  15.257  0.0618  0.0965  0.4653
 8340TIP3    H146511   6.254   2.054  15.313  0.3330 -0.5899  0.4943
 8340TIP3    H246512   6.286   2.106  15.175 -0.0831 -1.9990 -0.1531
 8341TIP3   OH246513   3.149   0.349  14.575  0.2312 -0.8471 -0.6839
 8341TIP3    H146514   3.190   0.269  14.609  1.0328 -1.2252 -2.4051
 8341TIP3    H246515   3.215   0.387  14.517  0.1746  1.5383  0.6652
 8342TIP3   OH246516   3.510   2.232  16.600  0.4994 -0.3193 -0.0293
 8342TIP3    H146517   3.503   2.326  16.587 -0.1587 -0.2660  0.6334
 8342TIP3    H246518   3.420   2.200  16.593  0.7130 -0.8959 -0.2105
 8343TIP3   OH246519   3.253   4.354  12.048 -0.0416 -0.0827  0.2859
 8343TIP3    H146520   3.226   4.445  12.041 -1.3459 -0.4826 -0.1967
 8343TIP3    H246521   3.184   4.305  12.002  1.1577 -1.2213 -0.3805
 8344TIP3   OH246522   6.271   1.936   2.719  0.2432  0.1122 -0.8115
 8344TIP3    H146523   6.196   1.879   2.732 -0.0072  0.4584 -0.7288
 8344TIP3    H246524   6.312   1.903   2.639  2.0319 -2.2797  0.9621
 8345TIP3   OH246525   0.614   2.311  16.805 -0.4814  0.4133  1.2398
 8345TIP3    H146526   0.572   2.363  16.874  0.8227  2.4349  0.6038
 8345TIP3    H246527   0.685   2.265  16.850 -1.1719 -0.2469  1.6736
 8346TIP3   OH246528   4.079   5.425   1.072 -0.3202 -0.1286  0.2777
 8346TIP3    H146529   4.143   5.358   1.099  0.0411  0.1143  0.0364
 8346TIP3    H246530   4.025   5.439   1.150  0.5471  0.3719  0.8033
 8347TIP3   OH246531   5.709   2.778   1.032  0.6249  0.6228 -0.2732
 8347TIP3    H146532   5.719   2.782   1.127 -0.2749  0.3480 -0.1592
 8347TIP3    H246533   5.787   2.822   0.998 -0.0612  2.6157  0.6138
 8348TIP3   OH246534   1.122   4.808   2.764 -0.3199  0.0677 -0.2730
 8348TIP3    H146535   1.203   4.836   2.722 -0.2570  0.4257  0.0825
 8348TIP3    H246536   1.101   4.725   2.721  0.4000 -0.1878 -0.1477
 8349TIP3   OH246537   4.974   2.578  10.911 -0.3185 -0.0764  0.1341
 8349TIP3    H146538   4.998   2.538  10.828 -0.0182  0.6516 -0.1307
 8349TIP3    H246539   4.902   2.638  10.890 -1.0675 -0.7877  0.6033
 8350TIP3   OH246540   5.684   5.073  16.726 -0.3179 -0.0026 -0.9065
 8350TIP3    H146541   5.695   5.007  16.657  0.1284 -0.3082 -0.5542
 8350TIP3    H246542   5.734   5.038  16.800 -0.2551  0.6314 -0.6424
 8351TIP3   OH246543   0.927   5.670   4.641 -0.0871 -0.9416  0.0101
 8351TIP3    H146544   0.976   5.592   4.614 -0.0698 -0.8993 -0.0824
 8351TIP3    H246545   0.995   5.735   4.659 -0.1007 -0.9567  0.1127
 8352TIP3   OH246546   0.079   2.227   5.704  0.0058  0.1323  0.0829
 8352TIP3    H146547   0.093   2.313   5.663  1.1899 -1.1120 -2.2927
 8352TIP3    H246548   0.166   2.195   5.724 -0.4428 -0.4257  1.1990
 8353TIP3   OH246549   1.380   6.472  14.007 -0.0673 -0.4124  0.2206
 8353TIP3    H146550   1.297   6.491  14.051  0.4871 -0.9279  1.5089
 8353TIP3    H246551   1.357   6.405  13.942 -0.6261 -0.6633  0.6659
 8354TIP3   OH246552   1.364   5.688  12.685 -0.0714 -0.7217 -0.6854
 8354TIP3    H146553   1.336   5.714  12.597  2.1052  0.5876 -1.0667
 8354TIP3    H246554   1.326   5.755  12.742 -0.1218 -0.6208 -0.8359
 8355TIP3   OH246555   0.170   0.872   1.345 -0.7435  0.7866 -0.3518
 8355TIP3    H146556   0.124   0.931   1.285 -0.4389  0.0375 -1.3337
 8355TIP3    H246557   0.103   0.846   1.409 -1.9073 -0.7562 -2.0933
 8356TIP3   OH246558   1.264   0.671   0.091 -0.0344  0.6754 -0.1775
 8356TIP3    H146559   1.297   0.586   0.116  0.7686  1.3751  1.2366
 8356TIP3    H246560   1.341   0.728   0.089 -0.6589  1.5378 -0.3654
 8357TIP3   OH246561   0.689   3.792  10.711 -0.4183  0.3693  0.1283
 8357TIP3    H146562   0.686   3.701  10.741  2.6908 -0.5816 -1.9708
 8357TIP3    H246563   0.607   3.804  10.664 -0.0956 -2.0800 -1.2235
 8358TIP3   OH246564   4.683   3.377   4.332  0.4617 -0.4720  0.1460
 8358TIP3    H146565   4.605   3.339   4.373  0.9154  0.1970  1.7270
 8358TIP3    H246566   4.651   3.454   4.286  0.2311  0.1165  1.2472
 8359TIP3   OH246567   4.826   2.361   0.773 -0.0113 -0.0856 -0.2104
 8359TIP3    H146568   4.896   2.324   0.826  1.0850  0.9241 -0.9058
 8359TIP3    H246569   4.870   2.403   0.700 -1.2696  1.3362 -0.2201
 8360TIP3   OH246570   5.143   3.045  11.730 -0.7390 -0.1261 -0.6473
 8360TIP3    H146571   5.074   3.043  11.663 -1.2907  1.3619 -0.1576
 8360TIP3    H246572   5.130   3.128  11.775 -1.5766 -1.7948  2.5434
 8361TIP3   OH246573   4.208   1.881  10.423 -0.2824 -0.4080 -0.1068
 8361TIP3    H146574   4.302   1.863  10.428 -0.2175 -0.4768 -1.4462
 8361TIP3    H246575   4.167   1.805  10.464  0.2150 -0.8036 -0.3301
 8362TIP3   OH246576   0.598   2.147  13.189 -0.4211  0.4236  0.0768
 8362TIP3    H146577   0.633   2.120  13.274 -0.2243  1.0057  0.1841
 8362TIP3    H246578   0.553   2.229  13.207 -2.0316 -0.3975 -0.0213
 8363TIP3   OH246579   6.301   0.330  12.053  0.7801  0.2485  0.2783
 8363TIP3    H146580   6.241   0.392  12.013  1.2635  2.3078  2.5027
 8363TIP3    H246581   6.248   0.251  12.067 -0.0082  0.2894 -2.0629
 8364TIP3   OH246582   1.055   2.170  12.914 -0.3573  0.0960 -0.1275
 8364TIP3    H146583   1.035   2.206  12.828  2.2283  0.0790 -0.8170
 8364TIP3    H246584   1.018   2.232  12.977 -0.2615  1.3421 -1.2757
 8365TIP3   OH246585   2.389   1.501  11.243 -0.2271 -0.2500 -1.0769
 8365TIP3    H146586   2.394   1.492  11.148  1.3629 -1.5158 -0.9099
 8365TIP3    H246587   2.479   1.494  11.273 -0.8308 -1.3856  0.6320
 8366TIP3   OH246588   5.018   2.378   2.795 -0.0917 -0.0337 -0.4428
 8366TIP3    H146589   5.038   2.289   2.766  1.5295  0.2841 -0.3507
 8366TIP3    H246590   5.076   2.393   2.870  1.0389  1.7560 -1.6075
 8367TIP3   OH246591   4.263   2.264  16.763 -0.1901 -0.0175  0.0806
 8367TIP3    H146592   4.234   2.198  16.700 -0.2662 -0.2572  0.3637
 8367TIP3    H246593   4.358   2.260  16.761 -0.1588  0.7027 -0.7826
 8368TIP3   OH246594   2.698   3.870  14.140  0.0435 -0.1478 -0.3595
 8368TIP3    H146595   2.783   3.877  14.095  0.0385  0.0524 -0.3358
 8368TIP3    H246596   2.702   3.784  14.183 -0.3698 -0.8088 -1.6019
 8369TIP3   OH246597   1.105   2.239   3.903 -0.2821  0.5692  0.3622
 8369TIP3    H146598   1.155   2.172   3.857  0.3810  2.9172 -2.6120
 8369TIP3    H246599   1.019   2.238   3.860 -0.6444  0.9114  1.0552
 8370TIP3   OH246600   0.358   2.332   4.251 -0.8982 -0.0522 -0.7559
 8370TIP3    H146601   0.299   2.343   4.326  0.4850 -3.5318  1.0802
 8370TIP3    H246602   0.442   2.367   4.280 -1.3667  2.9956 -2.6131
 8371TIP3   OH246603   3.326   2.061   3.080 -0.1450  0.0528  0.2369
 8371TIP3    H146604   3.405   2.088   3.034 -0.1138  0.1782  0.3619
 8371TIP3    H246605   3.327   1.966   3.076 -0.3182  0.0697 -0.3163
 8372TIP3   OH246606   3.415   0.764   3.226 -0.0950 -0.7537 -0.4729
 8372TIP3    H146607   3.440   0.702   3.295 -1.2117 -0.4759  0.2078
 8372TIP3    H246608   3.469   0.739   3.151 -0.7739 -2.8158 -0.3428
 8373TIP3   OH246609   0.487   1.237   2.209 -0.3678  0.6294  0.4982
 8373TIP3    H146610   0.418   1.232   2.143 -0.7445  0.8000  0.8756
 8373TIP3    H246611   0.531   1.153   2.205  1.4804  1.5931 -1.9677
 8374TIP3   OH246612   3.390   3.473   1.055  0.3728  0.0322  0.1385
 8374TIP3    H146613   3.476   3.493   1.019  0.1640  0.4226 -0.1420
 8374TIP3    H246614   3.343   3.432   0.982 -0.2465  1.3433 -0.2294
 8375TIP3   OH246615   1.740   1.892   4.669 -0.2252 -0.2238 -0.1198
 8375TIP3    H146616   1.733   1.978   4.627  0.3260  0.3669  0.9558
 8375TIP3    H246617   1.658   1.884   4.718 -0.8367 -0.8817 -1.2106
 8376TIP3   OH246618   2.888   3.490   4.599  0.7769 -0.4602 -0.0391
 8376TIP3    H146619   2.934   3.409   4.618 -0.3420 -1.3836 -1.1302
 8376TIP3    H246620   2.948   3.539   4.542  1.6724 -0.2475  1.0428
 8377TIP3   OH246621   2.760   4.376  15.082 -0.4010 -0.1494 -0.4415
 8377TIP3    H146622   2.703   4.339  15.016 -0.5170 -1.0350  0.1416
 8377TIP3    H246623   2.830   4.419  15.032  0.6397 -2.5279 -1.1910
 8378TIP3   OH246624   5.298   1.660   0.316  0.2384  0.1092  0.8137
 8378TIP3    H146625   5.247   1.588   0.281 -0.9713  1.0133  0.6453
 8378TIP3    H246626   5.381   1.656   0.269  0.7499 -1.9969  1.8041
 8379TIP3   OH246627   2.263   2.122   2.825  0.3254  0.0844 -0.0327
 8379TIP3    H146628   2.189   2.148   2.880  1.0183  0.2071  0.8723
 8379TIP3    H246629   2.253   2.027   2.814  0.1495  0.0693  0.2535
 8380TIP3   OH246630   0.097   4.974  13.508  0.0906 -0.0169 -0.0282
 8380TIP3    H146631   0.048   4.897  13.481 -0.4440 -0.6106  2.3619
 8380TIP3    H246632   0.043   5.048  13.483 -1.4976 -0.6215  1.4170
 8381TIP3   OH246633   3.597   6.425   1.850  0.3818  0.5609 -0.0420
 8381TIP3    H146634   3.669   6.470   1.805 -0.0711  0.7253 -0.6012
 8381TIP3    H246635   3.527   6.490   1.854 -0.4951 -0.2614 -1.3730
 8382TIP3   OH246636   2.165   1.603  15.721  0.0133  0.5736  0.1684
 8382TIP3    H146637   2.195   1.636  15.636  0.2911 -0.3217 -0.0887
 8382TIP3    H246638   2.090   1.659  15.743  0.4762  1.3688 -0.2523
 8383TIP3   OH246639   2.756   4.511  15.809 -0.5185  0.3734 -0.2663
 8383TIP3    H146640   2.786   4.468  15.889  1.3161 -1.4814 -1.8408
 8383TIP3    H246641   2.812   4.588  15.801  0.8398 -0.6363 -0.8539
 8384TIP3   OH246642   2.011   3.153  12.398  0.4007 -0.1104  0.4315
 8384TIP3    H146643   1.948   3.202  12.345 -0.4209  0.4843  1.8720
 8384TIP3    H246644   1.995   3.184  12.488  3.0495  0.3953  0.8259
 8385TIP3   OH246645   2.824   1.085   0.086 -0.4761  0.6644  0.1415
 8385TIP3    H146646   2.868   1.157   0.132  0.5162  0.8944 -1.1436
 8385TIP3    H246647   2.774   1.128   0.016 -2.1656  0.3338  1.0710
 8386TIP3   OH246648   1.077   1.575   4.092  0.3684  0.3184  0.3402
 8386TIP3    H146649   1.049   1.667   4.094  2.1199  0.8640  1.6657
 8386TIP3    H246650   1.129   1.568   4.012 -0.2323  0.3250 -0.0570
 8387TIP3   OH246651   2.983   6.453   4.801 -0.1754 -0.0411  0.4034
 8387TIP3    H146652   2.968   6.498   4.884  0.3377  0.8201  0.0393
 8387TIP3    H246653   3.010   6.522   4.740  0.5553 -0.8218 -0.1878
 8388TIP3   OH246654   1.353   2.454  16.044 -0.1626 -0.0167 -0.1540
 8388TIP3    H146655   1.429   2.459  16.102 -0.7087 -1.1046  0.6994
 8388TIP3    H246656   1.374   2.512  15.971  1.4270 -0.2029  0.1255
 8389TIP3   OH246657   4.894   2.614  13.986  0.4758 -0.3752 -0.2138
 8389TIP3    H146658   4.914   2.527  13.950 -1.5865 -0.7377 -0.6125
 8389TIP3    H246659   4.837   2.595  14.061  0.8771  0.6030  0.3473
 8390TIP3   OH246660   1.726   1.225   4.181  0.0164  0.8788  0.1930
 8390TIP3    H146661   1.803   1.193   4.228  0.8805  0.0556 -1.6817
 8390TIP3    H246662   1.736   1.320   4.180  1.6941  0.7209 -1.0961
 8391TIP3   OH246663   6.285   4.627   5.297 -0.5054 -0.3289 -0.0183
 8391TIP3    H146664   6.237   4.545   5.295 -0.3127 -0.4902 -2.9473
 8391TIP3    H246665   6.229   4.689   5.249  0.9617  0.1797 -1.1769
 8392TIP3   OH246666   6.242   2.164  12.561 -0.0909  0.0307  0.0391
 8392TIP3    H146667   6.310   2.224  12.591  0.4654 -0.6462  0.1764
 8392TIP3    H246668   6.200   2.133  12.642 -1.0435  0.9820 -0.0790
 8393TIP3   OH246669   3.265   4.592   4.038 -0.0312  0.6573  0.5584
 8393TIP3    H146670   3.240   4.589   3.946  0.0487  0.7928  0.5315
 8393TIP3    H246671   3.279   4.685   4.056  1.8696  0.4828  0.1771
 8394TIP3   OH246672   3.186   3.502   2.208  0.1043 -0.0441  0.3398
 8394TIP3    H146673   3.139   3.585   2.213  0.5007  0.2904 -1.0012
 8394TIP3    H246674   3.162   3.466   2.122  1.0158 -0.6367  0.3214
 8395TIP3   OH246675   0.144   6.267   5.200  0.5336 -0.4977 -0.1478
 8395TIP3    H146676   0.232   6.240   5.224  0.1357 -0.3466  1.6168
 8395TIP3    H246677   0.136   6.245   5.107  2.5883 -0.0450 -0.4719
 8396TIP3   OH246678   2.222   2.090   1.016 -0.4082  0.2837  0.8127
 8396TIP3    H146679   2.161   2.122   1.083 -0.5450 -0.0504  0.8459
 8396TIP3    H246680   2.308   2.117   1.048 -0.5991  1.4521  0.3782
 8397TIP3   OH246681   1.440   3.691   5.535  0.2753  0.3762  0.3771
 8397TIP3    H146682   1.487   3.759   5.582  1.4061 -0.6054  0.7171
 8397TIP3    H246683   1.349   3.721   5.534  0.4598  1.0807  1.9719
 8398TIP3   OH246684   4.410   2.881   5.334  0.5974  0.3375 -0.2527
 8398TIP3    H146685   4.495   2.836   5.332  1.3389  1.7078 -1.6236
 8398TIP3    H246686   4.414   2.938   5.410  1.8592  2.0615 -1.5430
 8399TIP3   OH246687   4.339   0.869   3.495  0.0331  0.2724  0.2690
 8399TIP3    H146688   4.415   0.814   3.515 -0.0001 -0.1320 -0.6571
 8399TIP3    H246689   4.375   0.946   3.452 -0.1606 -0.6142 -1.5792
 8400TIP3   OH246690   3.625   2.057  16.421  0.3317  0.2981 -0.0457
 8400TIP3    H146691   3.675   2.121  16.369  0.0506  0.1980 -0.4433
 8400TIP3    H246692   3.587   2.108  16.492  1.3356  0.3089  0.5036
 8401TIP3   OH246693   5.689   4.016   2.080 -0.8428  0.1283 -0.1260
 8401TIP3    H146694   5.772   4.005   2.034 -1.3651 -0.3382 -0.9714
 8401TIP3    H246695   5.667   3.928   2.111 -0.4496  0.4415  1.1473
 8402TIP3   OH246696   0.916   4.534   3.481 -0.3695  0.3576  0.8115
 8402TIP3    H146697   0.963   4.587   3.416 -0.9025 -0.4847 -0.2906
 8402TIP3    H246698   0.842   4.588   3.507 -0.2027  0.6656  0.6598
 8403TIP3   OH246699   0.530   3.608  12.988 -0.0553  0.1054  0.0011
 8403TIP3    H146700   0.483   3.525  12.978 -0.2924  0.3387 -0.9665
 8403TIP3    H246701   0.617   3.591  12.950 -0.1020  0.2916 -0.1931
 8404TIP3   OH246702   3.279   5.141   1.398  0.6078  0.6509  0.0800
 8404TIP3    H146703   3.212   5.093   1.446  1.0430  1.0893  1.1651
 8404TIP3    H246704   3.250   5.139   1.307 -0.9334  0.9195  0.5342
 8405TIP3   OH246705   1.628   5.193  11.403  0.3488  0.3546  0.1364
 8405TIP3    H146706   1.583   5.119  11.363 -1.1321  1.1778  0.2112
 8405TIP3    H246707   1.663   5.159  11.486  1.3760 -0.7304 -0.7090
 8406TIP3   OH246708   3.541   1.545  16.727  0.1719 -0.3027 -0.3886
 8406TIP3    H146709   3.452   1.545  16.691  0.3155 -1.5935 -0.8010
 8406TIP3    H246710   3.530   1.516  16.818  0.0081  1.2167  0.1080
 8407TIP3   OH246711   6.412   1.807   2.199 -0.1337 -0.1919  0.0739
 8407TIP3    H146712   6.415   1.712   2.196  0.6444 -0.1815  0.2400
 8407TIP3    H246713   6.458   1.835   2.119 -0.3780  0.0478  0.0141
 8408TIP3   OH246714   1.441   2.126  14.466 -0.2226 -0.3770  0.0873
 8408TIP3    H146715   1.366   2.075  14.436 -1.1523  0.4498  0.8878
 8408TIP3    H246716   1.479   2.073  14.536 -1.2009 -0.0170  0.9358
 8409TIP3   OH246717   5.038   3.430  12.951 -0.0659 -0.2652 -0.0071
 8409TIP3    H146718   5.076   3.405  12.866 -1.1047  0.5936 -0.7522
 8409TIP3    H246719   5.113   3.460  13.003  0.3355  1.1775 -1.3532
 8410TIP3   OH246720   4.820   2.765   2.387 -0.1903  0.0891  0.6007
 8410TIP3    H146721   4.765   2.798   2.458  0.2765  0.1896  0.9246
 8410TIP3    H246722   4.899   2.819   2.391 -0.2162  0.1870 -0.0877
 8411TIP3   OH246723   5.179   4.835   2.531  0.1215  0.2150  0.2118
 8411TIP3    H146724   5.127   4.804   2.605 -0.0752  1.3303  0.5542
 8411TIP3    H246725   5.258   4.872   2.570 -0.0110  0.8671 -0.1257
 8412TIP3   OH246726   2.583   3.055  12.989  0.8616  0.0766  0.1917
 8412TIP3    H146727   2.606   3.031  13.079  0.1718  2.1965  1.0091
 8412TIP3    H246728   2.498   3.014  12.975  0.5660  0.4403  0.8530
 8413TIP3   OH246729   3.954   1.851   2.610  0.3272 -0.3958 -0.5885
 8413TIP3    H146730   4.035   1.892   2.639 -0.5554  0.3455  0.9812
 8413TIP3    H246731   3.971   1.757   2.613  0.5550 -0.3299  1.6217
 8414TIP3   OH246732   5.349   2.735  13.626 -0.6746 -0.1332  0.6977
 8414TIP3    H146733   5.357   2.665  13.561 -1.4767 -1.2747  1.7746
 8414TIP3    H246734   5.266   2.777  13.606  0.6919  1.8681 -1.1697
 8415TIP3   OH246735   5.541   3.109  12.017 -0.2798  0.6288 -0.1465
 8415TIP3    H146736   5.597   3.108  11.939 -0.7076 -1.2229 -0.4647
 8415TIP3    H246737   5.602   3.120  12.090  0.5066 -1.0305 -0.5121
 8416TIP3   OH246738   4.811   5.397  17.018 -0.5063  0.3332  1.1245
 8416TIP3    H146739   4.880   5.460  16.998 -0.1625 -0.4309 -0.2056
 8416TIP3    H246740   4.833   5.364  17.105  0.9766 -0.1085  0.6029
 8417TIP3   OH246741   6.111   5.213   2.740  0.2221  0.0675  0.3642
 8417TIP3    H146742   6.106   5.139   2.800  2.2182  0.4767  1.0979
 8417TIP3    H246743   6.020   5.228   2.714 -0.3226 -2.2314  0.6555
 8418TIP3   OH246744   5.954   0.150   4.959  0.1107 -0.1531 -0.1010
 8418TIP3    H146745   6.041   0.180   4.985  0.7550  0.0463 -2.2931
 8418TIP3    H246746   5.967   0.061   4.926 -0.5450 -0.1916 -0.2809
 8419TIP3   OH246747   3.780   3.143  12.244  0.0905  0.5326  0.5288
 8419TIP3    H146748   3.820   3.219  12.288 -0.9511  1.1757  0.3928
 8419TIP3    H246749   3.712   3.180  12.189 -0.8599 -0.5504  0.9267
 8420TIP3   OH246750   6.186   0.107   3.055  0.2910  0.7234  0.1610
 8420TIP3    H146751   6.268   0.134   3.013 -0.7266  0.7753 -1.9478
 8420TIP3    H246752   6.188   0.146   3.142  3.7379 -1.5316  1.2916
 8421TIP3   OH246753   2.340   5.441  15.049  0.6179  0.0031 -0.2864
 8421TIP3    H146754   2.335   5.447  14.954  0.9614 -0.8110 -0.3597
 8421TIP3    H246755   2.405   5.506  15.074 -1.1048  1.8767 -0.3857
 8422TIP3   OH246756   4.360   6.206   1.984 -0.1565 -0.2196  0.0644
 8422TIP3    H146757   4.276   6.249   1.969  0.0139 -0.0851 -0.5061
 8422TIP3    H246758   4.383   6.230   2.074 -1.1461 -0.9715  0.5400
 8423TIP3   OH246759   6.724   2.239  10.889 -0.3671  0.2010 -0.0775
 8423TIP3    H146760   6.769   2.279  10.963 -1.7266 -0.5686  1.2401
 8423TIP3    H246761   6.710   2.311  10.827 -1.3970  1.4841  1.5450
 8424TIP3   OH246762   5.662   2.236  12.054  0.7309  0.8719 -0.5910
 8424TIP3    H146763   5.702   2.220  11.968  0.7284  1.1292 -0.6397
 8424TIP3    H246764   5.648   2.330  12.057  1.4452  0.9653  0.0019
 8425TIP3   OH246765   4.514   3.907   2.558 -0.0683  0.1577  0.1185
 8425TIP3    H146766   4.449   3.969   2.589 -0.7769 -0.5567  0.0776
 8425TIP3    H246767   4.474   3.821   2.569  1.0386 -0.3283  0.5176
 8426TIP3   OH246768   0.727   1.639   4.113  0.1148 -0.5345 -0.4515
 8426TIP3    H146769   0.761   1.723   4.145  1.5475 -1.0275 -0.6304
 8426TIP3    H246770   0.669   1.609   4.183  0.0024  0.3559 -0.1493
 8427TIP3   OH246771   3.035   4.577   2.218 -0.5291  0.3678 -0.1511
 8427TIP3    H146772   3.128   4.568   2.197 -0.5200 -1.6762  0.4866
 8427TIP3    H246773   3.000   4.488   2.210 -1.8869  0.6187  2.0080
 8428TIP3   OH246774   5.017   1.454  15.859 -0.4823 -0.1052 -0.2747
 8428TIP3    H146775   5.079   1.471  15.788 -2.4260  1.5135 -1.6681
 8428TIP3    H246776   5.003   1.539  15.900 -1.5040 -0.5127  0.2437
 8429TIP3   OH246777   5.269   4.830  15.991  0.1942 -0.0102 -0.1135
 8429TIP3    H146778   5.177   4.827  16.018  0.3510  1.3555  0.6810
 8429TIP3    H246779   5.315   4.780  16.059  0.0726 -0.5111 -0.3943
 8430TIP3   OH246780   3.914   2.142  13.294  0.5742 -0.2000  0.0665
 8430TIP3    H146781   3.982   2.164  13.231  1.3287  0.3771  1.0768
 8430TIP3    H246782   3.933   2.052  13.319  0.7713 -0.1470  0.1070
 8431TIP3   OH246783   0.934   6.064   6.108  0.2093 -0.0230 -0.4320
 8431TIP3    H146784   0.963   6.101   6.191 -0.3806 -2.4985  0.9804
 8431TIP3    H246785   0.838   6.068   6.112  0.1602 -0.7437 -0.6733
 8432TIP3   OH246786   1.200   1.909  11.589  0.1640 -0.3159  0.4511
 8432TIP3    H146787   1.286   1.906  11.547  0.1177  0.4271  0.2973
 8432TIP3    H246788   1.139   1.879  11.521  0.3443 -1.2403  0.6901
 8433TIP3   OH246789   4.766   5.667  12.941 -0.3884  0.1750  0.0977
 8433TIP3    H146790   4.830   5.645  13.008 -3.1310 -2.0078  2.2600
 8433TIP3    H246791   4.749   5.761  12.953 -0.3084 -0.0264  2.0717
 8434TIP3   OH246792   6.546   6.231  17.290  0.1831  0.1028  0.2061
 8434TIP3    H146793   6.567   6.139  17.307 -2.7981 -0.8745 -0.8945
 8434TIP3    H246794   6.612   6.258  17.225  1.3790 -1.0783  0.8647
 8435TIP3   OH246795   2.790   4.092   5.856 -0.7216 -0.6776  0.0152
 8435TIP3    H146796   2.794   4.108   5.761 -1.1150 -0.4194  0.0405
 8435TIP3    H246797   2.699   4.068   5.873 -0.5724 -1.0774  0.2784
 8436TIP3   OH246798   1.901   2.322   4.039 -0.0231 -0.5835 -0.2859
 8436TIP3    H146799   1.887   2.265   3.963  1.3286  0.5593 -1.4585
 8436TIP3    H246800   1.985   2.294   4.074 -0.2361 -0.5293  0.2770
 8437TIP3   OH246801   1.200   2.750  16.334 -0.3441 -0.1212 -0.1279
 8437TIP3    H146802   1.226   2.841  16.325  0.3043 -0.2236  0.5890
 8437TIP3    H246803   1.210   2.731  16.428  2.1878 -1.6913 -0.6132
 8438TIP3   OH246804   2.686   4.356   2.099  0.4295 -0.3340 -0.4381
 8438TIP3    H146805   2.668   4.449   2.104  0.3314 -0.3405 -0.6260
 8438TIP3    H246806   2.781   4.349   2.101  0.6529  0.0233 -3.7677
 8439TIP3   OH246807   1.200   5.177   5.618 -0.7239 -0.1392 -0.1775
 8439TIP3    H146808   1.137   5.148   5.552 -3.0866  2.1606  0.8630
 8439TIP3    H246809   1.261   5.233   5.570 -1.3548  0.1049 -0.7031
 8440TIP3   OH246810   3.126   0.849  15.886 -0.3650 -0.1047  0.2375
 8440TIP3    H146811   3.207   0.880  15.846 -1.2376  0.1042 -1.4689
 8440TIP3    H246812   3.151   0.770  15.934  1.0072  0.5296  0.6201
 8441TIP3   OH246813   0.141   0.500  14.648  0.3286 -0.0757  0.3449
 8441TIP3    H146814   0.165   0.408  14.657  1.8665  0.3970  1.6232
 8441TIP3    H246815   0.074   0.501  14.580 -1.0457 -2.3517  1.5281
 8442TIP3   OH246816   1.182   2.218   2.200  0.9301  0.3968  0.1613
 8442TIP3    H146817   1.202   2.133   2.162  0.9952  0.3937  0.2026
 8442TIP3    H246818   1.260   2.241   2.250  0.2173 -0.3799  1.7145
 8443TIP3   OH246819   5.047   1.260  12.422 -0.6621 -0.5579 -0.7312
 8443TIP3    H146820   5.043   1.308  12.340 -2.1772 -1.6859 -1.3761
 8443TIP3    H246821   4.973   1.293  12.473 -0.9105 -1.2362 -0.6405
 8444TIP3   OH246822   1.132   0.062  16.135  0.0052 -0.1413  0.1706
 8444TIP3    H146823   1.095   0.103  16.057 -0.9073 -0.0994  0.6187
 8444TIP3    H246824   1.223   0.045  16.111 -0.5535 -1.2776 -1.3705
 8445TIP3   OH246825   1.518   5.985   4.213 -0.5797  0.4920 -0.2954
 8445TIP3    H146826   1.584   6.002   4.280  1.9756 -0.2846 -2.4635
 8445TIP3    H246827   1.455   5.927   4.256 -0.0000  1.4008  1.9207
 8446TIP3   OH246828   4.305   3.252   5.955  0.1018  0.2464  0.4838
 8446TIP3    H146829   4.392   3.211   5.957  1.3180  2.6801  0.8694
 8446TIP3    H246830   4.306   3.313   6.029 -0.7298  2.6077 -1.3455
 8447TIP3   OH246831   1.253   0.241   2.432  0.2431  0.3629  0.1266
 8447TIP3    H146832   1.272   0.228   2.525 -0.5838  0.9426  0.3900
 8447TIP3    H246833   1.315   0.184   2.386 -0.4218 -1.1979  1.0843
 8448TIP3   OH246834   4.544   3.586   4.129 -0.0624  0.0696  0.0539
 8448TIP3    H146835   4.572   3.629   4.048 -2.2109  0.6386 -0.4546
 8448TIP3    H246836   4.499   3.655   4.177  1.2876 -0.2326  1.8446
 8449TIP3   OH246837   4.914   4.855   0.850 -0.5725 -0.3994  0.2292
 8449TIP3    H146838   4.821   4.830   0.853 -0.7018  0.1107  0.7924
 8449TIP3    H246839   4.914   4.945   0.820 -0.0265 -1.3427 -2.9685
 8450TIP3   OH246840   5.878   4.974   0.999 -0.0038 -0.5974  0.0607
 8450TIP3    H146841   5.828   4.898   0.969  0.9133 -2.4303  2.8295
 8450TIP3    H246842   5.812   5.043   1.010 -1.4146 -1.9662  0.5448
 8451TIP3   OH246843   6.739   2.169   4.787  0.4319  0.6252 -0.8174
 8451TIP3    H146844   6.810   2.222   4.750 -0.8205  1.7567 -1.6392
 8451TIP3    H246845   6.703   2.121   4.713  1.4311 -1.3419 -0.1158
 8452TIP3   OH246846   5.023   4.735   1.065 -0.3578  0.4328  0.4031
 8452TIP3    H146847   4.989   4.649   1.090 -0.3344 -0.7947 -3.2006
 8452TIP3    H246848   4.975   4.758   0.986  2.7237  1.6152 -1.3096
 8453TIP3   OH246849   4.897   3.602   6.390  0.2488  0.3552  0.0286
 8453TIP3    H146850   4.819   3.563   6.431  0.6153 -0.3211  0.1000
 8453TIP3    H246851   4.971   3.562   6.436  0.6708  3.2473  2.0829
 8454TIP3   OH246852   3.099   4.822   1.754  0.3302 -0.6061 -0.8740
 8454TIP3    H146853   3.194   4.812   1.765  0.6229  1.7354 -0.7098
 8454TIP3    H246854   3.066   4.830   1.844  0.2629  0.5100 -0.9871
 8455TIP3   OH246855   5.113   4.165   0.517 -0.9673 -0.1768 -0.6706
 8455TIP3    H146856   5.119   4.236   0.581 -3.1461 -0.0560 -0.5501
 8455TIP3    H246857   5.179   4.102   0.545  0.1415  1.1899 -0.0415
 8456TIP3   OH246858   3.894   6.288   2.528 -0.1898 -0.5356  0.3736
 8456TIP3    H146859   3.841   6.209   2.540 -0.7168 -0.2334  0.0573
 8456TIP3    H246860   3.951   6.267   2.454 -0.0071 -0.7822  0.5792
 8457TIP3   OH246861   1.580   5.740   1.501 -0.5262  0.1519 -0.1159
 8457TIP3    H146862   1.659   5.742   1.447  0.7488 -1.2006  1.5735
 8457TIP3    H246863   1.593   5.810   1.565 -1.1400  0.5075 -0.3705
 8458TIP3   OH246864   2.389   6.520   3.668 -0.0291  0.4442  0.1946
 8458TIP3    H146865   2.432   6.535   3.752  3.2717 -1.7372 -0.8675
 8458TIP3    H246866   2.327   6.449   3.684 -0.5311  1.0568  1.0339
 8459TIP3   OH246867   0.070   2.299  16.305  0.1000 -0.1084 -0.2765
 8459TIP3    H146868   0.069   2.203  16.311 -2.6629 -0.1252  0.1872
 8459TIP3    H246869   0.064   2.316  16.211  0.1418 -0.3875 -0.3327
 8460TIP3   OH246870   1.344   2.746  17.039  0.0434 -0.3267  0.4231
 8460TIP3    H146871   1.369   2.736  16.947 -1.8077 -0.6346 -0.0742
 8460TIP3    H246872   1.424   2.777  17.081  0.6574  0.9316 -1.4915
 8461TIP3   OH246873   4.933   1.436  14.059 -0.0280 -0.0199 -0.5672
 8461TIP3    H146874   4.939   1.431  13.964 -0.7696 -0.2086 -0.6098
 8461TIP3    H246875   4.959   1.525  14.080  3.0158 -0.7751 -0.6869
 8462TIP3   OH246876   4.476   6.615  14.290  0.2269 -0.6814 -0.2094
 8462TIP3    H146877   4.464   6.707  14.266 -1.3818 -1.5138 -3.1754
 8462TIP3    H246878   4.406   6.597  14.353  0.8090  0.1840  0.7087
 8463TIP3   OH246879   4.684   3.119   6.659 -0.6224  0.6075 -0.3332
 8463TIP3    H146880   4.688   3.083   6.570 -0.0093 -0.1157 -0.0327
 8463TIP3    H246881   4.617   3.187   6.655 -0.3867  0.7921 -1.4211
 8464TIP3   OH246882   1.702   3.909  12.207 -0.2110  0.3217  0.5386
 8464TIP3    H146883   1.764   3.956  12.152  0.8641  0.2616  1.6811
 8464TIP3    H246884   1.620   3.912  12.157  1.2027 -1.7945 -2.2696
 8465TIP3   OH246885   0.225   4.680  13.407  0.5526  0.2786 -0.0596
 8465TIP3    H146886   0.188   4.596  13.434  0.8332  0.1372 -0.1184
 8465TIP3    H246887   0.149   4.736  13.391  0.3705  0.1061  0.2073
 8466TIP3   OH246888   2.362   2.099   2.062 -0.3164 -0.1472 -0.6601
 8466TIP3    H146889   2.379   2.193   2.048 -0.3058 -0.1442 -0.6266
 8466TIP3    H246890   2.401   2.056   1.986  1.0881 -0.2705  0.1030
 8467TIP3   OH246891   3.583   1.848   2.124 -0.1395 -0.2528 -0.0205
 8467TIP3    H146892   3.561   1.781   2.059 -0.1115 -1.5212  1.2039
 8467TIP3    H246893   3.502   1.895   2.139 -0.2710 -0.2924 -0.5880
 8468TIP3   OH246894   4.879   6.405   6.166  0.1566 -0.2415 -0.2406
 8468TIP3    H146895   4.860   6.329   6.221  0.3093 -0.1181 -0.0195
 8468TIP3    H246896   4.938   6.371   6.099 -0.1249 -0.4189 -0.4058
 8469TIP3   OH246897   3.554   0.512  11.989 -0.0827  0.4374  0.1073
 8469TIP3    H146898   3.564   0.556  12.073 -0.2350 -0.0102  0.3660
 8469TIP3    H246899   3.601   0.429  12.000 -0.5582  0.1425 -0.0645
 8470TIP3   OH246900   3.200   3.729  17.028 -0.2704  0.0319  0.2189
 8470TIP3    H146901   3.271   3.700  16.971 -0.8897  0.1421 -0.6324
 8470TIP3    H246902   3.141   3.653  17.034  0.7259 -0.6726  2.3263
 8471TIP3   OH246903   2.199   4.392   1.719 -0.0179  0.8407  0.3221
 8471TIP3    H146904   2.255   4.326   1.761  0.7474  2.1494  1.4432
 8471TIP3    H246905   2.246   4.415   1.639  0.1300  0.6213  0.3449
 8472TIP3   OH246906   4.491   3.572   5.728 -0.0214 -0.6581 -0.4024
 8472TIP3    H146907   4.521   3.515   5.799 -1.3572 -0.6661  0.1966
 8472TIP3    H246908   4.520   3.659   5.752  0.1032 -0.7615 -0.1814
 8473TIP3   OH246909   3.927   0.679  16.611  0.9404  0.7991  0.1414
 8473TIP3    H146910   3.957   0.613  16.674 -1.2716 -0.4479 -0.0051
 8473TIP3    H246911   3.962   0.649  16.527 -1.0406 -0.9630 -0.1252
 8474TIP3   OH246912   3.914   3.613  15.153 -0.2821 -0.3406  0.7989
 8474TIP3    H146913   3.859   3.654  15.086 -0.9279 -0.0028  1.5215
 8474TIP3    H246914   3.853   3.562  15.206  0.3016 -1.0129  0.8305
 8475TIP3   OH246915   3.425   1.717  16.372  0.2391 -0.4418 -0.6167
 8475TIP3    H146916   3.425   1.761  16.457  1.6949 -0.2910 -0.6716
 8475TIP3    H246917   3.334   1.690  16.359 -0.0025 -0.5094  1.0053
 8476TIP3   OH246918   4.825   4.234  14.721  0.3452 -0.3292 -0.4191
 8476TIP3    H146919   4.836   4.141  14.744 -0.1448 -0.6881 -1.5433
 8476TIP3    H246920   4.879   4.281  14.784  0.1612 -1.3438  0.5193
 8477TIP3   OH246921   5.362   0.522   4.108  0.2378 -0.7227 -0.1779
 8477TIP3    H146922   5.391   0.578   4.180 -0.2841 -0.6987  0.0187
 8477TIP3    H246923   5.433   0.526   4.044  1.2739 -1.7545  0.8789
 8478TIP3   OH246924   6.095   3.450  16.251  0.0563  0.0063  0.4408
 8478TIP3    H146925   6.024   3.390  16.228  0.4843 -0.1434 -0.5204
 8478TIP3    H246926   6.067   3.535  16.218 -0.5337  0.3502  1.7717
 8479TIP3   OH246927   2.950   2.094  13.699  0.2627  0.4145 -0.4030
 8479TIP3    H146928   2.945   2.119  13.606  1.6326  1.6506 -0.1926
 8479TIP3    H246929   2.859   2.076  13.724 -0.0844 -0.3670 -2.0769
 8480TIP3   OH246930   4.161   0.134  17.229  0.0252  0.3057 -0.1455
 8480TIP3    H146931   4.179   0.223  17.200 -1.0776  0.4440 -0.4435
 8480TIP3    H246932   4.139   0.142  17.321 -1.0063  0.4890 -0.3905
 8481TIP3   OH246933   5.725   2.717   3.430  0.2714  0.7674 -0.0541
 8481TIP3    H146934   5.670   2.763   3.493  0.1415  1.1375 -0.4320
 8481TIP3    H246935   5.673   2.643   3.401  0.2919  0.6542  0.1968
 8482TIP3   OH246936   2.340   2.365  14.009 -0.5819 -0.8292  0.2552
 8482TIP3    H146937   2.306   2.438  14.061  2.4996  0.3232  0.8745
 8482TIP3    H246938   2.327   2.392  13.918 -0.8608 -0.2235  0.4686
 8483TIP3   OH246939   0.444   4.760   2.482 -0.0095  0.2322  0.1773
 8483TIP3    H146940   0.396   4.838   2.457 -1.5597 -0.8647 -0.3933
 8483TIP3    H246941   0.417   4.743   2.572 -1.9148 -1.2088 -0.6109
 8484TIP3   OH246942   1.749   2.597   1.133 -0.2818  0.1182  0.3354
 8484TIP3    H146943   1.738   2.689   1.106 -1.3310  0.2802  1.2492
 8484TIP3    H246944   1.661   2.569   1.157  0.2412 -0.7395  1.3094
 8485TIP3   OH246945   5.970   1.034  15.221 -0.4156 -0.5126  0.2077
 8485TIP3    H146946   5.878   1.022  15.242 -0.4968  0.2380  0.2982
 8485TIP3    H246947   5.971   1.056  15.128 -0.4894  1.2013  0.5822
 8486TIP3   OH246948   5.479   3.104   0.301  0.4638  0.2424 -0.0498
 8486TIP3    H146949   5.547   3.055   0.254 -0.9412 -1.7494 -0.1431
 8486TIP3    H246950   5.516   3.118   0.389  0.9655 -0.9238 -0.0552
 8487TIP3   OH246951   3.564   1.948   0.670 -0.0772 -0.4570 -0.6093
 8487TIP3    H146952   3.597   1.890   0.601 -1.8382 -0.2078 -1.7269
 8487TIP3    H246953   3.552   2.033   0.626 -1.4139 -0.3489 -0.0843
 8488TIP3   OH246954   5.722   4.602   6.061 -0.4564 -0.1706  0.4680
 8488TIP3    H146955   5.676   4.667   6.008  0.2309  0.3296  0.4857
 8488TIP3    H246956   5.814   4.611   6.036 -0.2047 -0.3306  1.3300
 8489TIP3   OH246957   5.048   5.305  14.379 -0.0846  0.7019 -0.6103
 8489TIP3    H146958   5.097   5.376  14.421 -1.1455  1.2380 -0.2486
 8489TIP3    H246959   5.086   5.225  14.415  1.5390  1.0240 -1.4617
 8490TIP3   OH246960   5.913   2.022   3.985 -0.0318  0.4931  0.0959
 8490TIP3    H146961   6.002   2.010   3.953  0.2053  0.7951  0.6242
 8490TIP3    H246962   5.866   1.944   3.956  0.6712 -0.1792  0.7120
 8491TIP3   OH246963   1.650   3.950   5.353  0.4810 -0.3826 -0.3539
 8491TIP3    H146964   1.557   3.972   5.358  0.1788 -1.7238  0.5907
 8491TIP3    H246965   1.654   3.878   5.291  0.3328 -2.7272  2.1766
 8492TIP3   OH246966   5.367   5.549   5.956 -0.6991 -0.0427 -0.5510
 8492TIP3    H146967   5.399   5.558   6.046 -2.3160 -0.7723  0.1243
 8492TIP3    H246968   5.447   5.537   5.903  0.3391  1.2253  0.6381
 8493TIP3   OH246969   4.531   1.721   1.169  0.0098 -0.0936  0.0099
 8493TIP3    H146970   4.517   1.810   1.136  0.5271  0.2313  0.6412
 8493TIP3    H246971   4.594   1.732   1.240 -0.2703 -0.9115  0.3937
 8494TIP3   OH246972   0.095   0.813   2.374 -0.0852  0.3395  0.0974
 8494TIP3    H146973   0.070   0.723   2.394  0.7880 -0.4798 -2.0933
 8494TIP3    H246974   0.016   0.865   2.388 -0.5728 -0.7379  1.4859
 8495TIP3   OH246975   6.696   4.544  11.871 -0.2091 -0.2573  0.0583
 8495TIP3    H146976   6.652   4.583  11.795 -1.0061  0.2758  0.7717
 8495TIP3    H246977   6.665   4.454  11.873 -0.5319 -0.1495 -0.0071
 8496TIP3   OH246978   0.871   1.843  15.987 -0.0497 -0.8721  0.0114
 8496TIP3    H146979   0.800   1.782  16.007  0.2068 -0.4731  2.3386
 8496TIP3    H246980   0.828   1.929  15.983 -0.0867 -0.9306 -1.2552
 8497TIP3   OH246981   1.177   4.664  14.074 -0.2310 -0.2013  0.1123
 8497TIP3    H146982   1.268   4.659  14.103 -0.0904  1.6323  0.0841
 8497TIP3    H246983   1.131   4.598  14.126  1.1031 -1.1578  0.1206
 8498TIP3   OH246984   1.172   1.284  14.850  0.1476 -0.2505 -0.1574
 8498TIP3    H146985   1.234   1.220  14.814 -0.2957 -1.2629  0.8249
 8498TIP3    H246986   1.089   1.264  14.807 -0.1037 -0.6773  0.5061
 8499TIP3   OH246987   6.229   4.258   0.526  0.4509  0.0397  0.2581
 8499TIP3    H146988   6.264   4.182   0.480  0.3962 -0.0215  0.3181
 8499TIP3    H246989   6.260   4.333   0.475 -0.4589 -0.0616 -0.4754
 8500TIP3   OH246990   0.233   5.960   3.747  0.0706 -0.3683 -1.3020
 8500TIP3    H146991   0.237   6.046   3.789 -1.3372 -0.7151 -0.4056
 8500TIP3    H246992   0.240   5.898   3.819 -0.0600 -1.0078 -1.8298
 8501TIP3   OH246993   3.667   0.331   1.146 -0.0233  0.2810  0.0950
 8501TIP3    H146994   3.716   0.387   1.206  1.7813 -0.3207 -0.7657
 8501TIP3    H246995   3.612   0.391   1.096 -0.3786  0.9389  1.2296
 8502TIP3   OH246996   4.664   4.368  14.541 -0.2027 -0.3489  0.1031
 8502TIP3    H146997   4.620   4.326  14.467  0.9545  1.5199 -1.7526
 8502TIP3    H246998   4.734   4.307  14.565  1.1882  0.1744 -2.2760
 8503TIP3   OH246999   0.883   5.668  14.486 -0.2204  0.3712  0.4014
 8503TIP3    H147000   0.789   5.662  14.498 -0.1260  0.6217  1.3629
 8503TIP3    H247001   0.904   5.759  14.509  0.0739  0.7534 -1.2210
 8504TIP3   OH247002   1.680   3.222  12.889 -0.2858 -0.0358 -0.0571
 8504TIP3    H147003   1.627   3.245  12.813 -1.1583  0.6770  0.7398
 8504TIP3    H247004   1.734   3.299  12.904 -0.8136  0.2151  0.6107
 8505TIP3   OH247005   6.092   3.286   0.672  1.0513 -0.3557 -0.2196
 8505TIP3    H147006   6.054   3.308   0.757  1.7613  0.0300  0.0053
 8505TIP3    H247007   6.157   3.354   0.656  1.0013 -0.4873 -1.0255
 8506TIP3   OH247008   5.902   0.996  11.643 -0.6386 -0.0855 -0.7000
 8506TIP3    H147009   5.930   1.026  11.730 -0.3995  0.8220 -1.0787
 8506TIP3    H247010   5.807   0.986  11.651 -0.6200  0.0120 -0.3342
 8507TIP3   OH247011   2.839   5.114  10.514 -0.7465  0.1754 -0.5540
 8507TIP3    H147012   2.787   5.194  10.528  1.1422  1.4835 -0.6635
 8507TIP3    H247013   2.842   5.104  10.419 -1.3439 -0.2962 -0.5296
 8508TIP3   OH247014   5.625   3.946   1.452  0.0300  0.1257 -0.2903
 8508TIP3    H147015   5.581   3.999   1.519  1.3984 -1.2708  1.8185
 8508TIP3    H247016   5.599   3.856   1.472  2.5705 -0.5917  0.0975
 8509TIP3   OH247017   2.212   2.331   6.815 -0.2969 -0.1799  0.3967
 8509TIP3    H147018   2.235   2.388   6.742 -0.7326 -0.6756 -0.1354
 8509TIP3    H247019   2.222   2.387   6.892 -1.4708  0.8498 -0.1653
 8510TIP3   OH247020   6.100   4.295   6.000 -0.0734 -0.2309  0.0248
 8510TIP3    H147021   6.071   4.282   6.090  1.7789 -1.3419  0.5261
 8510TIP3    H247022   6.194   4.314   6.008  0.0786 -0.1467 -1.6527
 8511TIP3   OH247023   0.652   0.940   2.294 -0.1585  0.1862  0.1753
 8511TIP3    H147024   0.678   0.988   2.373 -2.1352  0.4672  0.7059
 8511TIP3    H247025   0.587   0.878   2.324  1.0214 -1.6274 -0.8320
 8512TIP3   OH247026   1.736   0.859   3.298 -0.1475  0.5859 -0.1621
 8512TIP3    H147027   1.751   0.881   3.206 -0.4537  1.0857 -0.0970
 8512TIP3    H247028   1.646   0.827   3.300 -1.3546  3.6506  0.4561
 8513TIP3   OH247029   6.166   4.001   3.058 -0.6894 -0.5319 -0.0783
 8513TIP3    H147030   6.249   3.971   3.092 -1.1382 -0.7856  0.8172
 8513TIP3    H247031   6.187   4.036   2.971  0.5103  0.2966  0.5083
 8514TIP3   OH247032   0.211   3.411  13.264 -0.1976 -0.0860  0.0157
 8514TIP3    H147033   0.126   3.455  13.260  0.0531  0.6997  2.0369
 8514TIP3    H247034   0.256   3.437  13.184 -1.7676 -0.3714 -1.0008
 8515TIP3   OH247035   6.781   0.732   6.528 -0.5235  0.1170  0.2986
 8515TIP3    H147036   6.761   0.779   6.446  1.1679  3.3889  1.5608
 8515TIP3    H247037   6.723   0.656   6.527  0.1423 -0.6498 -4.4023
 8516TIP3   OH247038   0.023   5.394   0.687  0.2636  0.0953 -0.0789
 8516TIP3    H147039   0.041   5.357   0.773  1.5146 -0.4051 -0.5346
 8516TIP3    H247040   0.001   5.318   0.632  0.1490  0.3356 -0.3727
 8517TIP3   OH247041   3.467   0.004   0.177  0.6147  0.3553 -0.6756
 8517TIP3    H147042   3.372  -0.010   0.184  0.8083 -1.3043 -1.0009
 8517TIP3    H247043   3.476   0.098   0.163 -0.8167  1.0291  2.1799
 8518TIP3   OH247044   4.401   4.901   4.888  0.4022  0.3820  0.0361
 8518TIP3    H147045   4.342   4.888   4.962  0.8224 -0.3669  0.2567
 8518TIP3    H247046   4.454   4.821   4.886  1.0086  0.7874 -0.5109
 8519TIP3   OH247047   0.188   3.004  12.787 -0.1258 -0.5326 -0.5465
 8519TIP3    H147048   0.142   3.074  12.834 -0.7158 -0.1531 -1.6434
 8519TIP3    H247049   0.246   2.965  12.852 -1.0499 -0.1496  0.5343
 8520TIP3   OH247050   0.087   1.630  15.848 -0.0280  0.2750 -0.2400
 8520TIP3    H147051   0.115   1.539  15.835 -0.0330  0.2339  0.0362
 8520TIP3    H247052   0.071   1.662  15.759 -1.0699 -0.3153 -0.2770
 8521TIP3   OH247053   1.085   3.567   0.614  0.4941 -0.2977  0.2665
 8521TIP3    H147054   1.075   3.604   0.526  2.8446  2.6227  1.0696
 8521TIP3    H247055   1.088   3.472   0.600  0.5469  0.0668 -2.7850
 8522TIP3   OH247056   6.343   5.476   3.726  0.1154 -0.0144 -0.1769
 8522TIP3    H147057   6.351   5.394   3.775 -0.7744 -0.9621 -1.5181
 8522TIP3    H247058   6.359   5.450   3.635  0.6044  1.4692 -0.5321
 8523TIP3   OH247059   1.649   6.437  12.609 -0.2435 -0.1698  0.3930
 8523TIP3    H147060   1.592   6.388  12.549 -0.6393 -0.3796  0.9316
 8523TIP3    H247061   1.680   6.372  12.672  0.3837 -0.0013  0.2669
 8524TIP3   OH247062   4.734   2.772   0.907  0.6576 -0.6470  0.5448
 8524TIP3    H147063   4.675   2.839   0.940 -0.3800 -1.4186  0.3262
 8524TIP3    H247064   4.790   2.818   0.844  2.2581  0.7113  2.8205
 8525TIP3   OH247065   4.201   5.148  13.849 -0.9432 -0.3415  0.0799
 8525TIP3    H147066   4.199   5.054  13.829 -2.4919 -0.5895  1.1560
 8525TIP3    H247067   4.204   5.151  13.945  0.9482  0.7420  0.0206
 8526TIP3   OH247068   4.134   0.326   4.089 -0.2581  0.1822 -0.1215
 8526TIP3    H147069   4.180   0.294   4.011  2.2967  2.8989  0.0772
 8526TIP3    H247070   4.050   0.356   4.056 -0.3687 -1.2351 -1.2721
 8527TIP3   OH247071   3.266   4.385  16.941  0.2006 -0.2117 -0.6416
 8527TIP3    H147072   3.273   4.459  16.882 -0.4608 -0.8853 -1.6024
 8527TIP3    H247073   3.200   4.329  16.901 -1.3179 -0.0382  1.4548
 8528TIP3   OH247074   0.693   6.493   1.221  0.2769 -0.4984 -0.1331
 8528TIP3    H147075   0.645   6.569   1.253  1.1246  0.2740 -0.6584
 8528TIP3    H247076   0.651   6.418   1.264 -1.1956  0.1758 -0.3627
 8529TIP3   OH247077   6.533   4.300   1.824 -0.4345 -0.7383  0.2208
 8529TIP3    H147078   6.443   4.329   1.843 -0.8204 -0.6076 -1.5995
 8529TIP3    H247079   6.530   4.273   1.732  0.9691 -2.5038  0.6471
 8530TIP3   OH247080   4.108   5.363   5.770  0.1575  0.1165  0.3032
 8530TIP3    H147081   4.131   5.285   5.721 -2.7859 -0.2311 -0.6989
 8530TIP3    H247082   4.191   5.393   5.809  1.6592 -2.4423 -0.7377
 8531TIP3   OH247083   4.888   6.821  12.236  0.4779 -0.3413 -0.1087
 8531TIP3    H147084   4.881   6.903  12.188 -0.7069 -1.2315 -1.5565
 8531TIP3    H247085   4.829   6.761  12.189  0.7283 -1.7975  1.3553
 8532TIP3   OH247086   2.676   4.822   4.453  0.2602 -0.5115 -0.6030
 8532TIP3    H147087   2.664   4.753   4.518  1.2550  0.7994  1.0675
 8532TIP3    H247088   2.644   4.901   4.496 -3.2235 -0.1907 -3.3730
 8533TIP3   OH247089   1.928   1.432  13.894  0.3103  0.0250 -0.4454
 8533TIP3    H147090   1.993   1.376  13.935  1.4842  1.9480  0.4408
 8533TIP3    H247091   1.939   1.417  13.800  0.2609 -1.5380 -0.2211
 8534TIP3   OH247092   4.413   3.070   2.628 -0.1494  0.4055  0.1568
 8534TIP3    H147093   4.473   2.996   2.639  0.8667  1.0474 -0.8936
 8534TIP3    H247094   4.369   3.052   2.545  0.4804  1.2218 -0.3681
 8535TIP3   OH247095   4.166   4.184  17.080  0.3491  0.1145 -0.0961
 8535TIP3    H147096   4.243   4.144  17.119  0.7187  1.1045  0.2257
 8535TIP3    H247097   4.128   4.237  17.151  0.1749  0.7346 -0.6386
 8536TIP3   OH247098   0.294   5.652  11.296  0.2389  0.0954 -0.4361
 8536TIP3    H147099   0.280   5.718  11.364  1.5603 -0.3563  0.3084
 8536TIP3    H247100   0.310   5.704  11.217  0.2322  0.6605 -0.0783
 8537TIP3   OH247101   5.338   0.023   4.056  0.5851  0.9171  0.2468
 8537TIP3    H147102   5.347   0.063   4.142  1.4985 -0.6248  0.9116
 8537TIP3    H247103   5.249  -0.011   4.054  1.9599 -3.7504  2.8609
 8538TIP3   OH247104   5.064   6.558   2.219 -0.4352 -0.5846  0.4764
 8538TIP3    H147105   5.077   6.575   2.126  3.7452  0.7157  1.0475
 8538TIP3    H247106   4.995   6.619   2.246 -0.7838 -0.0279 -1.5230
 8539TIP3   OH247107   1.236   6.183   1.574 -0.9095 -0.1550 -0.6810
 8539TIP3    H147108   1.143   6.195   1.594 -0.6115 -0.1366  0.8164
 8539TIP3    H247109   1.242   6.192   1.479 -2.8093 -2.5662 -1.1161
 8540TIP3   OH247110   4.899   3.138  14.092 -0.5666 -0.6459  0.2098
 8540TIP3    H147111   4.891   3.059  14.146  1.5016  0.6341  2.5802
 8540TIP3    H247112   4.898   3.210  14.155  0.7902  1.0157 -1.5712
 8541TIP3   OH247113   5.799   2.078   0.747  0.0489  0.1087 -0.1959
 8541TIP3    H147114   5.717   2.042   0.713  1.0699  0.0424 -2.7892
 8541TIP3    H247115   5.778   2.104   0.837 -2.5280 -0.7883 -0.4501
 8542TIP3   OH247116   4.862   0.867   1.416  0.1608 -0.2268 -0.0540
 8542TIP3    H147117   4.877   0.812   1.493  0.8276 -0.0183 -0.0293
 8542TIP3    H247118   4.800   0.817   1.363  1.0689 -1.1928 -0.2233
 8543TIP3   OH247119   0.696   4.945  14.637 -0.0250  0.2245  0.1509
 8543TIP3    H147120   0.645   4.996  14.573  0.6544 -0.9400 -1.3842
 8543TIP3    H247121   0.781   4.989  14.640 -0.5986  1.3015  1.6094
 8544TIP3   OH247122   6.102   5.826  13.156  0.0009 -0.2787 -0.0517
 8544TIP3    H147123   6.025   5.786  13.197 -1.1165  1.2163 -0.5901
 8544TIP3    H247124   6.136   5.886  13.223  0.5246 -0.6903  0.0618
 8545TIP3   OH247125   0.661   2.107  10.775 -0.4125 -0.4507 -0.2883
 8545TIP3    H147126   0.602   2.087  10.702 -0.9967  0.8206 -0.1837
 8545TIP3    H247127   0.746   2.074  10.747 -0.8539 -0.9594 -1.0791
 8546TIP3   OH247128   2.067   6.210  13.779 -0.4895 -0.0180  0.3705
 8546TIP3    H147129   2.097   6.261  13.855 -0.5283 -0.8197  0.9337
 8546TIP3    H247130   2.109   6.252  13.704  1.4530 -0.6411  1.0601
 8547TIP3   OH247131   3.124   2.174  14.575  0.1614 -0.1384  0.1848
 8547TIP3    H147132   3.141   2.120  14.498 -0.9372 -0.3102  0.0482
 8547TIP3    H247133   3.136   2.264  14.544 -1.6048 -0.1140 -0.5976
 8548TIP3   OH247134   3.292   2.645  16.922 -0.4776 -0.0600  0.4844
 8548TIP3    H147135   3.357   2.597  16.974 -0.4249 -1.0210 -0.4396
 8548TIP3    H247136   3.287   2.597  16.839 -2.2328  0.0998  0.4531
 8549TIP3   OH247137   2.089   3.146   4.401  0.1771  0.0802  0.0178
 8549TIP3    H147138   2.084   3.175   4.491 -4.9907 -1.5364  0.5828
 8549TIP3    H247139   2.081   3.050   4.406 -2.3667  0.0633 -2.0383
 8550TIP3   OH247140   1.970   3.627   4.197 -0.3599 -0.2597 -0.3463
 8550TIP3    H147141   1.917   3.548   4.189 -0.8022 -0.0271  0.2949
 8550TIP3    H247142   2.031   3.622   4.122 -0.2063 -1.3301 -0.1675
 8551TIP3   OH247143   6.345   4.400  12.753  0.1174 -0.8748 -0.3327
 8551TIP3    H147144   6.298   4.365  12.678 -1.1108  0.2357 -0.1282
 8551TIP3    H247145   6.283   4.462  12.793  0.9207 -1.0756  1.3064
 8552TIP3   OH247146   6.474   4.319   2.996 -0.1612  0.7204 -0.0359
 8552TIP3    H147147   6.441   4.388   3.052 -0.0566  1.3654 -0.7560
 8552TIP3    H247148   6.530   4.266   3.053 -0.9687  0.6827  0.7423
 8553TIP3   OH247149   5.359   4.415  10.841  0.5053 -0.3613 -0.1974
 8553TIP3    H147150   5.389   4.370  10.761  1.1508 -0.5989  0.1719
 8553TIP3    H247151   5.423   4.390  10.908  0.7197  0.8904  0.0877
 8554TIP3   OH247152   3.832   4.116   4.917 -0.0754  0.1156  1.1224
 8554TIP3    H147153   3.777   4.061   4.972 -1.2028  0.3958  0.3063
 8554TIP3    H247154   3.798   4.205   4.931 -0.3563  0.1939  0.0120
 8555TIP3   OH247155   6.055   1.563   0.312  0.2152  0.3142  0.3104
 8555TIP3    H147156   6.007   1.498   0.261  1.2361 -2.1502  2.2649
 8555TIP3    H247157   6.133   1.581   0.260 -1.6069  2.6684 -1.8351
 8556TIP3   OH247158   4.664   3.266  12.536 -0.0135 -0.2438  0.2941
 8556TIP3    H147159   4.632   3.332  12.475 -1.3391  0.5702  1.8015
 8556TIP3    H247160   4.703   3.198  12.480  3.1873  2.6050 -1.2771
 8557TIP3   OH247161   2.419   5.579  11.485  0.5220  0.1988 -0.5133
 8557TIP3    H147162   2.499   5.631  11.493  2.6749 -1.9921 -4.6258
 8557TIP3    H247163   2.433   5.504  11.544  1.3195  0.0505 -0.8777
 8558TIP3   OH247164   1.191   0.972  15.044  0.6351 -0.5140  0.0651
 8558TIP3    H147165   1.159   0.997  14.958  1.4737  1.1095  0.1988
 8558TIP3    H247166   1.148   0.888  15.062  1.5592 -1.6109 -2.5152
 8559TIP3   OH247167   5.069   5.111   1.061  0.5839  0.2624  0.4220
 8559TIP3    H147168   5.056   5.204   1.082  2.1135  0.8299 -0.9315
 8559TIP3    H247169   5.043   5.104   0.969  0.6656 -0.6272  0.4653
 8560TIP3   OH247170   2.283   5.164  14.034 -0.4678 -0.2963 -0.2818
 8560TIP3    H147171   2.344   5.193  13.965 -0.5598  0.1585 -0.1767
 8560TIP3    H247172   2.331   5.098  14.082  1.0608  2.0016  1.5734
 8561TIP3   OH247173   4.802   2.157  12.456  0.4438 -0.1137  0.0254
 8561TIP3    H147174   4.896   2.164  12.444  0.1501  0.6237 -2.6987
 8561TIP3    H247175   4.770   2.116  12.375 -1.5568 -0.7023  1.0222
 8562TIP3   OH247176   2.749   2.837  14.883  0.2282 -0.3542 -0.3362
 8562TIP3    H147177   2.723   2.770  14.820  1.9327  1.5442 -3.2875
 8562TIP3    H247178   2.817   2.888  14.838 -2.9054  5.2774  0.3799
 8563TIP3   OH247179   3.687   6.575  16.983  0.0732 -0.5183 -0.4157
 8563TIP3    H147180   3.600   6.614  16.976  0.8804  1.5380  0.2776
 8563TIP3    H247181   3.676   6.485  16.953 -2.4272 -0.5231  0.3158
 8564TIP3   OH247182   0.628   3.664  12.645 -0.4511  0.0056  0.0061
 8564TIP3    H147183   0.675   3.604  12.703 -0.3138  0.4056  0.3121
 8564TIP3    H247184   0.697   3.709  12.596 -0.4875  0.8741  0.7324
 8565TIP3   OH247185   0.065   1.163   2.521  0.4527 -0.2333 -0.1683
 8565TIP3    H147186   0.129   1.169   2.450 -0.3562 -0.2877 -0.9212
 8565TIP3    H247187   0.026   1.250   2.527 -0.4877 -0.5989 -0.7671
 8566TIP3   OH247188   1.944   0.774  12.897 -0.6668  0.0834  0.6187
 8566TIP3    H147189   1.958   0.711  12.827  1.7200 -0.3605  1.4051
 8566TIP3    H247190   1.887   0.729  12.959 -2.7439  0.4522 -0.8810
 8567TIP3   OH247191   4.377   5.977  13.224  0.4232 -0.2929 -0.7384
 8567TIP3    H147192   4.368   5.899  13.280  0.7785 -0.2902 -0.6771
 8567TIP3    H247193   4.311   6.038  13.257  1.1174 -0.0068  0.1681
 8568TIP3   OH247194   1.385   0.089  11.686  0.0201  0.5468 -0.1470
 8568TIP3    H147195   1.363   0.146  11.612  0.1322  1.0103  0.1723
 8568TIP3    H247196   1.480   0.082  11.683  0.2315  2.2815  1.1830
 8569TIP3   OH247197   0.652   4.667   4.638 -0.1379 -0.2129 -0.3183
 8569TIP3    H147198   0.595   4.592   4.655  2.0891 -2.8007 -3.0055
 8569TIP3    H247199   0.616   4.707   4.559 -0.0819  0.1664 -0.1516
 8570TIP3   OH247200   3.512   3.194  14.833  0.0525 -0.3098  0.2223
 8570TIP3    H147201   3.499   3.201  14.927  0.6444  1.4463  0.1969
 8570TIP3    H247202   3.567   3.268  14.810  1.9827 -2.0626 -1.1477
 8571TIP3   OH247203   4.573   1.795   5.262 -0.0386 -0.1030  0.5426
 8571TIP3    H147204   4.630   1.725   5.229  0.8745  0.3966  1.0282
 8571TIP3    H247205   4.539   1.837   5.183  3.1297  1.9055  0.0674
 8572TIP3   OH247206   1.931   0.983  11.773  0.5263  0.1591 -0.0786
 8572TIP3    H147207   1.865   0.993  11.705  1.3639  0.3709 -0.8750
 8572TIP3    H247208   1.989   0.915  11.739  1.5476  1.0050 -0.0595
 8573TIP3   OH247209   4.848   5.366  10.772 -0.7356  1.0080  0.1620
 8573TIP3    H147210   4.938   5.400  10.776 -0.6348  0.6258  1.3860
 8573TIP3    H247211   4.794   5.443  10.756 -0.4091  1.6254  1.8246
 8574TIP3   OH247212   3.855   4.012   3.285  0.6045 -0.7321 -0.3119
 8574TIP3    H147213   3.836   4.050   3.371  0.7329  0.5459 -0.8181
 8574TIP3    H247214   3.842   4.085   3.224 -1.3702 -2.0744 -1.6039
 8575TIP3   OH247215   5.145   5.275  14.767  0.0309  0.0128  0.3170
 8575TIP3    H147216   5.104   5.341  14.711  1.5033  2.1115  1.5838
 8575TIP3    H247217   5.140   5.311  14.855  1.0784 -1.4925  1.0402
 8576TIP3   OH247218   0.092   6.331   0.472  0.5122 -0.0421  0.2169
 8576TIP3    H147219   0.061   6.255   0.522  1.2458 -0.4993 -0.0025
 8576TIP3    H247220   0.109   6.398   0.538  0.5277 -0.3068  0.4852
 8577TIP3   OH247221   4.176   0.586   1.825  0.8338  0.4888 -0.5746
 8577TIP3    H147222   4.128   0.517   1.781  0.1073 -0.1376  1.1044
 8577TIP3    H247223   4.238   0.539   1.881  0.3641  1.1731  0.5480
 8578TIP3   OH247224   0.199   2.911  14.393  0.5446 -0.1810 -0.0003
 8578TIP3    H147225   0.292   2.887  14.397  0.7575  0.7868  1.4799
 8578TIP3    H247226   0.181   2.918  14.299  1.6654 -1.4490 -0.3559
 8579TIP3   OH247227   2.089   2.023  12.872 -0.6825 -0.3549  0.3479
 8579TIP3    H147228   2.160   2.050  12.929  0.6596  1.7505 -2.0822
 8579TIP3    H247229   2.016   2.081  12.894 -0.2172  0.3587  0.0390
 8580TIP3   OH247230   0.741   2.161   4.639 -0.0974 -0.3486  0.1344
 8580TIP3    H147231   0.814   2.201   4.591 -0.5605 -0.4728 -0.6979
 8580TIP3    H247232   0.780   2.086   4.684  0.1383 -0.9633 -1.0400
 8581TIP3   OH247233   4.976   1.812   3.756  0.1131 -0.0554  0.3524
 8581TIP3    H147234   4.893   1.816   3.710  0.5728  1.5981 -0.3882
 8581TIP3    H247235   4.953   1.799   3.848 -0.8628 -1.9004 -0.1109
 8582TIP3   OH247236   2.938   1.436   4.229 -0.5717  0.0710 -0.5722
 8582TIP3    H147237   2.927   1.475   4.315  3.9437 -0.7623  0.6403
 8582TIP3    H247238   2.977   1.506   4.176 -0.1352 -0.4017 -0.8829
 8583TIP3   OH247239   5.005   4.092   6.118  0.5331  0.4135  0.1773
 8583TIP3    H147240   5.021   4.177   6.159  1.0942  0.5930 -0.3903
 8583TIP3    H247241   4.956   4.043   6.183 -1.0932  1.6695 -0.0359
 8584TIP3   OH247242   1.688   0.427  12.242 -0.1760 -0.5891 -0.2416
 8584TIP3    H147243   1.603   0.466  12.260 -0.4378 -1.6432  0.9949
 8584TIP3    H247244   1.726   0.481  12.173 -1.9930 -0.3234 -1.0706
 8585TIP3   OH247245   4.003   4.064  14.754  0.3799 -0.2625  0.0842
 8585TIP3    H147246   3.967   3.976  14.743  0.9993 -0.3364 -1.6550
 8585TIP3    H247247   4.097   4.055  14.737  0.7974  0.4343  1.7417
 8586TIP3   OH247248   0.716   5.947  11.398 -0.3344 -0.4737 -0.2825
 8586TIP3    H147249   0.804   5.972  11.426 -0.5448 -0.4998  0.4493
 8586TIP3    H247250   0.666   6.029  11.403 -0.9080 -0.8813  1.6388
 8587TIP3   OH247251   3.566   5.257   3.645 -0.2902 -0.2699  0.3920
 8587TIP3    H147252   3.640   5.199   3.629  0.4572  0.6921  0.2333
 8587TIP3    H247253   3.534   5.281   3.558  1.1599  1.6927  0.3216
 8588TIP3   OH247254   4.579   3.051  15.837  0.6573  0.2859  0.2709
 8588TIP3    H147255   4.496   3.012  15.864  0.2695  1.6461  1.1680
 8588TIP3    H247256   4.592   3.020  15.747 -1.2274  0.6629 -0.1818
 8589TIP3   OH247257   3.634   2.880  13.996 -0.1967  0.2383  0.3913
 8589TIP3    H147258   3.660   2.810  14.057 -0.1018 -0.3975 -0.3602
 8589TIP3    H247259   3.715   2.928  13.980  0.6599 -1.7583 -1.9678
 8590TIP3   OH247260   3.321   5.895   1.559 -0.2822 -0.1085  0.3007
 8590TIP3    H147261   3.365   5.840   1.495 -0.8534 -0.1934 -0.0260
 8590TIP3    H247262   3.362   5.872   1.642 -1.1335 -1.7081  0.3089
 8591TIP3   OH247263   1.228   4.718  13.792 -0.2632 -0.0242  0.5616
 8591TIP3    H147264   1.318   4.719  13.825  0.5715  1.7662 -1.5357
 8591TIP3    H247265   1.174   4.713  13.871  1.6385 -0.7137  1.9001
 8592TIP3   OH247266   4.688   0.675  17.012 -0.8517  0.0426  0.4589
 8592TIP3    H147267   4.598   0.698  16.990 -0.3950  0.4281 -1.1525
 8592TIP3    H247268   4.722   0.630  16.934  1.0688  2.0432  0.0318
 8593TIP3   OH247269   0.383   1.870   3.992 -0.1816  0.5932  0.2608
 8593TIP3    H147270   0.430   1.837   3.915  0.8771 -0.3230  1.2579
 8593TIP3    H247271   0.301   1.904   3.957  0.6616  1.0544 -1.3897
 8594TIP3   OH247272   3.106   1.148  12.964 -0.2516 -0.0717  0.2730
 8594TIP3    H147273   3.047   1.167  12.892  2.1241 -0.9990 -2.0927
 8594TIP3    H247274   3.126   1.055  12.955  4.0309  0.7663 -1.2669
 8595TIP3   OH247275   5.172   2.658   4.253  0.0652 -0.0395  0.2976
 8595TIP3    H147276   5.123   2.576   4.248 -1.0980  0.7286 -2.1698
 8595TIP3    H247277   5.263   2.632   4.234 -0.7144 -0.5101 -3.6586
 8596TIP3   OH247278   0.964   5.342   5.322 -0.3079 -0.0869 -0.0876
 8596TIP3    H147279   0.965   5.253   5.358  1.9038  0.4407  1.3082
 8596TIP3    H247280   0.966   5.399   5.399 -1.8866  1.2342 -0.9509
 8597TIP3   OH247281   6.510   6.283  12.450  0.1658  0.0417  1.2193
 8597TIP3    H147282   6.555   6.329  12.522  1.9914  0.1411  0.0895
 8597TIP3    H247283   6.538   6.191  12.461  0.0410 -0.0273  0.9386
 8598TIP3   OH247284   3.166   3.806  14.674  0.4389  0.4276  0.0608
 8598TIP3    H147285   3.199   3.716  14.667  0.2846  0.3713  0.0422
 8598TIP3    H247286   3.093   3.809  14.612  0.3869  0.5393  0.1278
 8599TIP3   OH247287   3.664   2.430  13.659 -0.5981 -0.2607 -0.5124
 8599TIP3    H147288   3.635   2.489  13.729 -1.5551 -0.4860 -0.7009
 8599TIP3    H247289   3.654   2.481  13.579  1.1197  0.2229 -0.4478
 8600TIP3   OH247290   5.716   6.321   2.746 -0.0716  0.0148  0.4027
 8600TIP3    H147291   5.794   6.377   2.747 -0.9715  1.3022  1.7365
 8600TIP3    H247292   5.744   6.240   2.787  0.6165  0.4035  0.7138
 8601TIP3   OH247293   1.588   6.782  17.283 -0.1816 -0.1003 -0.1740
 8601TIP3    H147294   1.517   6.718  17.278 -1.0238  0.9042 -2.2228
 8601TIP3    H247295   1.664   6.736  17.246 -0.2906 -0.5180  0.1196
 8602TIP3   OH247296   3.864   3.772  11.417 -0.2107  0.1090 -0.1975
 8602TIP3    H147297   3.928   3.802  11.353  0.5183 -2.4007 -0.7479
 8602TIP3    H247298   3.812   3.707  11.371 -0.0134 -1.3753  1.5517
 8603TIP3   OH247299   1.161   3.275  15.602  0.0660 -0.1774 -0.2894
 8603TIP3    H147300   1.160   3.241  15.691  0.6746  0.6795  0.0525
 8603TIP3    H247301   1.075   3.313  15.589 -0.0736 -0.4325 -0.1254
 8604TIP3   OH247302   6.210   0.763  11.655 -0.1996 -0.2808  0.0055
 8604TIP3    H147303   6.231   0.854  11.676 -2.2997  0.3162 -0.3135
 8604TIP3    H247304   6.235   0.753  11.563 -0.3695  0.1176 -0.0871
 8605TIP3   OH247305   4.408   6.208   4.210  0.1410 -0.2084  0.3418
 8605TIP3    H147306   4.313   6.217   4.207  0.1869  0.1293 -0.4449
 8605TIP3    H247307   4.425   6.147   4.282 -0.7670 -1.3886 -0.4023
 8606TIP3   OH247308   4.326   1.913  15.319 -0.4397 -0.1566 -0.2483
 8606TIP3    H147309   4.330   2.009  15.311  0.4043  0.0345  1.9173
 8606TIP3    H247310   4.253   1.896  15.378  0.1823 -0.7584  0.3687
 8607TIP3   OH247311   3.673   4.281   3.744  0.1023 -0.5315  0.2248
 8607TIP3    H147312   3.713   4.323   3.668 -0.1368 -1.1913 -0.2771
 8607TIP3    H247313   3.641   4.197   3.711 -0.0684 -0.7984  1.0385
 8608TIP3   OH247314   2.263   3.415   7.012  0.0407  0.4903 -0.4423
 8608TIP3    H147315   2.266   3.322   7.032  0.9796  0.8496  1.2690
 8608TIP3    H247316   2.223   3.455   7.089  1.1966  1.6732 -0.4252
 8609TIP3   OH247317   1.720   1.318   5.390  0.1464  0.0133 -0.1919
 8609TIP3    H147318   1.727   1.249   5.325  1.9710 -0.5156  0.5249
 8609TIP3    H247319   1.629   1.313   5.421  0.4357 -2.5858  0.4121
 8610TIP3   OH247320   0.032   1.757  13.051  0.0251 -0.6404 -0.5565
 8610TIP3    H147321   0.111   1.715  13.086 -0.4146 -2.0502 -1.1889
 8610TIP3    H247322   0.016   1.831  13.110  0.7890 -1.4007  0.6436
 8611TIP3   OH247323   0.427   3.535  17.210 -0.4467  0.3025 -0.2806
 8611TIP3    H147324   0.437   3.623  17.246 -0.7180  0.1551  0.1652
 8611TIP3    H247325   0.333   3.528  17.192 -0.3453  0.2980 -0.8270
 8612TIP3   OH247326   6.027   4.656  13.712 -0.3305  0.1892  0.4440
 8612TIP3    H147327   6.003   4.710  13.787 -1.7280  1.6120 -0.9600
 8612TIP3    H247328   5.987   4.571  13.731  0.1313  0.2293  1.7160
 8613TIP3   OH247329   2.672   4.816  14.296 -0.2724 -0.3885  0.3805
 8613TIP3    H147330   2.743   4.861  14.341  0.6791 -1.3151 -0.1717
 8613TIP3    H247331   2.680   4.724  14.323 -0.7181 -0.6604 -0.3717
 8614TIP3   OH247332   2.321   0.366  17.031  0.4780 -0.8427  0.8777
 8614TIP3    H147333   2.236   0.352  16.989  0.9913  1.0362 -0.9228
 8614TIP3    H247334   2.354   0.277  17.046 -0.2729 -1.6640 -1.6995
 8615TIP3   OH247335   2.028   2.406   4.783  0.0621  0.2470 -0.7125
 8615TIP3    H147336   2.071   2.426   4.700  0.4926 -1.0780 -0.8217
 8615TIP3    H247337   1.940   2.442   4.772 -0.5453 -1.5833 -2.5258
 8616TIP3   OH247338   6.256   6.821  11.354  0.2872 -1.1949  0.1625
 8616TIP3    H147339   6.297   6.903  11.325 -0.5410 -0.5430  0.7935
 8616TIP3    H247340   6.325   6.776  11.403  0.2297 -0.0051  1.3994
 8617TIP3   OH247341   3.248   4.769   7.022  0.0860  0.2449  0.2623
 8617TIP3    H147342   3.287   4.837   7.076  2.4409 -0.7325 -0.0808
 8617TIP3    H247343   3.237   4.810   6.936 -1.4904  1.0928  0.8287
 8618TIP3   OH247344   3.043   1.087   5.562  0.7616  0.3333  0.3271
 8618TIP3    H147345   3.081   1.009   5.603  1.2177  0.0991 -0.5059
 8618TIP3    H247346   2.975   1.115   5.622  0.5444 -0.7496  0.6133
 8619TIP3   OH247347   2.714   3.878   1.888  0.1419 -0.3275  1.1667
 8619TIP3    H147348   2.765   3.950   1.852 -0.1037 -0.8267 -0.2640
 8619TIP3    H247349   2.674   3.836   1.811  0.6370 -2.2509  1.8974
 8620TIP3   OH247350   3.804   1.524   2.224 -0.2328  0.0399 -0.6655
 8620TIP3    H147351   3.899   1.518   2.222 -0.1041  1.3816 -0.0160
 8620TIP3    H247352   3.782   1.585   2.154 -0.7618 -1.3672 -1.7742
 8621TIP3   OH247353   1.180   4.952   1.654  0.8312  0.1962 -0.2992
 8621TIP3    H147354   1.110   4.983   1.597  0.5099  0.1044  0.0462
 8621TIP3    H247355   1.174   5.006   1.733 -0.6157 -1.6048  0.9070
 8622TIP3   OH247356   3.137   5.213   2.184 -0.0755  0.0464 -0.5489
 8622TIP3    H147357   3.104   5.302   2.193  1.6779  0.8693 -1.6545
 8622TIP3    H247358   3.152   5.184   2.274 -1.8009  0.3854 -0.1278
 8623TIP3   OH247359   2.594   3.383   3.421  0.3167  0.4757  0.3751
 8623TIP3    H147360   2.527   3.428   3.369  0.8847  1.0824  0.1444
 8623TIP3    H247361   2.672   3.384   3.365  0.8132  0.7453  1.0526
 8624TIP3   OH247362   6.822   0.489   2.727  0.2134 -0.0759  0.0859
 8624TIP3    H147363   6.825   0.562   2.789  0.0843 -0.1551  0.1844
 8624TIP3    H247364   6.875   0.421   2.768 -1.0168 -0.6584  0.7876
 8625TIP3   OH247365   3.942   6.722  13.161 -0.2152  0.5740  0.2797
 8625TIP3    H147366   4.026   6.748  13.125 -0.1322 -0.9279 -0.6859
 8625TIP3    H247367   3.893   6.688  13.086 -0.7259 -0.9426  1.2645
 8626TIP3   OH247368   2.634   1.939   5.469 -0.3503  0.0857  0.5371
 8626TIP3    H147369   2.602   1.874   5.532  0.3210 -2.5109 -1.5972
 8626TIP3    H247370   2.559   1.958   5.413 -0.2560  0.3195  0.4880
 8627TIP3   OH247371   2.803   2.355  12.512 -0.4349  0.5548 -0.5585
 8627TIP3    H147372   2.825   2.263  12.496 -2.3198 -0.1610  0.5551
 8627TIP3    H247373   2.770   2.387  12.428 -0.0076  0.1463 -0.8895
 8628TIP3   OH247374   4.302   5.461   2.190 -0.1115  0.5214 -0.7370
 8628TIP3    H147375   4.256   5.542   2.168  0.5998  1.3039  0.5232
 8628TIP3    H247376   4.236   5.392   2.180 -0.6811  1.2119 -1.9941
 8629TIP3   OH247377   2.888   1.022   0.448  0.3791  0.3055  0.3362
 8629TIP3    H147378   2.900   0.964   0.523 -0.5908 -0.2104  0.1080
 8629TIP3    H247379   2.977   1.052   0.427  0.5970  1.1472  2.2036
 8630TIP3   OH247380   0.923   2.976  15.812  0.0408  0.4549  0.5827
 8630TIP3    H147381   0.866   3.022  15.751 -0.8851  0.1161  1.1793
 8630TIP3    H247382   0.916   3.024  15.894 -1.0578 -0.7925  1.2558
 8631TIP3   OH247383   3.608   2.053   0.223  0.1385  0.5362  0.7729
 8631TIP3    H147384   3.664   2.075   0.149  0.9633  1.4850  1.6557
 8631TIP3    H247385   3.520   2.077   0.194  0.7120  3.0024  0.8555
 8632TIP3   OH247386   6.278   5.394   2.885 -0.1660  0.2677 -0.2212
 8632TIP3    H147387   6.185   5.410   2.905 -1.0628 -1.8369 -2.1558
 8632TIP3    H247388   6.281   5.391   2.789  1.6660 -0.8597 -0.1805
 8633TIP3   OH247389   2.813   1.880  12.592 -0.6160  0.0023  0.3862
 8633TIP3    H147390   2.861   1.960  12.573 -0.7820 -0.0443 -0.2293
 8633TIP3    H247391   2.792   1.843  12.506 -0.2646 -0.8612  0.6555
 8634TIP3   OH247392   1.565   4.476  16.799  0.5185 -0.3443 -0.6782
 8634TIP3    H147393   1.480   4.432  16.796  0.7283 -0.8588  0.4343
 8634TIP3    H247394   1.608   4.449  16.718 -1.2186  1.7700 -2.4541
 8635TIP3   OH247395   3.332   2.891   0.755  0.7879 -0.4360  0.3248
 8635TIP3    H147396   3.240   2.918   0.744  0.9377 -0.4864 -1.3811
 8635TIP3    H247397   3.382   2.962   0.716  1.2596 -2.2102 -2.6329
 8636TIP3   OH247398   6.738   4.693  12.344 -0.2285 -0.1184  0.0058
 8636TIP3    H147399   6.829   4.664  12.334  0.5058  2.0541 -0.2014
 8636TIP3    H247400   6.715   4.729  12.258 -1.1845 -0.3652  0.1485
 8637TIP3   OH247401   6.585   4.693  12.103  0.2135 -0.3573  0.5513
 8637TIP3    H147402   6.613   4.647  12.024  0.0598 -0.0450  0.3121
 8637TIP3    H247403   6.499   4.730  12.081  0.9557  1.2485  0.2484
 8638TIP3   OH247404   0.985   6.488  11.312 -0.0498 -1.2009 -0.0862
 8638TIP3    H147405   0.977   6.546  11.388  1.6986 -0.3394 -0.5204
 8638TIP3    H247406   0.896   6.453  11.300 -1.1385  1.1552  0.3661
 8639TIP3   OH247407   2.256   5.574   5.798 -0.1013 -0.2360 -0.0389
 8639TIP3    H147408   2.283   5.641   5.736 -0.3437  0.1541  0.2701
 8639TIP3    H247409   2.187   5.616   5.851 -0.7461 -0.9466 -0.2903
 8640TIP3   OH247410   5.495   6.173  14.372  0.4991  0.0853  0.4040
 8640TIP3    H147411   5.500   6.100  14.434 -0.0859  0.9840  1.5564
 8640TIP3    H247412   5.568   6.159  14.312  0.5636 -1.2896  0.7745
 8641TIP3   OH247413   2.224   3.960  11.369  0.7040 -0.1213 -0.4090
 8641TIP3    H147414   2.304   3.948  11.317  0.8773 -1.2085  0.0958
 8641TIP3    H247415   2.249   3.935  11.458 -0.4631 -1.4679 -0.4296
 8642TIP3   OH247416   1.998   6.410   5.866  0.4323  0.6772 -0.0224
 8642TIP3    H147417   2.042   6.412   5.781  1.3535 -0.8529  0.3753
 8642TIP3    H247418   2.056   6.459   5.925  1.2934 -0.7059  0.3334
 8643TIP3   OH247419   1.286   2.498   1.631 -0.1258  0.5924 -0.2461
 8643TIP3    H147420   1.226   2.571   1.612 -2.4631 -1.1225  0.0868
 8643TIP3    H247421   1.277   2.484   1.725 -0.2837 -0.5879 -0.4257
 8644TIP3   OH247422   5.683   2.632  11.260  0.7260  0.0158  0.1521
 8644TIP3    H147423   5.646   2.607  11.344  0.1098  0.1351 -0.0818
 8644TIP3    H247424   5.649   2.720  11.244 -1.0975 -0.8784 -1.3133
 8645TIP3   OH247425   4.118   6.071   2.617 -0.7680  0.1774  0.2037
 8645TIP3    H147426   4.149   6.010   2.550 -0.1544 -0.4921  1.0620
 8645TIP3    H247427   4.172   6.149   2.606 -0.0553 -0.2674  0.4700
 8646TIP3   OH247428   3.079   5.324  12.685  0.1073  0.1146  0.2443
 8646TIP3    H147429   2.986   5.334  12.666  0.2403  2.9313  0.6300
 8646TIP3    H247430   3.123   5.360  12.607  0.7385  2.9830  1.7756
 8647TIP3   OH247431   3.482   1.573  13.813  0.1993 -0.2561  0.1088
 8647TIP3    H147432   3.391   1.584  13.784  0.0955 -0.6830  0.2737
 8647TIP3    H247433   3.503   1.656  13.855  0.2920  0.3166 -1.0274
 8648TIP3   OH247434   4.842   6.226   0.814 -0.0851 -0.1780  0.1661
 8648TIP3    H147435   4.768   6.199   0.759 -0.9497  0.9426  0.7383
 8648TIP3    H247436   4.908   6.257   0.752 -0.8334  0.5614 -0.2718
 8649TIP3   OH247437   4.840   0.731   0.164 -0.5512 -0.1265 -0.1140
 8649TIP3    H147438   4.816   0.668   0.096  0.0239 -1.5628  0.9582
 8649TIP3    H247439   4.934   0.718   0.177 -0.2389  1.5667 -0.4287
 8650TIP3   OH247440   2.912   0.737  10.520 -0.1818  0.3791 -0.8272
 8650TIP3    H147441   2.935   0.644  10.515 -1.0111  0.1963 -1.4761
 8650TIP3    H247442   2.864   0.745  10.602  2.0778  0.7637  0.5385
 8651TIP3   OH247443   1.744   2.947   2.374  0.3778  0.0783  0.0388
 8651TIP3    H147444   1.813   2.881   2.378  0.6425  0.3898  1.0433
 8651TIP3    H247445   1.679   2.918   2.439  0.1412  0.4026 -0.0505
 8652TIP3   OH247446   6.214   5.833   4.491  0.1992 -0.0105 -0.1392
 8652TIP3    H147447   6.234   5.739   4.490 -0.8736 -0.2620 -0.1036
 8652TIP3    H247448   6.293   5.875   4.524  0.3389 -0.9999  0.8438
 8653TIP3   OH247449   1.985   5.040   4.216 -0.1363 -0.8214  0.2899
 8653TIP3    H147450   1.957   5.092   4.141  3.1689 -1.1872 -1.3617
 8653TIP3    H247451   2.036   4.969   4.178  1.7667 -0.9489  2.8636
 8654TIP3   OH247452   4.254   5.308   5.551  0.2911  0.2235  0.1022
 8654TIP3    H147453   4.336   5.340   5.514 -0.6093 -0.1579 -2.4412
 8654TIP3    H247454   4.261   5.213   5.545 -0.5581  0.1975 -0.7801
 8655TIP3   OH247455   5.149   1.870  15.862  0.1715 -0.5026 -0.0889
 8655TIP3    H147456   5.065   1.836  15.892 -0.6819  2.9892  1.9115
 8655TIP3    H247457   5.202   1.877  15.941  1.1349  0.4874 -0.7953
 8656TIP3   OH247458   2.443   0.516  14.775  0.1068  0.0451 -0.3385
 8656TIP3    H147459   2.463   0.453  14.845 -0.3682 -0.0309 -0.2698
 8656TIP3    H247460   2.397   0.587  14.819 -0.4744 -0.1484 -0.6228
 8657TIP3   OH247461   6.477   2.925   4.498  0.2388  0.2830 -0.0387
 8657TIP3    H147462   6.458   2.851   4.555  1.1626 -0.2569 -0.3962
 8657TIP3    H247463   6.560   2.902   4.456  1.0944  1.9845  0.6180
 8658TIP3   OH247464   1.727   3.028  17.300  0.3444 -0.1288 -0.0702
 8658TIP3    H147465   1.696   2.939  17.320 -0.2461  0.3704  1.3953
 8658TIP3    H247466   1.694   3.046  17.213  1.6731 -1.8565 -1.0198
 8659TIP3   OH247467   4.881   2.063   6.448  0.1132 -0.0616  0.0214
 8659TIP3    H147468   4.818   2.010   6.399 -0.1339  1.1409 -1.0352
 8659TIP3    H247469   4.966   2.034   6.415  0.0025 -0.1758 -0.1710
 8660TIP3   OH247470   6.343   3.471   5.935  0.2892  0.1817 -0.1211
 8660TIP3    H147471   6.382   3.479   5.849  0.0630 -0.4457 -0.2852
 8660TIP3    H247472   6.417   3.472   5.996  0.6245 -1.6325 -0.4665
 8661TIP3   OH247473   2.621   4.957  10.647 -0.0624 -0.1822 -0.3085
 8661TIP3    H147474   2.672   4.912  10.715 -0.1351  0.9427  0.5150
 8661TIP3    H247475   2.685   5.007  10.597 -0.0889 -0.5302 -0.7021
 8662TIP3   OH247476   1.093   0.901   0.900  0.3078  0.2711 -0.0813
 8662TIP3    H147477   1.067   0.817   0.862 -0.4822 -0.4479  1.9478
 8662TIP3    H247478   1.131   0.949   0.826  0.1826 -1.5951 -1.4418
 8663TIP3   OH247479   5.903   1.292  16.631  0.0796  0.6840  0.4332
 8663TIP3    H147480   5.956   1.369  16.650 -0.3474  0.7686  1.3545
 8663TIP3    H247481   5.814   1.318  16.654 -0.2360  0.2666 -0.2864
 8664TIP3   OH247482   2.150   0.421   3.731 -0.4991 -0.3244  0.1426
 8664TIP3    H147483   2.094   0.424   3.809 -0.4851  0.7026  0.1274
 8664TIP3    H247484   2.095   0.454   3.660 -0.8166 -2.1361 -0.5079
 8665TIP3   OH247485   3.411   4.401  11.788  0.3482  0.4646  0.1886
 8665TIP3    H147486   3.400   4.496  11.791 -1.2509  0.2962  0.6674
 8665TIP3    H247487   3.362   4.369  11.864  0.3429 -0.7883 -0.3242
 8666TIP3   OH247488   5.949   1.064  11.928  0.4465  0.0515  0.2435
 8666TIP3    H147489   5.961   1.060  12.023  0.7797  0.2234  0.2079
 8666TIP3    H247490   6.021   1.119  11.897 -0.0325  0.5246 -0.0372
 8667TIP3   OH247491   5.285   0.772   2.661  0.1577 -0.0879  0.5375
 8667TIP3    H147492   5.190   0.772   2.675  0.2917  0.8756  1.6070
 8667TIP3    H247493   5.322   0.776   2.749  1.1364  3.3888  0.0983
 8668TIP3   OH247494   5.873   0.239  12.254  0.0342 -0.5070  0.2195
 8668TIP3    H147495   5.862   0.243  12.159  0.9454  0.2620  0.1262
 8668TIP3    H247496   5.812   0.304  12.289  0.3356 -0.1533  0.0925
 8669TIP3   OH247497   5.470   5.351  15.098  0.3551  0.3224 -0.4481
 8669TIP3    H147498   5.452   5.340  15.191  1.5435 -0.8081 -0.3242
 8669TIP3    H247499   5.436   5.272  15.057 -0.0902  0.7777 -0.9695
 8670TIP3   OH247500   4.083   1.451  10.153  0.3928 -0.4193 -0.3307
 8670TIP3    H147501   4.008   1.504  10.180  0.9658  0.2459 -0.0277
 8670TIP3    H247502   4.097   1.391  10.226 -0.8137 -1.6393 -1.0391
 8671TIP3   OH247503   5.020   1.164   0.095  0.0011 -0.4665  0.0966
 8671TIP3    H147504   4.993   1.159   0.004 -0.2124  0.2758  0.1039
 8671TIP3    H247505   4.973   1.241   0.129 -1.8854 -2.1387  1.4969
 8672TIP3   OH247506   0.362   5.584  12.986 -0.4625  0.5463 -0.3301
 8672TIP3    H147507   0.278   5.545  13.008  1.0435 -1.2927  2.8685
 8672TIP3    H247508   0.391   5.536  12.908 -1.0390 -1.0343  0.3789
 8673TIP3   OH247509   1.010   5.628   3.016  0.0836  0.0461  0.1253
 8673TIP3    H147510   0.974   5.660   3.099 -1.0813 -0.1003 -0.3010
 8673TIP3    H247511   0.933   5.606   2.964  0.7905  0.5700 -1.1806
 8674TIP3   OH247512   0.306   3.942   5.662 -0.0352 -0.4582 -0.4540
 8674TIP3    H147513   0.360   3.991   5.724 -2.4642  1.0808  0.6118
 8674TIP3    H247514   0.310   3.852   5.692  0.6945 -0.1151  0.5240
 8675TIP3   OH247515   0.391   1.226   1.772  0.2837 -0.8328  0.0211
 8675TIP3    H147516   0.405   1.276   1.692  0.4195 -2.3265 -0.9206
 8675TIP3    H247517   0.464   1.249   1.828  0.7519 -0.5470 -0.6928
 8676TIP3   OH247518   2.090   1.053  11.137  0.3237  0.5054  0.0383
 8676TIP3    H147519   1.999   1.027  11.120  1.0974 -0.7925 -2.6039
 8676TIP3    H247520   2.127   1.070  11.050  2.6758  0.7787  1.0225
 8677TIP3   OH247521   3.121   1.861   2.880  0.0929  0.2065 -0.0266
 8677TIP3    H147522   3.192   1.841   2.819  1.1358  0.6328  1.0075
 8677TIP3    H247523   3.155   1.835   2.966  0.2335  3.1212  0.9330
 8678TIP3   OH247524   2.528   1.475   4.901  0.1800 -0.0569 -0.0766
 8678TIP3    H147525   2.607   1.431   4.932  1.6482  1.5680 -1.3882
 8678TIP3    H247526   2.545   1.568   4.914 -1.8580  0.3113  0.3339
 8679TIP3   OH247527   4.729   6.396  15.309  0.4524  0.3235  0.1312
 8679TIP3    H147528   4.773   6.312  15.296 -0.7689 -0.4042  0.4731
 8679TIP3    H247529   4.639   6.372  15.333  0.1604  1.7305  0.5311
 8680TIP3   OH247530   0.644   2.980   6.586  0.1850 -0.2098 -0.3027
 8680TIP3    H147531   0.597   2.953   6.507 -0.9598 -2.0464  0.9207
 8680TIP3    H247532   0.577   2.979   6.655  1.4760 -0.2772  0.9966
 8681TIP3   OH247533   2.047   0.929  17.120 -0.7480 -0.2626  0.2616
 8681TIP3    H147534   1.962   0.938  17.163 -1.5359 -0.3874 -1.2106
 8681TIP3    H247535   2.029   0.940  17.027  0.8953 -0.0398 -0.0774
 8682TIP3   OH247536   1.834   3.917  16.322 -0.0845 -0.1182  0.0840
 8682TIP3    H147537   1.914   3.897  16.372 -0.3444 -1.7469 -0.0695
 8682TIP3    H247538   1.763   3.884  16.377 -0.3625 -2.2353 -1.4190
 8683TIP3   OH247539   4.458   4.624   2.964  0.5036 -0.7732 -0.5198
 8683TIP3    H147540   4.409   4.704   2.946 -2.0966 -1.7174  1.8180
 8683TIP3    H247541   4.430   4.563   2.896  0.4848 -0.4932 -0.7648
 8684TIP3   OH247542   1.741   3.160   5.100 -0.5064  0.7954 -0.6236
 8684TIP3    H147543   1.672   3.218   5.068 -0.8981  0.1927 -0.8914
 8684TIP3    H247544   1.810   3.219   5.132 -1.1907  1.4021 -0.2428
 8685TIP3   OH247545   2.080   2.359  16.341  0.7431  0.4079  0.0204
 8685TIP3    H147546   2.037   2.414  16.407  3.2523 -0.6073  2.6868
 8685TIP3    H247547   2.164   2.401  16.326  1.4947 -1.0881 -0.1218
 8686TIP3   OH247548   5.103   2.264  10.923 -0.3304  0.1470  0.0197
 8686TIP3    H147549   5.180   2.290  10.974 -0.2625 -1.4388  0.7823
 8686TIP3    H247550   5.115   2.307  10.839  0.9133  0.6995  0.4493
 8687TIP3   OH247551   6.026   2.232  15.148 -0.1067 -0.4032  0.2935
 8687TIP3    H147552   6.100   2.289  15.166 -1.3368  1.1922  0.5637
 8687TIP3    H247553   6.004   2.194  15.233 -0.9855  0.9399  0.7101
 8688TIP3   OH247554   5.155   0.126  13.513 -0.2248  0.4277  0.4345
 8688TIP3    H147555   5.105   0.162  13.587 -2.5108 -0.1726 -0.7416
 8688TIP3    H247556   5.122   0.037  13.503  2.4752 -0.7043  0.7495
 8689TIP3   OH247557   2.590   5.243   2.131 -0.0436 -0.2783  0.5506
 8689TIP3    H147558   2.619   5.190   2.056 -0.3989  0.2828  0.0056
 8689TIP3    H247559   2.671   5.275   2.170  0.1388  1.4383 -1.0778
 8690TIP3   OH247560   5.417   3.576   4.012  0.0839  0.4342 -0.1073
 8690TIP3    H147561   5.468   3.655   4.030 -0.7019  0.6912  1.1618
 8690TIP3    H247562   5.334   3.609   3.978 -1.1062  0.3564  2.4672
 8691TIP3   OH247563   5.158   1.532   5.439 -0.3145  0.1860 -0.6000
 8691TIP3    H147564   5.253   1.521   5.440 -0.0129  2.3507 -0.4636
 8691TIP3    H247565   5.133   1.524   5.347 -0.2637 -1.9376 -0.4756
 8692TIP3   OH247566   4.930   4.800  10.962 -0.6036  0.8906 -0.4887
 8692TIP3    H147567   4.957   4.747  10.887  1.1179  2.6999 -1.2305
 8692TIP3    H247568   5.011   4.815  11.011 -1.2881  1.6746  0.4342
 8693TIP3   OH247569   4.124   3.318  13.092 -0.1165 -0.1554  0.0705
 8693TIP3    H147570   4.112   3.277  13.006 -0.4616  0.2190 -0.0620
 8693TIP3    H247571   4.174   3.398  13.074  0.0350 -0.2061  0.2539
 8694TIP3   OH247572   4.629   2.643   0.549 -0.4924  1.2108  0.1845
 8694TIP3    H147573   4.627   2.739   0.556  1.3638  1.3672 -0.7675
 8694TIP3    H247574   4.702   2.625   0.489 -0.9508 -0.8003  0.1608
 8695TIP3   OH247575   3.564   0.725   1.203  0.0146  0.3004  0.1216
 8695TIP3    H147576   3.574   0.750   1.112  0.3348 -2.0989 -0.5791
 8695TIP3    H247577   3.511   0.645   1.200 -0.0257  0.2018  2.0468
 8696TIP3   OH247578   5.257   4.716  11.833 -0.2741  0.3102  0.6375
 8696TIP3    H147579   5.214   4.633  11.812 -0.6702  0.8940 -0.9766
 8696TIP3    H247580   5.192   4.763  11.885 -1.2098  0.7573 -0.8952
 8697TIP3   OH247581   3.838   3.533   5.916  0.0563 -0.3292  0.2054
 8697TIP3    H147582   3.886   3.484   5.982 -0.7490 -1.6684 -0.1709
 8697TIP3    H247583   3.863   3.494   5.833 -0.6400 -0.1551 -0.0991
 8698TIP3   OH247584   3.194   4.609  15.583 -0.2008 -0.1934 -0.0423
 8698TIP3    H147585   3.103   4.592  15.557 -0.0357 -0.9057 -0.1748
 8698TIP3    H247586   3.190   4.692  15.629 -0.8889 -0.1046 -0.2427
 8699TIP3   OH247587   2.880   5.745   0.929 -0.2508 -0.1704 -0.4870
 8699TIP3    H147588   2.798   5.720   0.972  0.0954 -0.5950 -0.0563
 8699TIP3    H247589   2.888   5.685   0.856 -0.8871  0.6122 -1.2250
 8700TIP3   OH247590   4.752   1.462   1.983  0.5451 -0.3046 -0.2220
 8700TIP3    H147591   4.693   1.466   2.059  2.0756  0.1012  1.0044
 8700TIP3    H247592   4.762   1.553   1.955  1.2390 -0.2620  0.1307
 8701TIP3   OH247593   3.894   0.656   2.157  0.5600  0.2015  0.6573
 8701TIP3    H147594   3.985   0.667   2.130 -0.3686  0.3343 -2.8083
 8701TIP3    H247595   3.873   0.738   2.203  1.2241  1.7498 -1.6294
 8702TIP3   OH247596   1.451   2.638  12.253 -0.4132 -0.1182 -0.1355
 8702TIP3    H147597   1.455   2.600  12.165  0.6125 -0.6969  0.1409
 8702TIP3    H247598   1.526   2.600  12.298 -1.2564 -0.2724  1.1763
 8703TIP3   OH247599   6.453   1.940   6.297  0.1601  0.1028 -0.5332
 8703TIP3    H147600   6.534   1.919   6.344  0.3885  0.0634 -0.9384
 8703TIP3    H247601   6.385   1.890   6.344  0.1522  1.1233  0.5856
 8704TIP3   OH247602   2.743   5.350   5.328  0.5587 -0.3551  0.8923
 8704TIP3    H147603   2.765   5.403   5.405 -0.9620 -1.0321  1.8441
 8704TIP3    H247604   2.751   5.410   5.254 -2.0674  1.5732  2.0014
 8705TIP3   OH247605   0.479   2.074  11.330  0.0541  0.2397 -0.6320
 8705TIP3    H147606   0.499   2.002  11.389 -0.2135 -0.1839 -1.0481
 8705TIP3    H247607   0.419   2.036  11.265  0.2975  0.7042 -1.1406
 8706TIP3   OH247608   2.413   4.349   2.070  0.0217  0.4612 -0.4022
 8706TIP3    H147609   2.508   4.350   2.073  0.0179 -0.7253  1.3472
 8706TIP3    H247610   2.391   4.306   1.987  0.9537  1.5045 -1.2254
 8707TIP3   OH247611   2.261   2.290   0.482 -0.4848 -0.0776 -0.2901
 8707TIP3    H147612   2.290   2.378   0.458  0.5658 -0.3925 -0.2074
 8707TIP3    H247613   2.190   2.271   0.421 -0.2786  0.5668 -0.7419
 8708TIP3   OH247614   5.374   4.605  12.965 -0.5207  0.2363  0.3237
 8708TIP3    H147615   5.320   4.526  12.959  1.5987 -1.3290  0.8745
 8708TIP3    H247616   5.329   4.668  12.908 -3.2628 -0.6971  1.2665
 8709TIP3   OH247617   1.142   4.157  14.701  0.9169 -0.1489  0.3667
 8709TIP3    H147618   1.235   4.176  14.712  0.4130  2.3086  1.1390
 8709TIP3    H247619   1.106   4.164  14.790 -0.1755  0.1117 -0.0808
 8710TIP3   OH247620   3.952   4.706   5.774 -0.7014  0.3451  0.0681
 8710TIP3    H147621   3.978   4.687   5.684  0.4330  1.1221  0.2076
 8710TIP3    H247622   3.921   4.797   5.772  0.9305  0.9578  0.7385
 8711TIP3   OH247623   5.549   4.326  11.014  0.7338 -0.1773  0.3282
 8711TIP3    H147624   5.640   4.357  11.015  1.8213 -3.0407  0.4074
 8711TIP3    H247625   5.500   4.393  11.061  3.0306  0.8586  1.3936
 8712TIP3   OH247626   1.224   6.121   0.968  0.5754  0.1511 -0.0810
 8712TIP3    H147627   1.171   6.173   1.028  0.8854  1.1057 -0.6109
 8712TIP3    H247628   1.221   6.170   0.886 -0.9365 -1.7910 -1.2757
 8713TIP3   OH247629   3.318   3.092   2.612  0.1655 -0.2871 -0.1398
 8713TIP3    H147630   3.376   3.141   2.670 -1.4875  1.9860 -0.2704
 8713TIP3    H247631   3.262   3.042   2.672 -0.0307  0.2788  0.1651
 8714TIP3   OH247632   5.175   3.364   0.532  0.1759 -0.3937 -0.1918
 8714TIP3    H147633   5.083   3.335   0.537 -0.5673  1.4249 -2.1082
 8714TIP3    H247634   5.192   3.403   0.617 -1.9360  2.1192 -0.8108
 8715TIP3   OH247635   3.316   4.251   0.022 -0.2914 -0.2440  0.9040
 8715TIP3    H147636   3.221   4.260   0.029 -0.2396 -0.6908  2.4659
 8715TIP3    H247637   3.331   4.157   0.010 -0.0919 -0.0235 -0.9273
 8716TIP3   OH247638   3.303   3.372   0.807 -0.7249 -0.7114 -0.2474
 8716TIP3    H147639   3.239   3.301   0.802 -0.1319 -1.1888 -1.2174
 8716TIP3    H247640   3.263   3.445   0.759  0.3092 -1.7040 -2.7833
 8717TIP3   OH247641   1.018   0.020  10.888 -0.7789 -0.4354  0.0880
 8717TIP3    H147642   1.032  -0.042  10.817  0.9026  1.1055 -1.0162
 8717TIP3    H247643   0.929   0.054  10.874 -0.7455 -0.7044 -0.8217
 8718TIP3   OH247644   2.378   1.027  12.920 -0.5449 -0.3148 -0.0524
 8718TIP3    H147645   2.346   0.977  12.846 -0.7973 -0.9015  0.4495
 8718TIP3    H247646   2.306   1.028  12.982 -0.2184 -0.1108  0.3317
 8719TIP3   OH247647   4.935   4.138   0.898  0.2930  0.8369  0.2114
 8719TIP3    H147648   5.027   4.117   0.912 -0.0140 -2.3818 -1.5359
 8719TIP3    H247649   4.888   4.090   0.966 -0.1628  2.0569  0.7894
 8720TIP3   OH247650   1.160   2.577  13.515 -0.0799 -0.1425  0.4033
 8720TIP3    H147651   1.168   2.671  13.532 -0.3883 -0.0559  0.0870
 8720TIP3    H247652   1.242   2.554  13.470 -1.3119  0.6628 -2.4890
 8721TIP3   OH247653   4.574   6.749   4.849  0.6200  0.3630 -0.3020
 8721TIP3    H147654   4.660   6.710   4.829  0.5040  1.0419 -2.3920
 8721TIP3    H247655   4.575   6.762   4.944  1.7901 -2.0356  0.0977
 8722TIP3   OH247656   1.762   2.394   3.137 -0.0888 -0.3593 -0.2984
 8722TIP3    H147657   1.805   2.414   3.220  0.5784  0.9140 -0.9206
 8722TIP3    H247658   1.682   2.446   3.137  1.3312  1.9881 -1.6422
 8723TIP3   OH247659   5.152   2.451   6.029  0.4035  0.5572  0.3120
 8723TIP3    H147660   5.067   2.495   6.040 -0.1172  0.5581 -2.6894
 8723TIP3    H247661   5.198   2.505   5.965  0.9806 -1.5637 -1.1689
 8724TIP3   OH247662   0.478   0.783   1.175 -0.0504 -0.2945  0.0828
 8724TIP3    H147663   0.572   0.804   1.175 -0.2278  0.5068  0.3880
 8724TIP3    H247664   0.450   0.799   1.085  0.2609 -1.2868 -0.2060
 8725TIP3   OH247665   5.292   0.770   1.179  0.5250  0.5155  0.0738
 8725TIP3    H147666   5.210   0.820   1.187 -0.0947 -0.0267 -2.2326
 8725TIP3    H247667   5.277   0.692   1.232 -1.0742 -0.2745 -1.4535
 8726TIP3   OH247668   4.538   2.869  10.929 -0.2469 -0.1826  0.1385
 8726TIP3    H147669   4.528   2.781  10.967  0.6647 -0.7421 -0.8428
 8726TIP3    H247670   4.544   2.853  10.835  0.1151  0.9193 -0.0334
 8727TIP3   OH247671   5.049   0.600  14.936  0.0961 -0.4394  0.2603
 8727TIP3    H147672   5.140   0.572  14.947  0.2676  0.1442  0.3782
 8727TIP3    H247673   5.031   0.589  14.843 -0.0248 -1.4669  0.3921
 8728TIP3   OH247674   6.463   1.725  14.104  0.4172 -0.1724 -0.6522
 8728TIP3    H147675   6.374   1.751  14.130  0.3930 -0.8407 -0.0351
 8728TIP3    H247676   6.452   1.689  14.016  0.1261  0.0483 -0.7075
 8729TIP3   OH247677   2.181   0.647  13.781 -0.3855 -0.4029 -0.0951
 8729TIP3    H147678   2.118   0.604  13.724  0.7294 -0.3952 -1.3892
 8729TIP3    H247679   2.189   0.589  13.857 -2.3176 -0.1301  0.3460
 8730TIP3   OH247680   2.580   4.390   6.910  0.0119  0.6682 -0.4869
 8730TIP3    H147681   2.623   4.373   6.993  1.3995 -0.5998 -1.4153
 8730TIP3    H247682   2.487   4.398   6.932  0.0699 -1.7208  0.9574
 8731TIP3   OH247683   1.336   2.152   0.830 -0.2669  0.0241  0.8157
 8731TIP3    H147684   1.244   2.141   0.806 -0.4226  1.1426  0.8260
 8731TIP3    H247685   1.333   2.185   0.920 -0.0245  2.9156 -0.1411
 8732TIP3   OH247686   6.001   4.572   5.128  0.1073 -0.6748  0.2015
 8732TIP3    H147687   5.960   4.656   5.145  0.1572 -0.5710 -0.1669
 8732TIP3    H247688   6.002   4.565   5.032 -3.0829 -2.6223  0.1516
 8733TIP3   OH247689   6.628   1.980  12.585  0.0467 -0.7454  0.3488
 8733TIP3    H147690   6.699   1.969  12.648  0.8567 -0.1038 -0.4231
 8733TIP3    H247691   6.555   1.932  12.623 -0.0683  1.0810  2.6802
 8734TIP3   OH247692   6.208   4.316  11.630  0.1612 -0.3643  0.0504
 8734TIP3    H147693   6.292   4.360  11.642 -0.0213 -0.5212  2.1829
 8734TIP3    H247694   6.159   4.374  11.571  0.9518  0.8586  0.5577
 8735TIP3   OH247695   6.716   1.040  14.682  0.7956  0.1721  0.2664
 8735TIP3    H147696   6.705   1.068  14.773 -0.5485 -0.2612  0.2474
 8735TIP3    H247697   6.640   0.986  14.664  1.2120 -0.0086 -1.0310
 8736TIP3   OH247698   1.285   3.747   2.944 -0.1794 -0.7896  0.1379
 8736TIP3    H147699   1.225   3.806   2.900  1.0176  0.3738  0.0121
 8736TIP3    H247700   1.342   3.804   2.996  0.7864 -1.8517  0.2993
 8737TIP3   OH247701   0.264   5.113  13.999 -0.0310  0.3572 -0.3072
 8737TIP3    H147702   0.233   5.038  14.050 -0.5074  0.5504 -0.3043
 8737TIP3    H247703   0.277   5.078  13.911  0.1488  0.1767 -0.2102
 8738TIP3   OH247704   2.355   1.165  12.255  0.2663 -0.0138 -0.1004
 8738TIP3    H147705   2.320   1.079  12.232 -1.2241  0.4802  0.2447
 8738TIP3    H247706   2.282   1.225  12.242  0.0341  0.6659  3.4745
 8739TIP3   OH247707   1.249   1.957   4.569 -0.3015  0.7395 -0.9439
 8739TIP3    H147708   1.294   2.024   4.621  0.3872  0.0873 -0.6733
 8739TIP3    H247709   1.186   1.917   4.629 -0.5558  0.9957 -1.0410
 8740TIP3   OH247710   3.182   5.601  11.103  0.0503 -0.2680 -0.2930
 8740TIP3    H147711   3.220   5.635  11.184 -0.4094  0.9141 -0.5643
 8740TIP3    H247712   3.258   5.582  11.047  0.2996  1.2567 -0.5037
 8741TIP3   OH247713   1.734   5.286   2.154 -0.2520 -0.7750 -0.0790
 8741TIP3    H147714   1.675   5.332   2.214 -0.5277 -1.1495 -0.0592
 8741TIP3    H247715   1.819   5.286   2.199  0.2410  1.3475 -0.8888
 8742TIP3   OH247716   4.654   1.068  10.064 -0.0512 -0.1108  0.0755
 8742TIP3    H147717   4.706   1.007  10.012 -0.1304 -0.9363  0.9522
 8742TIP3    H247718   4.565   1.060  10.029  0.3279  1.1874 -1.3191
 8743TIP3   OH247719   1.215   5.385  12.346  0.1270 -0.3896  0.1470
 8743TIP3    H147720   1.197   5.456  12.408 -0.8687 -1.4868  1.1790
 8743TIP3    H247721   1.153   5.399  12.274  0.7136  0.4164 -0.2128
 8744TIP3   OH247722   4.969   5.519  15.737 -0.3176  0.1699 -0.0809
 8744TIP3    H147723   4.905   5.452  15.716  0.3204 -0.3628 -0.3807
 8744TIP3    H247724   4.952   5.541  15.828 -0.8545 -0.0403 -0.1288
 8745TIP3   OH247725   4.938   2.115  16.819  0.3127 -0.1015  0.7217
 8745TIP3    H147726   4.893   2.035  16.792 -0.4281  0.1149  1.3061
 8745TIP3    H247727   5.027   2.104  16.785 -0.2394 -0.3977 -0.7038
 8746TIP3   OH247728   3.855   2.780   4.788  0.0996  0.2190 -0.1126
 8746TIP3    H147729   3.789   2.775   4.856  0.6667  1.6118  0.5639
 8746TIP3    H247730   3.939   2.780   4.835  0.6093 -1.3124 -0.9367
 8747TIP3   OH247731   2.812   0.501   2.370  0.3141 -0.0404  0.4746
 8747TIP3    H147732   2.793   0.426   2.426  1.8987 -0.6189  0.2945
 8747TIP3    H247733   2.771   0.480   2.287  2.1138 -1.5321 -0.1008
 8748TIP3   OH247734   2.620   2.272  11.827 -0.2781 -0.0068  0.1353
 8748TIP3    H147735   2.592   2.357  11.859  1.5466  0.8946 -0.5112
 8748TIP3    H247736   2.654   2.289  11.739 -1.3865 -1.7096 -0.6834
 8749TIP3   OH247737   6.189   1.517  13.976  0.3475  0.0103  0.0041
 8749TIP3    H147738   6.228   1.548  13.894 -0.2602 -0.0378 -0.3102
 8749TIP3    H247739   6.133   1.589  14.004 -1.8689 -1.0971 -1.2525
 8750TIP3   OH247740   0.470   0.813  10.937 -0.3469 -0.5076  0.2312
 8750TIP3    H147741   0.472   0.858  10.852 -0.5639  0.1923  0.5915
 8750TIP3    H247742   0.561   0.809  10.964 -0.3094 -0.4280  0.1175
 8751TIP3   OH247743   3.936   5.380   5.974  0.3124  0.0047  0.2502
 8751TIP3    H147744   3.939   5.474   5.989  2.0690 -0.2039  1.5996
 8751TIP3    H247745   3.995   5.365   5.900  2.2506 -0.2265  1.7405
 8752TIP3   OH247746   3.848   3.214  16.087 -0.2426 -0.1273 -0.3232
 8752TIP3    H147747   3.914   3.276  16.057  1.7505 -2.4062 -1.0129
 8752TIP3    H247748   3.885   3.176  16.167 -1.9296  0.2957  0.7226
 8753TIP3   OH247749   5.740   6.637  10.803  0.0027  0.2657 -0.2650
 8753TIP3    H147750   5.669   6.609  10.860 -0.4386  0.4551 -0.7086
 8753TIP3    H247751   5.696   6.684  10.732  0.5652  0.3048 -0.5939
 8754TIP3   OH247752   4.047   5.016  16.753 -0.4773  0.0434 -0.3910
 8754TIP3    H147753   4.046   4.999  16.847 -1.0660  0.9171 -0.2257
 8754TIP3    H247754   3.960   4.992  16.723 -0.4963  0.3612 -0.5944
 8755TIP3   OH247755   0.678   2.675   2.659 -0.3457 -0.3101 -0.6426
 8755TIP3    H147756   0.594   2.629   2.665  0.3215 -1.3940  0.6935
 8755TIP3    H247757   0.739   2.609   2.624  0.5969 -0.4588  1.1977
 8756TIP3   OH247758   0.843   5.474  11.883 -0.0668  0.3084  0.4467
 8756TIP3    H147759   0.916   5.443  11.829  0.4764  2.2463 -0.0154
 8756TIP3    H247760   0.880   5.547  11.933 -1.3258  0.3934  1.2908
 8757TIP3   OH247761   1.845   4.036  12.978 -0.4721  0.5943 -0.3717
 8757TIP3    H147762   1.786   4.085  12.920 -0.6606  0.7118 -0.0839
 8757TIP3    H247763   1.817   4.060  13.066 -0.2659  0.3206 -0.2305
 8758TIP3   OH247764   3.646   5.861   4.647  0.2101 -0.2572 -0.1126
 8758TIP3    H147765   3.712   5.794   4.663  2.3555  1.7820  0.1585
 8758TIP3    H247766   3.693   5.932   4.604 -2.0486  0.9208 -0.8210
 8759TIP3   OH247767   0.543   2.302  14.508  0.3548 -0.2180  0.1101
 8759TIP3    H147768   0.635   2.327  14.521  0.3097 -1.3036  3.2175
 8759TIP3    H247769   0.497   2.342  14.582 -1.5420 -0.4997 -0.8697
 8760TIP3   OH247770   6.180   0.141   5.148 -0.3292  0.0387  0.5568
 8760TIP3    H147771   6.137   0.066   5.189 -1.3081  0.2092 -0.1369
 8760TIP3    H247772   6.201   0.200   5.221 -0.5149 -0.4219  0.9872
 8761TIP3   OH247773   4.193   0.033  13.651 -0.0600  0.2565 -0.2975
 8761TIP3    H147774   4.105   0.007  13.678  0.0012 -0.2002 -0.5257
 8761TIP3    H247775   4.195   0.016  13.557  0.6960 -1.0165 -0.0907
 8762TIP3   OH247776   6.260   6.136   2.220 -0.1265  0.2484  0.0275
 8762TIP3    H147777   6.216   6.121   2.136  1.3041  0.5839 -0.8354
 8762TIP3    H247778   6.223   6.218   2.252 -0.2863  0.4181 -0.5678
 8763TIP3   OH247779   0.196   5.705   2.550 -0.3104  0.0495 -0.3943
 8763TIP3    H147780   0.240   5.698   2.635 -2.3274 -1.2348  0.6334
 8763TIP3    H247781   0.245   5.645   2.493  0.2442 -0.1237  0.2485
 8764TIP3   OH247782   5.303   5.620  16.250  0.1115 -0.2396  0.1860
 8764TIP3    H147783   5.250   5.635  16.327 -2.2529  3.0597 -1.8522
 8764TIP3    H247784   5.273   5.536  16.216 -2.1657  0.4241  0.4216
 8765TIP3   OH247785   3.448   5.610   0.064 -0.1798 -0.4603 -0.2381
 8765TIP3    H147786   3.490   5.635   0.146  2.8929 -0.2026 -1.7335
 8765TIP3    H247787   3.483   5.523   0.044 -1.3290 -0.7713 -1.0037
 8766TIP3   OH247788   4.402   4.515   4.007 -0.0160  0.3936  0.3866
 8766TIP3    H147789   4.316   4.495   4.045 -1.2216  0.3396 -2.1906
 8766TIP3    H247790   4.437   4.429   3.982  0.4048  0.4869  0.6557
 8767TIP3   OH247791   1.440   2.302   0.608 -0.5509 -0.3499  0.1536
 8767TIP3    H147792   1.395   2.258   0.679  2.1165  0.2800  2.3989
 8767TIP3    H247793   1.406   2.392   0.610 -2.3612 -0.9378 -1.1805
 8768TIP3   OH247794   2.654   4.200   1.033  0.2913 -0.0503  0.4000
 8768TIP3    H147795   2.582   4.226   1.090  0.8094  1.0129  0.5820
 8768TIP3    H247796   2.626   4.226   0.945 -0.8615 -2.4066 -0.0266
 8769TIP3   OH247797   2.099   5.440  13.766  0.2764  0.3503 -0.1377
 8769TIP3    H147798   2.050   5.359  13.749 -0.8339  1.1628 -0.9358
 8769TIP3    H247799   2.112   5.479  13.680  1.7564  0.5077  0.1360
 8770TIP3   OH247800   5.700   5.044   1.432 -0.4247  0.2146  0.0473
 8770TIP3    H147801   5.654   5.005   1.506  1.6091  0.4490  1.5245
 8770TIP3    H247802   5.631   5.069   1.371 -1.9960 -2.8888  0.3754
 8771TIP3   OH247803   2.742   3.609   3.259 -0.2223  0.1956  0.1738
 8771TIP3    H147804   2.669   3.617   3.197  0.7252  0.7875 -0.9102
 8771TIP3    H247805   2.711   3.651   3.338 -1.3397 -0.2540 -0.0020
 8772TIP3   OH247806   3.050   3.710   5.306 -1.1764  0.2711 -0.2674
 8772TIP3    H147807   3.095   3.744   5.384 -1.9612 -0.8845  0.7234
 8772TIP3    H247808   3.105   3.638   5.277 -1.7053 -0.3262  0.1877
 8773TIP3   OH247809   3.892   2.262  15.327  0.0791 -0.0212  0.4916
 8773TIP3    H147810   3.913   2.170  15.313 -0.2321 -0.2777  1.5740
 8773TIP3    H247811   3.802   2.272  15.295  0.1151 -0.0991  0.3705
 8774TIP3   OH247812   2.959   3.265  16.864  0.1483  0.3793 -0.1804
 8774TIP3    H147813   2.919   3.281  16.949 -0.7332 -0.8429 -0.3437
 8774TIP3    H247814   2.977   3.171  16.862  0.0034  0.3530 -1.4023
 8775TIP3   OH247815   0.024   2.896  10.940  0.1759  0.1692  0.3323
 8775TIP3    H147816   0.116   2.889  10.966  0.1374 -0.9158  0.2521
 8775TIP3    H247817   0.027   2.896  10.844  0.1282  0.9197  0.3245
 8776TIP3   OH247818   0.131   3.667   4.806  0.4906 -0.8357  1.1372
 8776TIP3    H147819   0.042   3.633   4.806  0.3918 -0.6088  0.2397
 8776TIP3    H247820   0.179   3.607   4.748 -0.3163  2.0124 -2.9222
 8777TIP3   OH247821   5.344   1.406   6.272  0.4635 -0.7375  0.0207
 8777TIP3    H147822   5.387   1.489   6.250  2.4070 -1.8290 -0.5052
 8777TIP3    H247823   5.335   1.361   6.188 -3.1999  0.0304 -0.1601
 8778TIP3   OH247824   1.377   3.493  11.773  0.4142 -0.5878 -0.7530
 8778TIP3    H147825   1.403   3.461  11.686 -0.4938  0.3662 -1.3927
 8778TIP3    H247826   1.294   3.538  11.758  1.0170  0.9589  0.3211
 8779TIP3   OH247827   5.700   4.883   3.344 -0.0429  0.4548 -0.0238
 8779TIP3    H147828   5.754   4.927   3.278 -0.5519  1.1934  0.0350
 8779TIP3    H247829   5.613   4.923   3.333 -0.3948 -0.1940  0.3696
 8780TIP3   OH247830   2.819   3.320   5.689 -0.9700 -0.0586  0.0498
 8780TIP3    H147831   2.793   3.255   5.755 -1.3723 -0.1170 -0.1599
 8780TIP3    H247832   2.738   3.339   5.642 -0.7881  0.3704 -0.0890
 8781TIP3   OH247833   4.650   1.174   1.835 -0.0339  0.0053  0.9255
 8781TIP3    H147834   4.583   1.186   1.768  0.1986 -3.1016 -0.0183
 8781TIP3    H247835   4.731   1.206   1.794 -0.2401 -0.0076  0.5003
 8782TIP3   OH247836   2.051   3.123  13.940  0.1493  0.1587  0.8198
 8782TIP3    H147837   2.020   3.198  13.991  2.9887  0.7255  1.8795
 8782TIP3    H247838   2.114   3.079  13.997  2.2866 -0.1321 -1.5702
 8783TIP3   OH247839   5.282   1.035  14.847 -0.0174  0.0420  0.1972
 8783TIP3    H147840   5.276   1.045  14.942  0.7988 -0.4324  0.3110
 8783TIP3    H247841   5.308   0.944  14.834  0.8887  0.3708 -0.4278
 8784TIP3   OH247842   1.995   3.287  14.587  0.2168 -0.2168 -0.3686
 8784TIP3    H147843   2.064   3.260  14.648  1.5053  0.3302 -1.5336
 8784TIP3    H247844   1.937   3.343  14.640  1.5113  0.5620  0.2861
 8785TIP3   OH247845   3.665   4.157  13.794 -0.0158  0.3458 -0.1107
 8785TIP3    H147846   3.588   4.101  13.785  0.6973 -0.5843 -0.5384
 8785TIP3    H247847   3.645   4.213  13.869  0.3618 -2.3669  2.1616
 8786TIP3   OH247848   4.430   2.187  13.692 -0.4431 -0.0737  0.3753
 8786TIP3    H147849   4.346   2.231  13.706  0.5720  2.2646 -0.2263
 8786TIP3    H247850   4.490   2.259  13.670  1.1734 -1.9177 -1.6355
 8787TIP3   OH247851   0.073   2.209  13.925  0.4328 -0.1680  0.0584
 8787TIP3    H147852   0.129   2.242  13.995  0.2566  0.1893  0.0327
 8787TIP3    H247853   0.126   2.142  13.881  0.3190 -0.8331  0.9161
 8788TIP3   OH247854   3.817   0.531  13.300 -0.3886 -0.1626 -0.5008
 8788TIP3    H147855   3.805   0.456  13.358 -1.5680  1.4829  1.5354
 8788TIP3    H247856   3.805   0.607  13.357  2.1320  1.6276 -2.1727
 8789TIP3   OH247857   0.877   0.147  15.432  0.0533 -0.3325  0.0547
 8789TIP3    H147858   0.838   0.232  15.411  0.7784  0.0990  0.4075
 8789TIP3    H247859   0.859   0.135  15.525  1.0922  0.0717  0.3278
 8790TIP3   OH247860   5.249   1.752   1.715 -0.3913 -0.5324 -0.3875
 8790TIP3    H147861   5.240   1.659   1.695  1.0435 -0.6961 -0.3950
 8790TIP3    H247862   5.338   1.774   1.689  0.3396  0.1379  2.3318
 8791TIP3   OH247863   2.995   3.419  13.285  0.3080 -0.0810  0.4830
 8791TIP3    H147864   3.082   3.419  13.246 -0.0689 -1.0096 -0.3841
 8791TIP3    H247865   2.951   3.344  13.246 -0.7526  0.1417  1.2148
 8792TIP3   OH247866   2.501   4.279   4.665 -0.4817  0.4282 -0.2863
 8792TIP3    H147867   2.570   4.230   4.619  0.3077  1.3800 -0.1497
 8792TIP3    H247868   2.447   4.211   4.706  0.3261 -0.3478 -0.4611
 8793TIP3   OH247869   2.657   1.943  10.813  0.1589  0.4263 -0.3682
 8793TIP3    H147870   2.599   1.890  10.869 -1.1667 -0.0870 -2.1382
 8793TIP3    H247871   2.613   2.027  10.804  0.5314  0.6249 -0.3751
 8794TIP3   OH247872   1.666   0.497   4.963 -0.2093 -0.1598 -0.0350
 8794TIP3    H147873   1.621   0.581   4.960 -1.4844 -0.8377 -1.1664
 8794TIP3    H247874   1.753   0.515   4.928 -0.8910  0.4717 -1.5119
 8795TIP3   OH247875   1.397   1.925  16.802  0.0195  0.1612  0.5841
 8795TIP3    H147876   1.357   1.890  16.722 -0.2179  1.3506  0.1719
 8795TIP3    H247877   1.418   1.847  16.854 -0.6384 -0.5879 -0.2412
 8796TIP3   OH247878   4.106   3.052  11.234 -0.5109  0.2059 -0.4166
 8796TIP3    H147879   4.149   3.067  11.318  1.4463 -2.5493 -0.8145
 8796TIP3    H247880   4.120   3.133  11.185 -0.3850  1.3030  1.3378
 8797TIP3   OH247881   0.231   0.805  17.014  0.1039 -0.3804  0.4081
 8797TIP3    H147882   0.146   0.842  16.989  0.5100  0.0290 -0.3739
 8797TIP3    H247883   0.293   0.877  17.003  0.7569 -1.0305 -0.2272
 8798TIP3   OH247884   1.116   5.025   6.162  0.1138 -0.2390  0.0829
 8798TIP3    H147885   1.158   5.079   6.228  1.0054 -1.2881  0.3945
 8798TIP3    H247886   1.023   5.049   6.168  0.5977  2.0190 -0.5444
 8799TIP3   OH247887   3.981   1.336   6.066 -0.7054  0.4561  0.4888
 8799TIP3    H147888   4.024   1.394   6.130  0.1098  0.4101 -0.0012
 8799TIP3    H247889   3.998   1.248   6.099  1.7600  0.2945 -0.9564
 8800TIP3   OH247890   2.820   2.229  16.253  0.1447 -0.2141 -0.2859
 8800TIP3    H147891   2.779   2.248  16.168 -2.6585 -0.5523  0.8581
 8800TIP3    H247892   2.821   2.314  16.298  0.9730 -0.1704 -0.3693
 8801TIP3   OH247893   5.163   0.745   3.105  0.1939 -0.2104 -0.4608
 8801TIP3    H147894   5.193   0.655   3.096 -0.2959 -0.3952 -0.2451
 8801TIP3    H247895   5.134   0.751   3.196  2.0763  0.7171  0.1433
 8802TIP3   OH247896   4.240   1.926   4.843  0.0064  0.0002 -0.1812
 8802TIP3    H147897   4.325   1.904   4.882  0.2764  0.8040 -0.2916
 8802TIP3    H247898   4.257   1.929   4.749  0.0664  0.9505 -0.1591
 8803TIP3   OH247899   6.713   6.441  17.045 -0.7212 -0.5792 -0.0603
 8803TIP3    H147900   6.724   6.436  16.950  1.9461  0.9602  0.0756
 8803TIP3    H247901   6.674   6.527  17.060  0.6733  0.0244  0.2881
 8804TIP3   OH247902   5.300   6.774  13.215 -0.4338 -0.0760  0.5215
 8804TIP3    H147903   5.292   6.763  13.310  2.0203  0.0272  0.8161
 8804TIP3    H247904   5.307   6.685  13.181 -0.0518 -0.0859  0.6133
 8805TIP3   OH247905   6.309   4.589  11.991 -0.4062 -0.2529  0.0820
 8805TIP3    H147906   6.328   4.679  12.018 -2.1465  0.1066  0.2243
 8805TIP3    H247907   6.325   4.589  11.897  0.8993 -0.1814  0.2820
 8806TIP3   OH247908   4.182   1.386   1.061  0.1829 -0.2301 -0.4726
 8806TIP3    H147909   4.129   1.330   1.005  0.1243  1.5734 -2.3463
 8806TIP3    H247910   4.220   1.451   1.001  1.5935  0.7161  1.3341
 8807TIP3   OH247911   4.815   6.476   5.072  0.0423 -0.3186  0.1396
 8807TIP3    H147912   4.905   6.445   5.085  0.1685  0.0696  0.2140
 8807TIP3    H247913   4.761   6.415   5.123  0.5068  0.9908  2.3366
 8808TIP3   OH247914   3.336   1.590  12.857 -0.2791 -0.2870  0.1540
 8808TIP3    H147915   3.370   1.583  12.768 -0.7644 -0.8354  0.0051
 8808TIP3    H247916   3.261   1.530  12.859 -0.3818 -0.1451  0.8777
 8809TIP3   OH247917   1.622   6.246   5.750 -0.0948 -0.4322 -0.0096
 8809TIP3    H147918   1.529   6.264   5.732 -0.2290 -0.5982  0.5140
 8809TIP3    H247919   1.659   6.331   5.772 -0.0317 -0.3015 -0.5954
 8810TIP3   OH247920   6.293   0.296   0.866  0.0477  0.5793  0.3290
 8810TIP3    H147921   6.205   0.285   0.902 -0.6459 -0.9560 -1.6266
 8810TIP3    H247922   6.302   0.224   0.803  3.1470  0.0311  1.2528
 8811TIP3   OH247923   1.550   3.418   2.259  0.0623 -0.2278 -0.2747
 8811TIP3    H147924   1.605   3.340   2.273 -0.1613 -0.6115 -1.3522
 8811TIP3    H247925   1.461   3.388   2.278  0.1628  0.2921  1.1084
 8812TIP3   OH247926   4.813   5.965   6.637 -0.2075 -0.7197 -0.0532
 8812TIP3    H147927   4.740   5.920   6.679 -0.5314  0.0445  0.2244
 8812TIP3    H247928   4.891   5.933   6.683 -0.4383 -0.9487  0.1777
 8813TIP3   OH247929   0.391   1.403   3.831  0.5868  0.0233  0.1850
 8813TIP3    H147930   0.424   1.371   3.915  0.1099 -0.3245  0.2370
 8813TIP3    H247931   0.296   1.405   3.841  0.5085 -0.3312 -0.4636
 8814TIP3   OH247932   5.889   6.760  16.591  0.0758  0.1812  0.1980
 8814TIP3    H147933   5.849   6.826  16.534  0.5204 -0.2124 -0.5850
 8814TIP3    H247934   5.846   6.678  16.566 -0.3166  0.1225  1.0146
 8815TIP3   OH247935   3.957   2.391  13.887  0.5285 -0.0739 -0.3142
 8815TIP3    H147936   3.964   2.481  13.919  1.3506 -0.5920  1.0628
 8815TIP3    H247937   4.048   2.362  13.876  0.2659 -0.5359 -1.3734
 8816TIP3   OH247938   5.478   5.722   4.596 -0.3203 -0.4259  0.4527
 8816TIP3    H147939   5.508   5.631   4.590 -0.5498 -0.6057  1.7319
 8816TIP3    H247940   5.559   5.773   4.597 -0.2115 -0.4213 -2.3589
 8817TIP3   OH247941   5.404   4.110  12.173  0.0339  0.0836  0.4447
 8817TIP3    H147942   5.488   4.151  12.153 -0.3972  0.3688 -0.8807
 8817TIP3    H247943   5.363   4.168  12.237  1.1087 -0.4104  1.6169
 8818TIP3   OH247944   2.875   6.234   0.195 -0.0606 -0.2507  0.5888
 8818TIP3    H147945   2.876   6.144   0.162 -0.4841 -0.3492  0.8394
 8818TIP3    H247946   2.790   6.269   0.168 -0.4222 -0.3379  1.5795
 8819TIP3   OH247947   2.750   1.318   5.872 -0.2885 -0.1215 -0.2906
 8819TIP3    H147948   2.800   1.382   5.923  0.1551 -0.6766 -0.0183
 8819TIP3    H247949   2.663   1.357   5.863 -0.1941  0.2541  0.3769
 8820TIP3   OH247950   3.208   5.907  16.648 -0.7789 -0.2839 -0.6848
 8820TIP3    H147951   3.230   5.930  16.558 -1.2738  2.3679 -0.2202
 8820TIP3    H247952   3.142   5.972  16.674 -2.0511 -2.1275  0.9975
 8821TIP3   OH247953   4.391   4.414  16.799  0.3220 -0.3763  0.2988
 8821TIP3    H147954   4.380   4.485  16.863  1.7137  0.5746 -0.4788
 8821TIP3    H247955   4.404   4.459  16.716 -0.7411 -1.6015 -0.5624
 8822TIP3   OH247956   0.302   1.482   0.464  0.1191  0.4611 -0.1678
 8822TIP3    H147957   0.218   1.438   0.477 -0.1791  1.5305  1.9565
 8822TIP3    H247958   0.305   1.501   0.370 -0.7846 -1.9034 -0.7527
 8823TIP3   OH247959   1.839   5.862  13.792  0.1523 -0.0175 -0.2206
 8823TIP3    H147960   1.843   5.925  13.864 -0.1344 -1.0241  0.6945
 8823TIP3    H247961   1.847   5.776  13.834  0.2417 -0.6146 -1.4152
 8824TIP3   OH247962   4.022   5.721  11.908  0.2223  0.4460  0.7694
 8824TIP3    H147963   4.094   5.755  11.855 -0.1729  0.4284  0.2145
 8824TIP3    H247964   3.989   5.798  11.955 -0.7534  0.8999 -0.5795
 8825TIP3   OH247965   0.210   6.244   1.182 -0.0743  0.0306 -0.8391
 8825TIP3    H147966   0.200   6.220   1.090  0.3846 -1.1482 -0.6058
 8825TIP3    H247967   0.121   6.263   1.211  0.0176  2.7685 -2.0924
 8826TIP3   OH247968   6.097   6.686   1.877 -0.2705 -0.1990 -0.2640
 8826TIP3    H147969   6.113   6.593   1.860 -0.3404 -0.3452  0.4497
 8826TIP3    H247970   6.065   6.689   1.967  1.9557  0.7559  0.5722
 8827TIP3   OH247971   6.516   3.811  15.998  0.4169  0.0862 -0.3191
 8827TIP3    H147972   6.589   3.872  15.982  1.9366 -1.8605 -1.3418
 8827TIP3    H247973   6.457   3.825  15.924  0.9665  0.0515 -0.7746
 8828TIP3   OH247974   4.274   5.461  14.933 -0.1559 -0.1684  0.4533
 8828TIP3    H147975   4.223   5.380  14.925  1.7527 -1.2530 -1.6722
 8828TIP3    H247976   4.363   5.436  14.908  1.3064  1.8535  3.1884
 8829TIP3   OH247977   4.379   2.770   5.087 -0.6349 -0.3458 -0.4781
 8829TIP3    H147978   4.406   2.861   5.105  0.4671 -0.7222 -0.1317
 8829TIP3    H247979   4.396   2.724   5.169  1.0151 -1.3413 -1.3122
 8830TIP3   OH247980   6.483   1.111  17.143  0.0691  0.0108 -0.7224
 8830TIP3    H147981   6.531   1.028  17.139 -1.2688 -0.7361 -2.1753
 8830TIP3    H247982   6.420   1.098  17.214  0.2648  0.0068 -0.5477
 8831TIP3   OH247983   4.392   4.090  17.214  0.4724  0.2124 -0.4286
 8831TIP3    H147984   4.380   3.999  17.186  0.1669 -0.3749  1.5147
 8831TIP3    H247985   4.487   4.099  17.224  0.5162  0.1767 -0.7744
 8832TIP3   OH247986   6.768   3.320   1.884  0.6725 -0.0868  0.1527
 8832TIP3    H147987   6.750   3.281   1.969  0.3698  0.0030  0.1318
 8832TIP3    H247988   6.686   3.364   1.860  1.0869  0.8060  0.3150
 8833TIP3   OH247989   5.265   1.282  15.977 -0.4037 -0.5996 -0.1248
 8833TIP3    H147990   5.230   1.275  15.888  1.5973 -0.0527 -1.0014
 8833TIP3    H247991   5.191   1.260  16.033 -1.4143 -2.1109 -1.9341
 8834TIP3   OH247992   5.085   2.210   5.192 -0.4148  0.2552 -0.0682
 8834TIP3    H147993   5.040   2.286   5.229  0.7816  1.3121 -0.7064
 8834TIP3    H247994   5.138   2.175   5.264 -1.4389 -0.3688  0.3980
 8835TIP3   OH247995   0.775   5.844  15.575  0.1057  0.2461 -0.7362
 8835TIP3    H147996   0.679   5.845  15.574  0.0806 -0.1561  0.1664
 8835TIP3    H247997   0.800   5.935  15.593 -0.0985  0.3831 -1.1389
 8836TIP3   OH247998   1.616   0.179   1.413 -0.3412  0.0034 -0.5412
 8836TIP3    H147999   1.661   0.095   1.404 -1.2884 -0.5005 -0.6793
 8836TIP3    H248000   1.684   0.244   1.395  0.7068 -0.6826  0.7763
 8837TIP3   OH248001   1.086   3.659  12.778 -0.6801 -0.5440 -0.1364
 8837TIP3    H148002   1.000   3.617  12.784 -0.3706 -1.1818 -0.0755
 8837TIP3    H248003   1.140   3.597  12.728 -0.0473 -0.4955  0.4705
 8838TIP3   OH248004   6.802   2.215  12.576 -0.1733  0.0797  0.6219
 8838TIP3    H148005   6.731   2.194  12.516 -0.6392 -0.5902  1.3890
 8838TIP3    H248006   6.835   2.130  12.605 -0.5989  0.3637  2.0427
 8839TIP3   OH248007   2.972   5.908  11.468  0.5295 -0.0921 -0.0073
 8839TIP3    H148008   3.039   5.895  11.401  1.7384  0.8339  0.9706
 8839TIP3    H248009   3.019   5.895  11.551 -0.3504  1.2189  0.7181
 8840TIP3   OH248010   2.620   1.026   2.722  0.1735 -0.7439  0.1484
 8840TIP3    H148011   2.624   0.940   2.679 -1.3139 -1.0513  0.5881
 8840TIP3    H248012   2.712   1.050   2.733  0.6331 -2.3461  0.1526
 8841TIP3   OH248013   6.756   5.524   3.518  1.0543  0.4910  0.1535
 8841TIP3    H148014   6.727   5.563   3.601  0.1876 -0.3078  0.2462
 8841TIP3    H248015   6.702   5.564   3.452  0.2719 -0.3983  0.2304
 8842TIP3   OH248016   5.366   4.549   5.029  0.2895  0.2457 -1.1608
 8842TIP3    H148017   5.415   4.591   5.100 -1.0362 -1.5252  0.8736
 8842TIP3    H248018   5.400   4.460   5.025 -1.4233 -0.4507 -0.9792
 8843TIP3   OH248019   6.288   3.250   4.099 -0.0671 -0.3967  0.3034
 8843TIP3    H148020   6.328   3.166   4.122  0.4347  0.0810  1.2256
 8843TIP3    H248021   6.299   3.304   4.177 -0.5497  0.4726 -0.2158
 8844TIP3   OH248022   2.557   3.892  12.276 -0.3068 -0.2399  0.2980
 8844TIP3    H148023   2.496   3.849  12.217  0.0642 -0.2924 -0.0462
 8844TIP3    H248024   2.643   3.866  12.245 -0.1114 -0.5243  1.0489
 8845TIP3   OH248025   3.622   4.358  12.021  0.6950 -0.0570 -0.5330
 8845TIP3    H148026   3.644   4.298  11.950  0.2031  0.1769 -0.8868
 8845TIP3    H248027   3.603   4.441  11.977 -0.2337 -0.0769 -0.1818
 8846TIP3   OH248028   1.504   2.568   3.125 -0.3297  0.5252  0.7101
 8846TIP3    H148029   1.493   2.637   3.059  0.2799  0.5422  0.6225
 8846TIP3    H248030   1.480   2.610   3.208 -1.6182  0.3554  0.4440
 8847TIP3   OH248031   4.300   6.820   2.825  0.0366  1.1137  0.6773
 8847TIP3    H148032   4.287   6.859   2.738  1.3429 -0.8780 -0.4799
 8847TIP3    H248033   4.230   6.756   2.834 -0.3839  1.6454  1.3393
 8848TIP3   OH248034   0.424   1.854  13.707  0.0939 -0.0507  0.3407
 8848TIP3    H148035   0.412   1.820  13.619  0.0505 -0.0501  0.3466
 8848TIP3    H248036   0.506   1.904  13.703 -1.0089  1.8265 -0.2728
 8849TIP3   OH248037   1.580   3.752  15.180  0.0835  0.0243 -0.1780
 8849TIP3    H148038   1.593   3.794  15.265  0.7426  1.4042 -0.9361
 8849TIP3    H248039   1.655   3.779  15.127  0.0642 -1.3909 -1.0014
 8850TIP3   OH248040   6.605   2.464  15.460  0.3506  0.2293 -0.1788
 8850TIP3    H148041   6.612   2.402  15.533 -1.5417 -0.7499 -0.7607
 8850TIP3    H248042   6.610   2.409  15.382 -0.9519  0.8327 -0.7179
 8851TIP3   OH248043   5.031   2.635  13.050  0.3806 -0.3988  0.4176
 8851TIP3    H148044   4.952   2.664  13.094  1.3491  1.6098  0.9580
 8851TIP3    H248045   5.041   2.696  12.976  0.4092 -1.8295 -0.8063
 8852TIP3   OH248046   0.269   1.835   3.720  0.0310 -0.3135 -0.1786
 8852TIP3    H148047   0.341   1.773   3.734  0.5781  0.1297 -0.9581
 8852TIP3    H248048   0.309   1.906   3.671 -0.8938  0.0614 -0.3917
 8853TIP3   OH248049   2.099   1.363   3.926  0.8255  1.1864  0.3286
 8853TIP3    H148050   2.100   1.398   3.838  0.9806  1.7152  0.5366
 8853TIP3    H248051   2.040   1.420   3.975 -2.8407 -1.6135 -0.4097
 8854TIP3   OH248052   6.409   5.334  11.607 -0.3018 -0.5593  0.3079
 8854TIP3    H148053   6.350   5.403  11.577  0.2582 -0.5036 -0.6795
 8854TIP3    H248054   6.411   5.346  11.702 -1.8516 -0.5501  0.3713
 8855TIP3   OH248055   2.142   0.141  11.374 -0.3688  0.3696  0.1065
 8855TIP3    H148056   2.182   0.063  11.337  0.1104  0.8504 -0.3987
 8855TIP3    H248057   2.200   0.168  11.445 -0.3926  0.4149  0.1096
 8856TIP3   OH248058   0.393   1.493   3.327  0.1624  0.2485 -0.1016
 8856TIP3    H148059   0.387   1.578   3.284  1.5666 -0.0765 -1.0007
 8856TIP3    H248060   0.471   1.499   3.381 -0.4562 -0.0514  0.8512
 8857TIP3   OH248061   1.147   1.807  15.291 -0.0617  0.0267 -0.2202
 8857TIP3    H148062   1.071   1.861  15.315 -0.0868 -0.1090  0.0134
 8857TIP3    H248063   1.109   1.727  15.256 -0.0875 -1.0643  2.1102
 8858TIP3   OH248064   1.270   0.468  11.313 -0.1485 -0.1159 -0.6137
 8858TIP3    H148065   1.251   0.554  11.276 -0.7540 -0.2432 -0.6014
 8858TIP3    H248066   1.189   0.418  11.302  1.0975 -1.7524 -3.5040
 8859TIP3   OH248067   3.738   4.307  16.801  0.9286  0.3048  0.2893
 8859TIP3    H148068   3.708   4.292  16.890 -1.3299  1.3972 -0.2202
 8859TIP3    H248069   3.804   4.239  16.786  0.9281 -0.2620  2.5675
 8860TIP3   OH248070   2.565   3.925   5.336 -0.4297 -0.0342  0.0228
 8860TIP3    H148071   2.539   3.866   5.407 -2.4950  0.6731 -0.0962
 8860TIP3    H248072   2.486   3.938   5.284  0.8289  0.0726 -2.0222
 8861TIP3   OH248073   3.758   0.549   1.283  0.2807  0.3078 -0.3981
 8861TIP3    H148074   3.704   0.617   1.243 -1.4554 -0.7917 -0.0073
 8861TIP3    H248075   3.784   0.585   1.368  1.4361  1.4181 -1.1814
 8862TIP3   OH248076   2.915   3.754  12.834 -0.2926  0.4319 -0.3081
 8862TIP3    H148077   2.852   3.682  12.830 -0.4007  0.5803 -1.3410
 8862TIP3    H248078   2.899   3.794  12.920 -0.3698 -0.6333  0.2009
 8863TIP3   OH248079   2.896   1.854   4.201 -0.1286  0.1626  0.1432
 8863TIP3    H148080   2.937   1.785   4.253  0.4586  0.4242  0.0354
 8863TIP3    H248081   2.963   1.921   4.193  0.7408 -0.8684 -3.0055
 8864TIP3   OH248082   6.161   6.260  15.801  0.1035  0.1080  0.4280
 8864TIP3    H148083   6.198   6.329  15.857  0.4074  0.6090 -0.3664
 8864TIP3    H248084   6.090   6.222  15.853 -0.5260  1.4925  0.6308
 8865TIP3   OH248085   1.455   4.847   0.991  0.3986  0.3739 -0.6593
 8865TIP3    H148086   1.459   4.787   0.917  0.7172 -0.4445  0.0040
 8865TIP3    H248087   1.530   4.824   1.046 -0.5120  0.1118  0.5403
 8866TIP3   OH248088   2.940   6.674   1.045 -0.1278 -0.0147 -0.5775
 8866TIP3    H148089   2.929   6.608   1.114 -0.8135 -0.3937 -1.0367
 8866TIP3    H248090   3.029   6.707   1.058  1.5131 -3.2568 -2.1954
 8867TIP3   OH248091   3.901   4.938  17.022  0.1023 -0.1363  0.5102
 8867TIP3    H148092   3.889   4.934  17.117  0.4211  0.1120  0.5641
 8867TIP3    H248093   3.866   4.855  16.989 -0.2398 -0.1168  0.8181
 8868TIP3   OH248094   1.628   1.562   4.795 -0.3725  0.3509 -0.8447
 8868TIP3    H148095   1.712   1.543   4.753 -0.4939  0.7630 -1.2766
 8868TIP3    H248096   1.643   1.543   4.888 -0.5419 -2.1138 -1.2488
 8869TIP3   OH248097   2.269   5.213   3.943  0.3666 -0.1060  0.1014
 8869TIP3    H148098   2.355   5.230   3.906  0.9741 -0.1495  1.4287
 8869TIP3    H248099   2.241   5.298   3.978  0.4795 -0.3821  0.8774
 8870TIP3   OH248100   5.742   1.311   4.969 -0.4950 -0.0351  0.7542
 8870TIP3    H148101   5.802   1.273   5.034  1.0082  0.7653 -0.1050
 8870TIP3    H248102   5.664   1.335   5.019  0.1758 -0.4767  2.0482
 8871TIP3   OH248103   0.369   4.389   4.461  0.3668  0.0711 -0.5051
 8871TIP3    H148104   0.280   4.365   4.435  0.5605 -0.4257 -0.7363
 8871TIP3    H248105   0.386   4.337   4.539  0.9785 -0.9916 -1.3048
 8872TIP3   OH248106   3.815   6.190   3.468 -0.0403  0.0219  0.1413
 8872TIP3    H148107   3.894   6.209   3.416 -0.3816 -0.5840 -0.6251
 8872TIP3    H248108   3.831   6.104   3.506 -0.4617 -0.2451 -0.2797
 8873TIP3   OH248109   1.284   0.951   3.974  0.2750  0.1199 -0.1299
 8873TIP3    H148110   1.353   0.935   4.038 -0.5896  0.5248  0.9472
 8873TIP3    H248111   1.330   0.973   3.893  1.3997  0.1400  0.4941
 8874TIP3   OH248112   3.935   5.249   4.805 -0.2076  0.2129  0.4319
 8874TIP3    H148113   4.015   5.251   4.752  0.5419 -0.7160  1.4861
 8874TIP3    H248114   3.871   5.298   4.753  1.1299  1.2885 -0.2794
 8875TIP3   OH248115   2.007   6.714  12.402  0.3310  0.3124 -0.4085
 8875TIP3    H148116   1.977   6.635  12.447  0.6639  0.0071 -0.7163
 8875TIP3    H248117   2.063   6.758  12.465  1.3759 -0.4808 -0.7590
 8876TIP3   OH248118   4.402   5.766   4.070 -0.3161 -0.1389 -0.4893
 8876TIP3    H148119   4.451   5.743   4.149 -0.5572  0.5120 -0.1420
 8876TIP3    H248120   4.381   5.682   4.030 -0.1668 -0.4773  0.1249
 8877TIP3   OH248121   3.205   2.531   1.571 -0.6111 -0.4453 -0.2631
 8877TIP3    H148122   3.155   2.564   1.497  0.1926 -1.6826 -1.4028
 8877TIP3    H248123   3.293   2.568   1.559 -0.3060 -1.1708 -0.2921
 8878TIP3   OH248124   1.336   1.125  15.495 -0.0906  0.8859 -0.0378
 8878TIP3    H148125   1.326   1.038  15.533  0.4696  0.6565 -0.3931
 8878TIP3    H248126   1.358   1.181  15.569  1.3481  0.3773 -0.0491
 8879TIP3   OH248127   6.159   1.922  11.917 -0.5649  0.5064  0.1304
 8879TIP3    H148128   6.074   1.884  11.894  0.9081 -2.1484 -1.3797
 8879TIP3    H248129   6.178   1.886  12.004 -0.5710  0.3667  0.0732
 8880TIP3   OH248130   6.121   6.384  16.246 -0.1347 -0.1731  0.6042
 8880TIP3    H148131   6.047   6.331  16.217  0.7482 -1.7098  1.0534
 8880TIP3    H248132   6.121   6.376  16.341  1.3230 -1.2403  0.5471
 8881TIP3   OH248133   4.935   0.032   3.316 -0.5389 -0.1136 -0.1991
 8881TIP3    H148134   4.938   0.033   3.412 -0.0004 -0.5825 -0.2048
 8881TIP3    H248135   4.866  -0.031   3.295  0.3536 -1.1382 -0.1190
 8882TIP3   OH248136   4.457   0.975  15.962  0.7749  0.7180  0.2930
 8882TIP3    H148137   4.541   0.965  15.917 -0.5213  1.2347 -2.4666
 8882TIP3    H248138   4.446   1.070  15.969 -0.0666  0.6915 -0.4629
 8883TIP3   OH248139   3.032   2.952  11.252 -0.5228  0.2074  0.2548
 8883TIP3    H148140   2.982   2.874  11.228 -0.6931 -0.4051  2.3460
 8883TIP3    H248141   3.010   3.017  11.185 -1.1188 -1.2348 -1.0035
 8884TIP3   OH248142   1.085   4.137   1.962  0.4559  0.1560  0.0345
 8884TIP3    H148143   1.048   4.116   1.876  2.5434  0.8620 -1.1094
 8884TIP3    H248144   1.028   4.205   1.997  0.2538  0.7380 -1.3626
 8885TIP3   OH248145   3.510   0.071   5.225  0.2340 -0.2209  0.1043
 8885TIP3    H148146   3.528   0.001   5.288  0.8991 -0.7397 -0.6364
 8885TIP3    H248147   3.476   0.025   5.148  2.7548 -0.0136 -1.2287
 8886TIP3   OH248148   4.312   4.548  13.783 -0.3661  0.1687  0.1464
 8886TIP3    H148149   4.218   4.552  13.765 -0.9130  0.5770  2.6665
 8886TIP3    H248150   4.340   4.463  13.751 -1.8155 -0.3457  0.2109
 8887TIP3   OH248151   6.472   2.593   1.494  0.2639  0.3184  0.3638
 8887TIP3    H148152   6.520   2.634   1.566  1.6921 -2.0155  0.8479
 8887TIP3    H248153   6.534   2.593   1.421  0.0072 -0.2578  0.1426
 8888TIP3   OH248154   4.982   2.860   1.514 -0.1268  0.2693 -0.0182
 8888TIP3    H148155   4.972   2.772   1.475 -0.2602 -0.0497  0.7210
 8888TIP3    H248156   5.061   2.854   1.567  0.5453  0.9628 -0.9201
 8889TIP3   OH248157   6.457   0.014   2.480 -0.2686  0.1750 -0.1361
 8889TIP3    H148158   6.450  -0.067   2.532 -1.9446  0.8882  0.8271
 8889TIP3    H248159   6.379   0.064   2.504 -1.4278  0.3764 -3.7034
 8890TIP3   OH248160   0.119   3.902   5.321  0.5673  0.2714 -0.1293
 8890TIP3    H148161   0.127   3.807   5.334  1.0920  0.3028 -0.2119
 8890TIP3    H248162   0.118   3.912   5.226  0.5828  0.3539 -0.1203
 8891TIP3   OH248163   4.925   6.190  15.337 -0.1768 -0.2559  0.4936
 8891TIP3    H148164   4.876   6.124  15.386 -1.3310  0.8161  0.8431
 8891TIP3    H248165   4.981   6.139  15.278 -1.2558 -1.5418  0.5196
 8892TIP3   OH248166   2.589   2.039   3.155  0.2320  0.3482 -0.0803
 8892TIP3    H148167   2.607   2.103   3.224  1.2651  0.0832 -0.0826
 8892TIP3    H248168   2.635   2.074   3.078  1.0223 -0.5025 -0.0159
 8893TIP3   OH248169   2.677   6.445   2.074  0.6541  0.3109  0.3453
 8893TIP3    H148170   2.639   6.533   2.079  0.3021  0.0930  1.9321
 8893TIP3    H248171   2.604   6.386   2.090  0.4810 -0.4236 -2.5845
 8894TIP3   OH248172   6.390   3.030   5.520 -0.5469 -0.2995 -0.4011
 8894TIP3    H148173   6.304   2.993   5.538  0.1359 -0.5025  3.0277
 8894TIP3    H248174   6.374   3.124   5.511 -0.9785 -0.1042  1.9604
 8895TIP3   OH248175   0.827   1.824   5.615  0.6554 -0.8701 -0.3427
 8895TIP3    H148176   0.826   1.729   5.619  0.5378 -0.9046 -1.0461
 8895TIP3    H248177   0.775   1.846   5.537 -3.8110 -0.0180  2.4905
 8896TIP3   OH248178   0.250   3.690   2.212 -0.4558  0.0460 -0.2366
 8896TIP3    H148179   0.290   3.667   2.128 -0.7172 -2.0282  0.1466
 8896TIP3    H248180   0.313   3.749   2.253 -0.3065  1.0558 -1.8497
 8897TIP3   OH248181   3.272   0.109  12.831  0.0949  0.0407  0.0271
 8897TIP3    H148182   3.261   0.099  12.925 -0.4001  1.8202  0.1996
 8897TIP3    H248183   3.194   0.156  12.802  1.7187  2.4920 -0.6983
 8898TIP3   OH248184   0.786   5.061   2.320 -0.8426 -0.1454  0.2088
 8898TIP3    H148185   0.861   5.008   2.292  0.4548  1.7807 -0.1612
 8898TIP3    H248186   0.816   5.106   2.399 -0.9995  1.8238 -0.7841
 8899TIP3   OH248187   2.323   5.733   5.261  0.1863 -0.1061 -0.6489
 8899TIP3    H148188   2.323   5.828   5.275 -0.6481 -0.1097 -0.5660
 8899TIP3    H248189   2.234   5.706   5.282  0.0100 -0.7108 -2.0482
 8900TIP3   OH248190   5.566   2.155   5.208 -0.5826  0.2317 -0.1631
 8900TIP3    H148191   5.568   2.182   5.300 -0.5002 -1.4041  0.3435
 8900TIP3    H248192   5.573   2.237   5.159 -2.6078  1.3429  1.2465
 8901TIP3   OH248193   3.371   1.642   2.542 -0.4711 -0.1403  0.5379
 8901TIP3    H148194   3.405   1.554   2.558 -2.0158 -0.5807  1.6152
 8901TIP3    H248195   3.441   1.686   2.494  1.5315 -1.0097  2.4833
 8902TIP3   OH248196   4.965   4.980  15.178  0.0173 -0.2440 -0.9740
 8902TIP3    H148197   5.000   5.008  15.093  0.8349 -0.2462 -0.6474
 8902TIP3    H248198   4.942   5.061  15.222  0.1940 -0.2081 -0.9464
 8903TIP3   OH248199   5.747   2.618  14.309 -0.3767  0.5755  0.1940
 8903TIP3    H148200   5.770   2.600  14.218  0.2814 -0.9786  0.6311
 8903TIP3    H248201   5.654   2.641  14.306 -0.8900 -1.3580 -0.6907
 8904TIP3   OH248202   1.346   4.432  15.785  0.1506  0.6850 -0.4613
 8904TIP3    H148203   1.275   4.371  15.765 -0.6830  2.0441 -1.8373
 8904TIP3    H248204   1.354   4.486  15.706  1.8899  1.3691  0.1346
 8905TIP3   OH248205   1.786   4.467   4.221 -0.4274 -0.0558  0.0724
 8905TIP3    H148206   1.777   4.430   4.308  0.9417 -1.3227 -0.2891
 8905TIP3    H248207   1.735   4.409   4.164 -0.2757  0.0234 -0.1490
 8906TIP3   OH248208   3.594   6.052  16.393 -0.5986 -0.7154  0.0060
 8906TIP3    H148209   3.577   6.087  16.480 -0.9428 -1.6947  0.3468
 8906TIP3    H248210   3.665   6.106  16.359  0.2900 -0.9916  1.3199
 8907TIP3   OH248211   4.317   4.762   3.273  0.1506  0.2079 -0.4162
 8907TIP3    H148212   4.262   4.812   3.334  1.5516  0.7296  0.4671
 8907TIP3    H248213   4.301   4.803   3.188  1.6260  2.5939  0.3372
 8908TIP3   OH248214   2.579   1.760  12.672 -0.1127  0.0938  0.6306
 8908TIP3    H148215   2.602   1.687  12.730 -0.3045 -1.6199 -1.3546
 8908TIP3    H248216   2.663   1.795  12.644 -0.0121  0.1106  0.9486
 8909TIP3   OH248217   2.400   1.968   5.328 -0.5765 -0.2720 -0.7829
 8909TIP3    H148218   2.317   1.919   5.325 -0.8840  0.0850  1.0695
 8909TIP3    H248219   2.390   2.035   5.261 -2.6608  1.0377  0.7199
 8910TIP3   OH248220   0.301   2.770  10.845 -0.2433  0.1058 -0.6776
 8910TIP3    H148221   0.290   2.770  10.750 -0.3096  0.7341 -0.6715
 8910TIP3    H248222   0.339   2.855  10.865 -0.9920  0.2976 -0.0549
 8911TIP3   OH248223   4.966   6.523   1.555  1.1524  0.0767  0.0637
 8911TIP3    H148224   4.933   6.492   1.471  2.4552 -1.6819  0.1563
 8911TIP3    H248225   5.005   6.608   1.536  0.4221  0.2237 -0.8647
 8912TIP3   OH248226   6.100   0.060   5.618 -0.4264  0.2554 -0.1352
 8912TIP3    H148227   6.154   0.049   5.697  0.2619 -0.8730 -0.7335
 8912TIP3    H248228   6.128  -0.010   5.560  0.1604  1.9348 -2.0131
 8913TIP3   OH248229   5.751   2.455  10.898  0.3400  0.4383 -0.0199
 8913TIP3    H148230   5.736   2.429  10.989  0.3442  2.0452  0.4707
 8913TIP3    H248231   5.664   2.452  10.858  0.1314  0.9784  0.3858
 8914TIP3   OH248232   1.822   4.778  13.282  0.0662  0.2654  0.4912
 8914TIP3    H148233   1.797   4.863  13.247 -0.0808  0.1537  0.3167
 8914TIP3    H248234   1.761   4.762  13.353 -1.5275 -0.7705 -1.0219
 8915TIP3   OH248235   0.087   3.970  13.754  0.0573 -0.6222 -0.3500
 8915TIP3    H148236   0.043   4.050  13.781  0.0538 -0.5840 -0.4693
 8915TIP3    H248237   0.054   3.903  13.814 -0.9735 -0.8134 -1.0927
 8916TIP3   OH248238   5.953   6.494  13.856  0.3781 -0.1678 -0.3282
 8916TIP3    H148239   5.905   6.549  13.919 -0.7602  0.7859 -1.9603
 8916TIP3    H248240   5.947   6.541  13.773  1.7638 -1.4339 -1.2064
 8917TIP3   OH248241   5.907   2.548   3.690  0.6814  0.6739  0.4131
 8917TIP3    H148242   5.916   2.625   3.633 -0.5550  1.9638  1.8777
 8917TIP3    H248243   5.951   2.478   3.642  2.0637  2.3326 -0.8822
 8918TIP3   OH248244   1.559   4.600   5.288  0.1705 -0.0285  0.3530
 8918TIP3    H148245   1.609   4.668   5.243  0.8634 -1.2040 -0.7041
 8918TIP3    H248246   1.609   4.584   5.368  1.1208 -0.6731 -0.3457
 8919TIP3   OH248247   2.450   0.316  11.878  0.3059 -0.2105  0.1040
 8919TIP3    H148248   2.399   0.236  11.866 -0.2629  0.0030  0.9736
 8919TIP3    H248249   2.537   0.286  11.905 -0.0412 -0.5344  0.8916
 8920TIP3   OH248250   5.301   0.636  11.430  0.1330 -0.2265  0.4292
 8920TIP3    H148251   5.238   0.707  11.442  0.4118  0.0906  0.0609
 8920TIP3    H248252   5.387   0.679  11.432  0.3281 -0.6137  0.6446
 8921TIP3   OH248253   5.039   2.427  14.487  0.1513  0.3561 -0.0527
 8921TIP3    H148254   4.994   2.511  14.497 -2.1593 -0.4249 -2.5277
 8921TIP3    H248255   5.086   2.435  14.404  0.8650 -0.4123  0.2700
 8922TIP3   OH248256   4.350   5.850   2.611  0.0592  0.4722 -0.2495
 8922TIP3    H148257   4.335   5.911   2.539 -0.4818  0.8635  0.1826
 8922TIP3    H248258   4.282   5.784   2.600  1.4001 -0.7742 -1.4447
 8923TIP3   OH248259   4.440   6.136   4.891 -0.1198  0.0346 -0.0021
 8923TIP3    H148260   4.413   6.045   4.906 -0.3386 -0.3161 -2.1559
 8923TIP3    H248261   4.363   6.188   4.914 -0.2813 -0.3975  0.4388
 8924TIP3   OH248262   4.856   4.501  16.877 -0.4881 -0.7312 -0.0673
 8924TIP3    H148263   4.808   4.567  16.828  0.2743 -0.0022  0.1510
 8924TIP3    H248264   4.899   4.447  16.810  1.8078  1.1919 -0.2635
 8925TIP3   OH248265   6.133   0.535  11.931 -0.0840 -0.1719  0.6709
 8925TIP3    H148266   6.047   0.558  11.967 -1.1042 -0.3275 -1.4844
 8925TIP3    H248267   6.188   0.611  11.950 -1.4679  1.1301 -0.2246
 8926TIP3   OH248268   0.083   0.945   5.053 -0.0767  0.4333  0.1611
 8926TIP3    H148269  -0.006   0.980   5.062  0.6527  2.8752 -1.2313
 8926TIP3    H248270   0.089   0.917   4.962  0.2266 -0.9597  0.5771
 8927TIP3   OH248271   1.300   6.314   2.503 -0.5850 -0.5975 -0.0228
 8927TIP3    H148272   1.227   6.341   2.559 -1.0728 -0.2078 -0.8370
 8927TIP3    H248273   1.318   6.391   2.449  1.2661 -0.2340  1.0094
 8928TIP3   OH248274   2.273   0.647  16.916  0.2632  0.0713  0.3313
 8928TIP3    H148275   2.322   0.566  16.926  1.4684  0.4092 -2.1346
 8928TIP3    H248276   2.204   0.626  16.853 -0.8596  0.4218  1.3972
 8929TIP3   OH248277   0.438   2.065  14.402 -0.5310 -1.1370 -0.0275
 8929TIP3    H148278   0.374   2.056  14.472 -0.3309  0.1861  0.3517
 8929TIP3    H248279   0.474   2.153  14.414  2.0877 -2.1868  0.3780
 8930TIP3   OH248280   0.203   3.073  10.719 -0.0493 -0.0645 -0.2948
 8930TIP3    H148281   0.126   3.127  10.703 -0.3576 -0.9538 -2.0846
 8930TIP3    H248282   0.189   2.994  10.666  2.5918  0.2375 -1.6426
 8931TIP3   OH248283   4.846   0.431  10.532 -0.3775  0.2554  0.3694
 8931TIP3    H148284   4.868   0.521  10.508 -2.7474  0.9319  0.5308
 8931TIP3    H248285   4.851   0.382  10.450  2.9407 -0.0110  0.5898
 8932TIP3   OH248286   6.287   3.207   4.433 -0.4657  0.0340  0.2802
 8932TIP3    H148287   6.219   3.182   4.497 -0.2217 -0.7591  0.2426
 8932TIP3    H248288   6.359   3.240   4.487 -0.7810  0.6598  0.3329
 8933TIP3   OH248289   5.201   1.648   4.072 -0.4750  0.7467 -0.0984
 8933TIP3    H148290   5.108   1.664   4.088 -1.0889 -1.6329 -0.7935
 8933TIP3    H248291   5.218   1.564   4.115  0.8254  0.1636 -1.6665
 8934TIP3   OH248292   5.986   4.383  12.680 -0.0458 -0.4411  0.0105
 8934TIP3    H148293   5.913   4.391  12.619 -0.0449 -2.4108 -0.3255
 8934TIP3    H248294   5.945   4.383  12.766 -0.2013  0.7200 -0.0495
 8935TIP3   OH248295   2.194   1.071  11.900  0.4026  0.4270  0.1334
 8935TIP3    H148296   2.117   1.057  11.845  1.2183  0.6923 -1.0998
 8935TIP3    H248297   2.244   1.139  11.855  2.6073 -1.4586 -0.4482
 8936TIP3   OH248298   3.904   4.159   2.553  0.1839  0.8689  0.5916
 8936TIP3    H148299   3.862   4.086   2.599 -0.7673  0.8452 -0.2872
 8936TIP3    H248300   3.859   4.237   2.583 -1.0215  0.7821 -0.8735
 8937TIP3   OH248301   1.750   0.426  16.853  0.0328 -0.0483  0.0248
 8937TIP3    H148302   1.693   0.360  16.893 -0.0949  0.0221 -0.0384
 8937TIP3    H248303   1.812   0.449  16.922  0.5773 -0.8069 -0.2048
 8938TIP3   OH248304   3.946   4.822   1.841 -0.2004  0.4393  0.2737
 8938TIP3    H148305   3.991   4.744   1.807 -0.4636  0.5270 -0.2733
 8938TIP3    H248306   3.959   4.889   1.774 -0.8095  0.5837  0.2939
 8939TIP3   OH248307   2.992   6.800   2.791  0.7430 -0.1197  0.0656
 8939TIP3    H148308   2.944   6.729   2.833 -1.6885  0.9457 -0.7489
 8939TIP3    H248309   3.044   6.757   2.723 -1.2076 -1.1028 -0.8672
 8940TIP3   OH248310   6.813   2.276  15.940 -0.0131  0.1425 -0.5140
 8940TIP3    H148311   6.845   2.197  15.984 -1.2368 -0.4479 -0.6549
 8940TIP3    H248312   6.886   2.338  15.948  0.8383 -0.8679 -0.0880
 8941TIP3   OH248313   2.337   3.240  12.009  0.3020  0.0595 -0.0803
 8941TIP3    H148314   2.409   3.199  12.056 -0.7733 -2.1956 -0.2402
 8941TIP3    H248315   2.338   3.331  12.038  2.6160 -0.1184  0.5980
 8942TIP3   OH248316   3.008   5.262   0.771  0.7834  0.1681  0.2286
 8942TIP3    H148317   3.024   5.300   0.685  1.5818  0.1131  0.3500
 8942TIP3    H248318   3.028   5.332   0.832 -0.7267  0.5273  0.3546
 8943TIP3   OH248319   1.606   3.398  13.280 -0.2948  1.0046 -0.5747
 8943TIP3    H148320   1.674   3.428  13.340 -1.4472  1.7893  0.3805
 8943TIP3    H248321   1.602   3.466  13.212 -0.5778  1.3014 -0.2644
 8944TIP3   OH248322   4.726   2.407   5.445  0.1878  0.5747  0.2538
 8944TIP3    H148323   4.705   2.329   5.496 -0.8568 -0.6792 -1.9378
 8944TIP3    H248324   4.742   2.475   5.510 -1.8106 -0.7232  2.2267
 8945TIP3   OH248325   1.076   0.099  10.577  0.2555  0.0983  0.2524
 8945TIP3    H148326   1.129   0.031  10.617 -1.1189 -0.9588  0.3629
 8945TIP3    H248327   1.138   0.167  10.552  1.4952 -0.5484  1.4548
 8946TIP3   OH248328   1.323   4.774  12.243 -0.4439 -0.4075 -0.1696
 8946TIP3    H148329   1.392   4.758  12.307  0.8655  2.5798 -0.6970
 8946TIP3    H248330   1.265   4.838  12.284 -0.7491 -0.0152 -1.1632
 8947TIP3   OH248331   4.753   6.023  13.671  0.0362  0.4952  0.2251
 8947TIP3    H148332   4.827   5.997  13.616  0.6141 -0.7603  1.5316
 8947TIP3    H248333   4.684   5.959  13.652 -0.7993  1.7249 -1.0696
 8948TIP3   OH248334   5.916   3.954  11.892  0.0041  0.5231 -0.2640
 8948TIP3    H148335   5.932   3.992  11.978 -0.7163  1.9163 -0.7093
 8948TIP3    H248336   5.839   4.001  11.859 -2.7181 -3.0868  0.1857
 8949TIP3   OH248337   6.166   6.554  15.104  0.9622 -0.3650 -0.1621
 8949TIP3    H148338   6.079   6.526  15.133  1.1218  1.3286  2.2971
 8949TIP3    H248339   6.226   6.500  15.155  1.2697  0.7268  0.6955
 8950TIP3   OH248340   4.841   0.142   5.053 -0.5046 -0.4455 -0.0200
 8950TIP3    H148341   4.809   0.202   5.121 -0.8470  0.1774 -0.7146
 8950TIP3    H248342   4.779   0.069   5.054  0.8545 -1.6750  1.9876
 8951TIP3   OH248343   4.857   6.584  15.127  0.5482 -0.1905  0.4263
 8951TIP3    H148344   4.799   6.519  15.166 -1.1721 -0.1681 -1.9164
 8951TIP3    H248345   4.801   6.635  15.069  3.1304 -1.3198 -3.4178
 8952TIP3   OH248346   4.337   2.057  12.513  0.5156 -0.2027  0.0981
 8952TIP3    H148347   4.353   2.151  12.506 -0.6694  0.1497  1.4493
 8952TIP3    H248348   4.242   2.049  12.509  0.5833 -1.3060  0.3675
 8953TIP3   OH248349   2.998   0.487  10.619  0.3619 -0.0687  0.2755
 8953TIP3    H148350   3.072   0.425  10.623  0.0447 -0.4452  0.4276
 8953TIP3    H248351   2.987   0.517  10.709  0.3611  0.0275  0.2438
 8954TIP3   OH248352   5.292   5.006  15.296 -0.6609  0.1762  0.3272
 8954TIP3    H148353   5.275   5.036  15.207  1.1887 -0.1725 -0.1754
 8954TIP3    H248354   5.385   4.986  15.298 -0.9781 -1.4224  1.8663
 8955TIP3   OH248355   1.616   4.728   0.673  0.1690 -0.1281  0.0659
 8955TIP3    H148356   1.579   4.664   0.734  0.2799  0.1451  0.4213
 8955TIP3    H248357   1.711   4.717   0.682  0.1869 -0.6543 -0.6620
 8956TIP3   OH248358   0.073   0.735  13.562 -0.1344 -1.0216  0.3472
 8956TIP3    H148359   0.082   0.744  13.657 -0.9274 -0.1113  0.3518
 8956TIP3    H248360   0.023   0.654  13.551 -1.3210 -0.3879  0.8024
 8957TIP3   OH248361   2.364   2.062  16.287 -0.1754 -0.4499 -0.3402
 8957TIP3    H148362   2.275   2.098  16.285  0.2839  0.8548  0.7891
 8957TIP3    H248363   2.354   1.972  16.257 -1.7170 -0.0235 -1.2258
 8958TIP3   OH248364   5.957   5.830   4.034 -0.3924 -0.6106 -0.6889
 8958TIP3    H148365   5.949   5.831   3.939  1.9767  0.6095 -0.9467
 8958TIP3    H248366   5.906   5.905   4.064  0.6368  0.3447 -1.2447
 8959TIP3   OH248367   2.030   5.043  13.960 -0.3085  0.2342  0.2660
 8959TIP3    H148368   2.018   5.051  14.055 -1.4396 -0.0824  0.1725
 8959TIP3    H248369   2.080   5.120  13.935 -0.7787  0.7903  0.9957
 8960TIP3   OH248370   6.000   5.220   0.505 -0.0881 -0.0179 -0.0568
 8960TIP3    H148371   6.010   5.231   0.410 -1.1441 -0.6312 -0.2576
 8960TIP3    H248372   6.062   5.282   0.543 -0.2381  0.8328 -1.1490
 8961TIP3   OH248373   4.310   3.473  16.744 -0.1735  0.1271 -0.1785
 8961TIP3    H148374   4.384   3.527  16.716  2.2764 -1.3541  2.7203
 8961TIP3    H248375   4.303   3.489  16.839 -2.2364 -1.3446 -0.0026
 8962TIP3   OH248376   6.275   0.660  14.592  0.3320 -0.4135 -0.2179
 8962TIP3    H148377   6.346   0.600  14.615 -0.1646 -0.9209  0.0385
 8962TIP3    H248378   6.314   0.721  14.530  0.8506 -1.0255 -0.5138
 8963TIP3   OH248379   2.704   0.577  15.772 -0.4870 -0.6620 -0.4592
 8963TIP3    H148380   2.795   0.604  15.758 -1.8950  4.3196 -2.1159
 8963TIP3    H248381   2.694   0.578  15.867  0.6981  0.9660 -0.3035
 8964TIP3   OH248382   2.824   5.463   2.967 -0.0594  0.1093 -0.1622
 8964TIP3    H148383   2.785   5.419   2.892  1.2050 -0.8651 -0.2885
 8964TIP3    H248384   2.883   5.528   2.929  0.1240  0.0387  0.0032
 8965TIP3   OH248385   1.516   0.674   4.666  0.6137  0.5418 -0.2914
 8965TIP3    H148386   1.461   0.635   4.734  0.9057 -1.9251 -1.3851
 8965TIP3    H248387   1.535   0.762   4.699  0.5777 -0.4594  2.7118
 8966TIP3   OH248388   0.161   5.546  12.168 -0.1462 -0.2399 -0.4153
 8966TIP3    H148389   0.105   5.589  12.102  0.7160  0.1875 -0.8962
 8966TIP3    H248390   0.192   5.467  12.125  1.3608  0.6228 -1.0038
 8967TIP3   OH248391   0.957   5.303  13.258  0.0394 -0.1262  0.0371
 8967TIP3    H148392   1.038   5.273  13.218 -0.0971 -0.7039  0.1808
 8967TIP3    H248393   0.985   5.371  13.319  0.2666  0.6120 -0.8790
 8968TIP3   OH248394   5.705   1.068   6.371  0.5523 -0.3181 -0.4853
 8968TIP3    H148395   5.758   0.989   6.360  0.9460  0.0832 -1.5701
 8968TIP3    H248396   5.759   1.138   6.335  0.1146  0.4176  0.2641
 8969TIP3   OH248397   1.804   3.119   3.250  0.5195 -1.0673 -0.3617
 8969TIP3    H148398   1.792   3.185   3.182  2.7515 -2.6060 -2.4350
 8969TIP3    H248399   1.716   3.102   3.283 -0.4799  0.6921 -1.9189
 8970TIP3   OH248400   3.807   4.434  17.229 -0.7032  0.3703  0.0573
 8970TIP3    H148401   3.899   4.442  17.254 -0.9144  1.2418  0.5874
 8970TIP3    H248402   3.761   4.415  17.311 -0.9826 -0.2175 -0.2283
 8971TIP3   OH248403   1.541   5.119  15.522 -0.5592  0.2047  0.0711
 8971TIP3    H148404   1.527   5.148  15.612 -1.2710  1.1280 -0.3199
 8971TIP3    H248405   1.589   5.036  15.530 -1.6711 -0.3555  1.3364
 8972TIP3   OH248406   2.150   4.499  13.823 -0.3337 -0.3126 -0.1539
 8972TIP3    H148407   2.072   4.500  13.768 -0.4835  1.3139  0.0504
 8972TIP3    H248408   2.117   4.510  13.912  0.0352 -1.1551  0.0991
 8973TIP3   OH248409   1.858   2.575   5.022  1.2211 -0.0130 -0.6950
 8973TIP3    H148410   1.786   2.582   4.960  0.3062  1.3253  0.4778
 8973TIP3    H248411   1.847   2.649   5.082  3.1214 -0.2131 -0.0111
 8974TIP3   OH248412   2.093   4.629   4.868 -0.1640 -0.6905 -0.5583
 8974TIP3    H148413   2.178   4.645   4.910 -0.6132  1.1228 -0.2447
 8974TIP3    H248414   2.046   4.712   4.877 -2.7496 -2.1978  0.9937
 8975TIP3   OH248415   6.147   3.886  13.189 -0.0120  0.1575 -0.4170
 8975TIP3    H148416   6.219   3.948  13.176 -0.3574  0.4378 -1.0714
 8975TIP3    H248417   6.099   3.888  13.106  1.0111 -2.3594 -1.1731
 8976TIP3   OH248418   5.540   5.972  16.655  0.4319 -0.4307 -0.0509
 8976TIP3    H148419   5.618   5.939  16.700  0.2660  0.2098  0.7212
 8976TIP3    H248420   5.575   6.019  16.579  0.8506  0.4096  0.6441
 8977TIP3   OH248421   3.507   1.184   3.017 -0.5296  0.1108 -0.5177
 8977TIP3    H148422   3.561   1.225   2.950 -0.8428  1.9499  0.2771
 8977TIP3    H248423   3.535   1.226   3.099 -2.3181  0.2742  0.0661
 8978TIP3   OH248424   6.002   4.732  17.276  0.1024 -0.5563  0.6967
 8978TIP3    H148425   5.946   4.661  17.306  0.2672 -0.7974  0.4303
 8978TIP3    H248426   6.045   4.698  17.198  0.9866 -0.5439  1.1682
 8979TIP3   OH248427   2.940   0.778   5.052  0.3619  0.1452 -0.1710
 8979TIP3    H148428   3.026   0.735   5.048 -0.4586 -1.6400  0.2295
 8979TIP3    H248429   2.960   0.871   5.054  2.2308 -0.1539 -1.7022
 8980TIP3   OH248430   1.683   4.937  15.078  0.1694 -0.4395 -0.0380
 8980TIP3    H148431   1.716   4.883  15.006  3.0946 -0.2774  1.0109
 8980TIP3    H248432   1.671   4.876  15.151  1.3834 -0.0511  0.5196
 8981TIP3   OH248433   1.262   1.254  12.297 -0.1726  0.2541  0.0020
 8981TIP3    H148434   1.217   1.196  12.236  0.5126 -1.5244  1.1066
 8981TIP3    H248435   1.285   1.331  12.245  0.2496 -1.1197 -1.9591
 8982TIP3   OH248436   3.212   6.258  13.576 -0.4159  0.5722  0.0368
 8982TIP3    H148437   3.271   6.185  13.559  0.6620  0.8084  2.3302
 8982TIP3    H248438   3.249   6.332  13.528 -1.1505 -0.1865 -1.7660
 8983TIP3   OH248439   6.413   3.169   6.167  0.1133  0.0248  0.9604
 8983TIP3    H148440   6.507   3.167   6.187  0.4173 -0.9670 -0.4096
 8983TIP3    H248441   6.383   3.080   6.188  0.3219 -0.8868 -2.1415
 8984TIP3   OH248442   6.679   4.931   0.730  0.5559 -0.2171  0.4329
 8984TIP3    H148443   6.640   4.985   0.661 -0.0410  2.5177  2.7376
 8984TIP3    H248444   6.610   4.869   0.752  0.6258 -0.9009 -1.1047
 8985TIP3   OH248445   4.402   4.308  11.855  0.4407 -0.0530  0.2443
 8985TIP3    H148446   4.413   4.273  11.944  1.1772 -0.6443 -0.0787
 8985TIP3    H248447   4.311   4.287  11.833  0.4809 -0.6041  0.5669
 8986TIP3   OH248448   4.334   3.821  11.645  0.0889 -0.0214 -0.2830
 8986TIP3    H148449   4.383   3.780  11.574  0.6867 -1.5494  0.9520
 8986TIP3    H248450   4.363   3.912  11.645  1.4378 -0.4305 -0.8500
 8987TIP3   OH248451   6.547   5.840  13.875  0.1043 -0.6112  0.2786
 8987TIP3    H148452   6.459   5.866  13.904 -0.1564  0.7446 -1.5561
 8987TIP3    H248453   6.589   5.805  13.954 -0.9448  1.7339  1.9876
 8988TIP3   OH248454   4.307   0.530  12.048  0.2922  0.9982  0.0397
 8988TIP3    H148455   4.283   0.483  12.128 -2.6062  1.5616 -0.3693
 8988TIP3    H248456   4.318   0.621  12.076 -0.2401  1.1099 -0.0981
 8989TIP3   OH248457   1.528   2.129  16.933 -0.0794 -0.0816  0.5947
 8989TIP3    H148458   1.612   2.154  16.896  0.2530  0.2198  1.5330
 8989TIP3    H248459   1.489   2.071  16.867 -0.4362  2.0434 -1.1754
 8990TIP3   OH248460   4.847   5.294   2.225  0.6743 -0.2838  0.4073
 8990TIP3    H148461   4.775   5.351   2.250  2.4872  3.3383 -1.8594
 8990TIP3    H248462   4.914   5.307   2.292  0.4678 -1.1862  0.8110
 8991TIP3   OH248463   0.504   1.085  15.505  0.1731  0.6109  0.1714
 8991TIP3    H148464   0.497   1.180  15.499  0.3083  0.6710  0.8046
 8991TIP3    H248465   0.598   1.067  15.503  0.1796  0.5500  0.6603
 8992TIP3   OH248466   0.475   4.575  15.146  0.3848  0.0158  0.0173
 8992TIP3    H148467   0.402   4.625  15.184  0.2825 -0.4335  0.4119
 8992TIP3    H248468   0.551   4.632  15.158  0.1528  0.3677 -0.1427
 8993TIP3   OH248469   6.525   0.039  16.438  0.2356  0.4799 -0.6584
 8993TIP3    H148470   6.479   0.018  16.520  2.4148 -0.3847  0.4538
 8993TIP3    H248471   6.477   0.112  16.401 -1.0683  0.6459  1.2172
 8994TIP3   OH248472   0.204   6.228   4.122  0.2634  0.0201  0.2449
 8994TIP3    H148473   0.141   6.170   4.165 -0.0998  1.8863  2.4292
 8994TIP3    H248474   0.185   6.219   4.029 -1.5160 -1.3625  0.6838
 8995TIP3   OH248475   6.715   0.548   0.285  0.6830  0.3048 -0.1758
 8995TIP3    H148476   6.783   0.602   0.325  1.5012 -0.4592 -0.5016
 8995TIP3    H248477   6.674   0.604   0.220 -0.1034  1.3018  1.1211
 8996TIP3   OH248478   6.405   2.845   2.339  0.6347 -0.1331 -0.1639
 8996TIP3    H148479   6.421   2.838   2.433  0.3122 -0.6076 -0.1408
 8996TIP3    H248480   6.386   2.938   2.325  0.8738 -0.0250  0.2062
 8997TIP3   OH248481   4.783   3.121   3.044 -0.7024  0.3114  0.5411
 8997TIP3    H148482   4.864   3.121   3.094 -0.3289 -0.9014 -0.0153
 8997TIP3    H248483   4.803   3.067   2.967 -2.0238  0.0313  0.3764
 8998TIP3   OH248484   6.387   2.581   1.050  0.2540  0.1174  0.2837
 8998TIP3    H148485   6.429   2.553   0.968  0.9991  0.0292  0.6847
 8998TIP3    H248486   6.361   2.500   1.093 -1.1332  0.1993 -0.3615
 8999TIP3   OH248487   6.486   6.097  14.299 -0.2435 -0.1390 -0.4373
 8999TIP3    H148488   6.509   6.179  14.257 -1.8241 -0.3968 -1.9216
 8999TIP3    H248489   6.428   6.122  14.371  0.8936  0.1663  0.3902
 9000TIP3   OH248490   2.477   3.126   0.811 -0.1638 -0.3326  0.5375
 9000TIP3    H148491   2.460   3.148   0.903 -1.4124  0.2581  0.1833
 9000TIP3    H248492   2.529   3.200   0.778 -0.2927 -0.2141  0.5975
 9001TIP3   OH248493   2.941   5.861  15.431 -0.4633 -0.6956 -0.3940
 9001TIP3    H148494   2.908   5.951  15.421 -0.8102 -0.6766  0.7097
 9001TIP3    H248495   2.874   5.818  15.484  0.8785 -0.8858  1.2216
 9002TIP3   OH248496   3.983   3.538  12.489 -0.3785  0.0613 -0.4385
 9002TIP3    H148497   4.032   3.541  12.571 -0.2676 -2.1621 -0.3376
 9002TIP3    H248498   3.892   3.550  12.515 -0.1264  2.1276 -0.3737
 9003TIP3   OH248499   5.863   0.910  16.544  0.0128 -0.0932 -0.4855
 9003TIP3    H148500   5.870   0.822  16.507  1.8913  1.1705 -3.5043
 9003TIP3    H248501   5.779   0.943  16.515 -0.8623 -0.9392  0.9636
 9004TIP3   OH248502   0.749   0.094   4.612  0.1960 -0.1502 -0.1425
 9004TIP3    H148503   0.751   0.118   4.520  1.8610  0.1113 -0.0773
 9004TIP3    H248504   0.751   0.178   4.659 -1.2317 -0.2583  0.1600
 9005TIP3   OH248505   4.568   6.667  16.113  0.0414  0.1689 -0.4523
 9005TIP3    H148506   4.661   6.669  16.133  0.5106  0.4607 -2.4565
 9005TIP3    H248507   4.541   6.577  16.131  0.0222  0.6675  2.6740
 9006TIP3   OH248508   4.252   3.581  13.035 -0.7654  0.0767  0.9374
 9006TIP3    H148509   4.309   3.519  12.989 -1.8289 -0.3501  0.1420
 9006TIP3    H248510   4.299   3.603  13.115  1.7077  1.6934 -0.7962
 9007TIP3   OH248511   0.170   4.377   5.223 -0.6374  0.0984  0.0983
 9007TIP3    H148512   0.218   4.453   5.191 -0.7070  0.2227  0.2885
 9007TIP3    H248513   0.204   4.304   5.171 -2.5948  0.6575 -2.1307
 9008TIP3   OH248514   0.932   5.344  11.497  0.0465 -0.5342  0.1210
 9008TIP3    H148515   0.979   5.312  11.420 -0.4279  0.8177 -0.7611
 9008TIP3    H248516   0.997   5.398  11.544  0.2702 -1.1788  0.5641
 9009TIP3   OH248517   4.393   0.145   2.068  0.0972  0.0478 -0.3976
 9009TIP3    H148518   4.382   0.052   2.048  0.7944  0.0190 -0.6982
 9009TIP3    H248519   4.317   0.168   2.121 -0.7803 -0.3702 -1.4419
 9010TIP3   OH248520   6.191   5.333  15.415  0.3410  0.0239  0.0773
 9010TIP3    H148521   6.188   5.429  15.420 -1.2653  0.0164 -0.2562
 9010TIP3    H248522   6.220   5.315  15.326  2.0803  0.1613  0.5692
 9011TIP3   OH248523   3.700   1.510  14.520  0.4658  0.6487 -0.2388
 9011TIP3    H148524   3.779   1.459  14.504  0.2035  0.1660 -0.0204
 9011TIP3    H248525   3.721   1.598  14.488  1.1210  0.5515 -0.0916
 9012TIP3   OH248526   0.943   4.653  15.541 -0.5533  0.2729 -0.0587
 9012TIP3    H148527   0.868   4.610  15.502  0.4036 -0.9313 -0.6488
 9012TIP3    H248528   0.918   4.669  15.632 -0.5111 -2.7873  0.5789
 9013TIP3   OH248529   3.763   4.757   2.324  0.1634  0.1506 -0.1095
 9013TIP3    H148530   3.827   4.790   2.262  1.1519 -1.1619  0.1560
 9013TIP3    H248531   3.757   4.824   2.391  0.8451  0.5396 -0.4282
 9014TIP3   OH248532   0.921   4.485  15.937  0.6289 -0.3240  0.6919
 9014TIP3    H148533   1.008   4.509  15.905  0.1247  0.7205  0.0283
 9014TIP3    H248534   0.861   4.513  15.868 -0.1684 -2.0691  0.6279
 9015TIP3   OH248535   2.759   4.344  17.201  0.4486  0.3917 -0.6563
 9015TIP3    H148536   2.776   4.305  17.116  3.1334 -0.1324  0.0244
 9015TIP3    H248537   2.712   4.276  17.250  0.3579  0.0727 -1.1884
 9016TIP3   OH248538   2.655   1.485   4.229  0.1450  0.3552 -0.3290
 9016TIP3    H148539   2.633   1.574   4.202 -0.4291  1.2850  2.7116
 9016TIP3    H248540   2.574   1.436   4.218 -0.5642  1.1295  1.0774
 9017TIP3   OH248541   0.715   3.256   1.518  0.2029  0.7526  0.0199
 9017TIP3    H148542   0.698   3.169   1.481  1.3750  0.6163 -0.2571
 9017TIP3    H248543   0.673   3.255   1.603  1.5744 -0.7095  0.7328
 9018TIP3   OH248544   5.410   0.228  12.614 -0.3658 -0.0624 -0.5153
 9018TIP3    H148545   5.420   0.276  12.697 -0.6152 -0.7730 -0.0640
 9018TIP3    H248546   5.499   0.211  12.586 -0.2674  0.8770 -0.8132
 9019TIP3   OH248547   5.003   5.238  12.466 -0.3437  0.1974  0.0177
 9019TIP3    H148548   4.974   5.254  12.555 -1.1062 -0.8554 -0.0131
 9019TIP3    H248549   4.997   5.323  12.423 -1.6085  0.3922  0.5313
 9020TIP3   OH248550   6.258   1.353  17.013 -0.2334 -0.2422 -0.4971
 9020TIP3    H148551   6.293   1.273  17.051  2.0090  1.3528  1.0478
 9020TIP3    H248552   6.219   1.400  17.086  2.1957  1.8848 -0.4285
 9021TIP3   OH248553   1.931   1.708  16.485  0.2514 -0.4417 -0.6829
 9021TIP3    H148554   1.842   1.720  16.519 -0.2664 -1.6951 -1.5193
 9021TIP3    H248555   1.920   1.652  16.408  1.3523  2.5775 -3.2293
 9022TIP3   OH248556   1.995   3.178   2.324  0.0906  0.4099  0.0216
 9022TIP3    H148557   1.964   3.203   2.411  2.2408  2.6446  0.2617
 9022TIP3    H248558   2.089   3.170   2.334  0.2105 -0.8869 -1.7866
 9023TIP3   OH248559   5.295   2.506   5.059  0.2291 -0.2159 -0.1678
 9023TIP3    H148560   5.324   2.595   5.040 -0.3949 -0.2719 -1.4661
 9023TIP3    H248561   5.247   2.513   5.141  2.5230  0.1446  1.2316
 9024TIP3   OH248562   0.234   2.886   2.929 -0.6766  0.2339 -0.2412
 9024TIP3    H148563   0.276   2.957   2.978  0.5101 -1.2282  0.9416
 9024TIP3    H248564   0.208   2.823   2.995 -3.0344  0.1793 -1.1453
 9025TIP3   OH248565   5.791   3.267   0.206 -0.1500 -0.4935  0.1226
 9025TIP3    H148566   5.787   3.362   0.199  2.2423 -0.4307 -1.6165
 9025TIP3    H248567   5.840   3.251   0.287 -0.6917 -0.2709  0.4998
 9026TIP3   OH248568   6.720   3.014  16.502  0.0518 -0.1495  0.2921
 9026TIP3    H148569   6.753   2.928  16.528  1.8020  0.5223  0.4561
 9026TIP3    H248570   6.669   2.998  16.423  0.6825 -1.2990  0.0979
 9027TIP3   OH248571   6.358   4.713  16.454  0.2117 -0.2542  0.4165
 9027TIP3    H148572   6.334   4.803  16.479  2.1795  0.5575 -0.4456
 9027TIP3    H248573   6.350   4.712  16.359  1.4148 -0.6105  0.3090
 9028TIP3   OH248574   0.755   5.520   3.938 -0.4630 -0.3232  0.8863
 9028TIP3    H148575   0.820   5.520   3.868 -1.3279 -0.4160  0.0594
 9028TIP3    H248576   0.680   5.473   3.901 -1.0010 -0.2148  1.8144
 9029TIP3   OH248577   1.053   1.888  12.802 -0.1038  0.4302  0.1229
 9029TIP3    H148578   1.004   1.968  12.782  0.0870  0.8031  1.0913
 9029TIP3    H248579   1.145   1.914  12.797 -0.0453  0.3272  0.6603
 9030TIP3   OH248580   2.785   4.465   5.137 -0.2075 -0.0470  0.1320
 9030TIP3    H148581   2.813   4.391   5.191 -0.8593 -0.7800 -0.5119
 9030TIP3    H248582   2.690   4.457   5.134 -0.1070 -0.9574 -2.3932
 9031TIP3   OH248583   2.394   0.593  17.184  0.1686  0.1562  0.0094
 9031TIP3    H148584   2.370   0.506  17.153 -2.3291  0.7558 -0.0012
 9031TIP3    H248585   2.342   0.653  17.129 -2.0607  1.3848  3.1921
 9032TIP3   OH248586   0.412   1.893  15.409 -0.1337 -0.1262  0.0373
 9032TIP3    H148587   0.440   1.927  15.323  1.7845  1.9180  1.3307
 9032TIP3    H248588   0.393   1.972  15.460 -3.7293 -1.3474  0.8279
 9033TIP3   OH248589   4.898   5.052  13.916 -0.1433  0.0209  0.8417
 9033TIP3    H148590   4.896   4.983  13.849 -2.0054  0.3438  0.5091
 9033TIP3    H248591   4.894   5.134  13.866  0.4159  0.3314  1.2955
 9034TIP3   OH248592   4.070   3.439   0.653 -0.3524 -0.2231 -0.2366
 9034TIP3    H148593   3.993   3.389   0.627  0.0411  0.5562 -3.1967
 9034TIP3    H248594   4.047   3.476   0.738 -2.2469 -1.9872  0.0995
 9035TIP3   OH248595   1.701   3.231   0.215  0.1187 -0.4431 -0.3954
 9035TIP3    H148596   1.740   3.195   0.294 -0.3977  1.1181  0.6220
 9035TIP3    H248597   1.703   3.159   0.152 -0.5264 -2.1127  1.3887
 9036TIP3   OH248598   1.484   6.583   2.217 -0.3216  0.0985 -0.8194
 9036TIP3    H148599   1.578   6.578   2.229  0.0908  2.4460 -2.3826
 9036TIP3    H248600   1.471   6.577   2.123 -1.8332 -0.9395 -0.5796
 9037TIP3   OH248601   3.683   1.521   0.652  0.3736 -0.3798 -0.7383
 9037TIP3    H148602   3.656   1.559   0.568  1.4628  1.5051 -0.2951
 9037TIP3    H248603   3.658   1.587   0.717 -1.8977 -2.4862  0.6808
 9038TIP3   OH248604   0.419   2.922  13.807  0.4026 -0.0818  0.4394
 9038TIP3    H148605   0.448   2.832  13.816 -0.6692 -0.4519  0.3747
 9038TIP3    H248606   0.377   2.942  13.891  0.0830  0.1436  0.2271
 9039TIP3   OH248607   5.022   1.540  12.766  0.4452 -0.2317 -1.0249
 9039TIP3    H148608   4.938   1.587  12.774  1.0593  0.9093 -1.1515
 9039TIP3    H248609   5.088   1.604  12.791  1.2846 -1.2024 -0.6623
 9040TIP3   OH248610   3.221   4.940  12.826 -0.1811 -0.3514  0.3116
 9040TIP3    H148611   3.206   4.846  12.836  1.7634 -0.8159 -0.5806
 9040TIP3    H248612   3.300   4.958  12.878 -0.7984  0.8980  0.8597
 9041TIP3   OH248613   3.678   1.406   0.390 -0.0040 -0.1079  0.0777
 9041TIP3    H148614   3.619   1.476   0.417 -0.0542 -0.8498  2.0750
 9041TIP3    H248615   3.763   1.449   0.381  0.0387  0.2079  1.6105
 9042TIP3   OH248616   3.253   3.666   1.326  0.5663  0.2577 -0.0479
 9042TIP3    H148617   3.240   3.756   1.297  0.9093  0.2774 -0.1493
 9042TIP3    H248618   3.344   3.647   1.304  0.4961 -0.1134 -0.0260
 9043TIP3   OH248619   4.609   4.133  13.680 -0.2115  0.0266 -0.1953
 9043TIP3    H148620   4.584   4.074  13.751  1.6511  0.2235  0.6831
 9043TIP3    H248621   4.640   4.074  13.610 -0.1001 -0.1099 -0.0339
 9044TIP3   OH248622   3.765   0.218   2.431  0.0270  0.2079 -0.4614
 9044TIP3    H148623   3.731   0.138   2.390 -0.9614  0.4037 -0.0410
 9044TIP3    H248624   3.777   0.279   2.358 -0.9300  0.2764 -0.5715
 9045TIP3   OH248625   4.969   3.736   5.747  0.0875  0.1309  0.0978
 9045TIP3    H148626   5.013   3.658   5.782 -0.8752 -0.8371 -0.7778
 9045TIP3    H248627   4.992   3.806   5.809  0.6752 -0.9175  1.1165
 9046TIP3   OH248628   4.795   5.301  15.705 -0.7153 -0.1340 -0.2019
 9046TIP3    H148629   4.746   5.219  15.711 -3.4080  1.3655  0.2109
 9046TIP3    H248630   4.774   5.347  15.786  0.9227  0.8954 -0.3138
 9047TIP3   OH248631   6.327   1.892  11.598 -0.2703  0.3010  0.4502
 9047TIP3    H148632   6.314   1.843  11.517 -0.3294  2.0966 -0.6807
 9047TIP3    H248633   6.238   1.907  11.632 -0.3037  0.3787  0.3289
 9048TIP3   OH248634   2.424   0.552  16.196 -0.1000  0.4478  0.1157
 9048TIP3    H148635   2.501   0.539  16.140 -2.3705 -0.5597 -3.0532
 9048TIP3    H248636   2.399   0.643  16.182 -0.9550  0.0621 -0.9914
 9049TIP3   OH248637   5.938   3.231   0.460 -0.8516  0.0573 -0.3746
 9049TIP3    H148638   5.955   3.137   0.461 -2.1485 -0.1983 -0.1725
 9049TIP3    H248639   5.977   3.263   0.541  0.8465 -0.0391 -1.1118
 9050TIP3   OH248640   1.236   1.833   5.717 -0.3623  0.1342 -0.0747
 9050TIP3    H148641   1.326   1.858   5.739 -0.8366  2.1168 -0.1822
 9050TIP3    H248642   1.208   1.777   5.790  1.2802 -1.4232 -0.5815
 9051TIP3   OH248643   1.928   4.029  13.484 -0.4065  0.2758  0.3129
 9051TIP3    H148644   1.987   3.954  13.493 -1.1904 -0.6795 -1.7366
 9051TIP3    H248645   1.963   4.079  13.411  0.0941  1.9506  1.6583
 9052TIP3   OH248646   3.506   0.556  15.683 -0.1877  0.2861 -0.0418
 9052TIP3    H148647   3.533   0.647  15.676  2.4379 -0.2741  1.2960
 9052TIP3    H248648   3.492   0.528  15.593  2.6062  1.0937 -0.8440
 9053TIP3   OH248649   6.000   3.507  13.937 -0.4369  0.5696  0.1798
 9053TIP3    H148650   5.923   3.564  13.941 -0.6546  0.2438  0.7620
 9053TIP3    H248651   5.976   3.431  13.989 -0.8010 -0.8737 -1.9695
 9054TIP3   OH248652   5.000   1.778  15.081 -0.3018 -0.6386 -0.7405
 9054TIP3    H148653   4.989   1.838  15.155 -2.1611 -0.6695 -0.9362
 9054TIP3    H248654   5.022   1.834  15.007  1.5904 -0.6082 -0.1999
 9055TIP3   OH248655   5.104   5.409   0.936  0.2973  0.1318 -0.0159
 9055TIP3    H148656   5.131   5.492   0.975  2.2701 -0.9592  1.0877
 9055TIP3    H248657   5.011   5.401   0.958  0.5401  1.1650  1.5393
 9056TIP3   OH248658   2.238   4.571  11.543  0.0787  0.2568 -0.1878
 9056TIP3    H148659   2.267   4.663  11.548  1.5326 -0.0081 -2.1322
 9056TIP3    H248660   2.146   4.577  11.517  0.6963  1.2572 -2.4512
 9057TIP3   OH248661   2.640   0.433   1.703  1.1351 -0.1042  0.1783
 9057TIP3    H148662   2.630   0.464   1.793  0.6760  0.9820 -0.2305
 9057TIP3    H248663   2.553   0.447   1.664  0.4113 -3.3016  0.3568
 9058TIP3   OH248664   1.473   6.368  11.992 -0.7033  0.4521 -0.3032
 9058TIP3    H148665   1.481   6.389  11.899 -1.0450  2.0935 -0.0058
 9058TIP3    H248666   1.430   6.445  12.029 -2.0712 -0.8621  0.9492
 9059TIP3   OH248667   1.324   0.943   3.700  0.1241 -0.0573  0.7166
 9059TIP3    H148668   1.379   0.904   3.633 -1.7118 -0.8354 -0.4082
 9059TIP3    H248669   1.303   1.030   3.667 -0.0659 -0.1012  0.7234
 9060TIP3   OH248670   4.828   5.255   3.067  0.0714 -0.0511 -0.1025
 9060TIP3    H148671   4.812   5.161   3.058  1.8942 -0.3875 -0.1338
 9060TIP3    H248672   4.853   5.283   2.979 -0.3715  0.4501 -0.0714
 9061TIP3   OH248673   0.606   5.495  15.418  0.1913 -0.3044 -0.3939
 9061TIP3    H148674   0.622   5.513  15.325  2.4217  1.4699  0.2575
 9061TIP3    H248675   0.531   5.435  15.417 -0.4190  0.3146 -3.2827
 9062TIP3   OH248676   3.762   2.201   1.017 -0.2696 -0.4395 -0.0985
 9062TIP3    H148677   3.851   2.234   1.029  0.1591 -1.4190 -0.5231
 9062TIP3    H248678   3.722   2.261   0.954  0.0728  0.0150  0.1097
 9063TIP3   OH248679   2.222   3.537   2.392  0.0045 -0.2158 -0.4894
 9063TIP3    H148680   2.291   3.574   2.337 -1.1582  1.1081 -1.1213
 9063TIP3    H248681   2.263   3.525   2.477  0.8445  1.2186 -0.6564
 9064TIP3   OH248682   1.403   1.032  14.289  0.4492 -0.4598 -0.1018
 9064TIP3    H148683   1.425   0.940  14.269  1.2559 -0.7400  1.8520
 9064TIP3    H248684   1.447   1.049  14.372 -0.9518  1.2462  0.3319
 9065TIP3   OH248685   5.525   5.410   3.530 -0.1085 -0.0515  1.0367
 9065TIP3    H148686   5.473   5.412   3.450  0.4588 -0.9529  0.6278
 9065TIP3    H248687   5.560   5.321   3.533  2.7239  0.9463  0.4251
 9066TIP3   OH248688   4.915   6.725   6.244  0.1144 -0.3656  0.1549
 9066TIP3    H148689   4.897   6.638   6.279  0.6796 -0.7733 -0.5408
 9066TIP3    H248690   4.999   6.750   6.282 -0.2183  0.0310  0.6348
 9067TIP3   OH248691   5.644   6.738  13.718 -0.4978  0.6202 -0.5871
 9067TIP3    H148692   5.570   6.738  13.657 -0.3539 -0.4520 -0.7934
 9067TIP3    H248693   5.611   6.778  13.798 -2.2857 -2.4563  0.4028
 9068TIP3   OH248694   6.289   5.441   1.421 -0.0422  0.3281 -0.0262
 9068TIP3    H148695   6.304   5.351   1.392 -0.5024  0.3414 -0.3086
 9068TIP3    H248696   6.194   5.447   1.433  0.0501  0.5836  0.6291
 9069TIP3   OH248697   1.833   5.403  15.098 -0.1141  0.5645 -0.0650
 9069TIP3    H148698   1.828   5.333  15.164 -1.6628 -0.4741 -1.2112
 9069TIP3    H248699   1.829   5.484  15.149 -1.1465 -0.2051  1.1478
 9070TIP3   OH248700   1.245   0.854   1.583 -0.0160  0.0377  0.5612
 9070TIP3    H148701   1.302   0.834   1.508  0.1209  1.0045  0.4008
 9070TIP3    H248702   1.181   0.916   1.549 -0.2168  0.1549  1.1431
 9071TIP3   OH248703   6.217   2.898   6.039 -0.0968 -0.2027 -0.1359
 9071TIP3    H148704   6.215   2.977   5.985  1.4088 -0.4518 -0.6060
 9071TIP3    H248705   6.309   2.872   6.040 -0.0311 -0.1417  2.6762
 9072TIP3   OH248706   2.207   5.773  12.478  0.0361 -0.2021  0.2194
 9072TIP3    H148707   2.117   5.793  12.504  0.5272 -0.2665  2.1759
 9072TIP3    H248708   2.243   5.858  12.451 -0.6376 -0.2047 -0.7406
 9073TIP3   OH248709   3.898   3.368  17.092 -0.2160  0.1682  0.1300
 9073TIP3    H148710   3.940   3.314  17.159  1.0472  2.1377  1.0314
 9073TIP3    H248711   3.954   3.446  17.086 -2.7718  2.1130  0.0439
 9074TIP3   OH248712   6.249   0.783  17.258  0.4199 -0.6349 -0.3111
 9074TIP3    H148713   6.295   0.780  17.174  0.6464 -2.8902 -0.1882
 9074TIP3    H248714   6.184   0.713  17.252 -0.6317  0.1995  0.8294
 9075TIP3   OH248715   4.060   1.661  16.235 -0.0965 -0.2385  0.3729
 9075TIP3    H148716   3.997   1.597  16.267 -1.6612  1.1360  0.1784
 9075TIP3    H248717   4.015   1.706  16.164  1.4675  0.1694 -0.4177
 9076TIP3   OH248718   5.733   2.091  16.402 -0.3262  0.0485  0.5551
 9076TIP3    H148719   5.751   1.998  16.405  1.1256  0.3272  1.5200
 9076TIP3    H248720   5.788   2.124  16.331 -1.1871  0.1208 -0.0978
 9077TIP3   OH248721   4.788   0.470   3.507 -0.5349 -0.3142  0.2353
 9077TIP3    H148722   4.729   0.494   3.579 -0.7531 -1.7713  0.5753
 9077TIP3    H248723   4.815   0.381   3.527  1.1204  0.0238 -0.3824
 9078TIP3   OH248724   5.709   2.856  14.696  0.7495 -0.0145  0.0502
 9078TIP3    H148725   5.679   2.819  14.613 -1.1219  0.1084  0.6346
 9078TIP3    H248726   5.804   2.844  14.695  0.6026 -1.2521 -1.4957
 9079TIP3   OH248727   3.460   6.714  14.357  0.1976  0.6449 -0.0818
 9079TIP3    H148728   3.395   6.694  14.424  0.9200  0.4512  0.5710
 9079TIP3    H248729   3.501   6.630  14.337  1.2802  0.9883  0.6041
 9080TIP3   OH248730   6.392   0.849  14.943  0.0386  0.4204  0.5908
 9080TIP3    H148731   6.307   0.808  14.959  0.0198  0.2022 -0.0449
 9080TIP3    H248732   6.400   0.914  15.013 -2.4051  3.1896 -1.4392
 9081TIP3   OH248733   0.992   4.396  13.172 -0.2604 -0.0310  0.1882
 9081TIP3    H148734   1.041   4.399  13.090  0.3897  0.7949  0.5885
 9081TIP3    H248735   0.965   4.487  13.188 -0.5334 -0.2094  0.7960
 9082TIP3   OH248736   2.147   4.265   4.411 -0.4779  0.0296  0.4228
 9082TIP3    H148737   2.124   4.345   4.457  1.3313  0.3011  0.9382
 9082TIP3    H248738   2.090   4.198   4.450 -1.1297  0.8143  0.8615
 9083TIP3   OH248739   0.009   2.009   1.095  0.1466 -0.3274 -0.0004
 9083TIP3    H148740  -0.071   1.959   1.083  1.0006 -1.1683 -2.9521
 9083TIP3    H248741   0.015   2.022   1.190 -2.8676 -1.1496  0.4108
 9084TIP3   OH248742   5.137   1.697   3.326 -0.0268 -0.5905  0.4232
 9084TIP3    H148743   5.176   1.684   3.412  2.8521  2.9389 -0.1284
 9084TIP3    H248744   5.068   1.762   3.340  1.2003  0.8567  0.0053
 9085TIP3   OH248745   3.969   1.634  14.076 -0.2563 -0.0997  0.4858
 9085TIP3    H148746   4.023   1.587  14.012  0.1594 -2.2035  2.2406
 9085TIP3    H248747   3.881   1.600  14.062 -0.0918 -0.8862  1.2397
 9086TIP3   OH248748   2.621   1.441  13.979  0.3584 -0.5472  0.0587
 9086TIP3    H148749   2.547   1.382  13.970  0.5330 -0.7337 -0.1722
 9086TIP3    H248750   2.583   1.523  14.012  0.1268 -0.8037  0.4343
 9087TIP3   OH248751   3.190   6.450   1.982  0.0599  0.3557  0.2813
 9087TIP3    H148752   3.172   6.414   1.896  0.8294 -1.3010  0.7755
 9087TIP3    H248753   3.109   6.440   2.031 -0.3974  1.3600 -0.2539
 9088TIP3   OH248754   4.809   1.390   6.102  0.0725  0.2454 -0.7912
 9088TIP3    H148755   4.896   1.363   6.132  0.2691 -0.3019 -1.7971
 9088TIP3    H248756   4.773   1.440   6.175  0.5227 -1.0067  0.3366
 9089TIP3   OH248757   5.016   6.643  16.955 -0.2882  0.0611  0.0699
 9089TIP3    H148758   4.985   6.578  16.892 -2.5105 -0.0811  1.2263
 9089TIP3    H248759   4.995   6.727  16.915  0.6041  0.0412 -0.4628
 9090TIP3   OH248760   0.484   6.200  16.238  0.2762  0.4555  0.3397
 9090TIP3    H148761   0.504   6.128  16.298  1.3465  1.8077  1.6771
 9090TIP3    H248762   0.398   6.231  16.266 -0.1077 -0.1648 -0.1265
 9091TIP3   OH248763   1.658   0.807   0.880  0.0854 -0.1616  0.4053
 9091TIP3    H148764   1.648   0.852   0.796 -0.4734  0.7247  0.9151
 9091TIP3    H248765   1.743   0.836   0.913 -0.0506  0.1451  0.4996
 9092TIP3   OH248766   6.515   0.554   1.131  0.1417 -0.0565 -0.0520
 9092TIP3    H148767   6.501   0.559   1.036  0.1438 -0.7383 -0.0875
 9092TIP3    H248768   6.530   0.645   1.157  0.1162  0.1386 -0.7016
 9093TIP3   OH248769   1.649   6.266  14.386  0.6673  0.0808 -0.1454
 9093TIP3    H148770   1.651   6.341  14.445  1.6796 -0.1473  0.1300
 9093TIP3    H248771   1.560   6.265  14.351  0.7644  1.6542 -0.4870
 9094TIP3   OH248772   4.523   0.537  12.256 -0.0137  0.2992  0.0854
 9094TIP3    H148773   4.526   0.578  12.343  2.0545 -0.7657  0.5964
 9094TIP3    H248774   4.442   0.486  12.257 -0.6730  1.3046  0.8814
 9095TIP3   OH248775   3.613   6.735   5.781 -0.7035 -0.2376 -0.4683
 9095TIP3    H148776   3.582   6.809   5.833 -1.8378  0.0879 -1.5588
 9095TIP3    H248777   3.541   6.716   5.721 -1.2723 -3.4740  1.0158
 9096TIP3   OH248778   0.083   2.853   0.462  0.3005 -0.0145 -0.3244
 9096TIP3    H148779   0.159   2.908   0.443 -0.5766  0.8081 -1.6166
 9096TIP3    H248780   0.080   2.789   0.391 -0.2346 -0.0094 -0.3141
 9097TIP3   OH248781   6.244   5.546   2.107  0.4330 -0.3370  0.1264
 9097TIP3    H148782   6.210   5.477   2.164 -1.0420  0.7727  0.6373
 9097TIP3    H248783   6.270   5.616   2.166 -1.1654  0.8490 -0.5111
 9098TIP3   OH248784   5.440   6.490   6.066  0.1443  0.0474  0.4610
 9098TIP3    H148785   5.414   6.408   6.108 -1.4418  0.2025 -0.1427
 9098TIP3    H248786   5.361   6.544   6.069  0.7433  0.9999 -0.4600
 9099TIP3   OH248787   5.486   6.371   1.204 -0.2996  0.1462  0.2808
 9099TIP3    H148788   5.406   6.384   1.153  0.3529  0.2202 -0.7630
 9099TIP3    H248789   5.457   6.331   1.285 -1.1759 -2.1528 -1.0630
 9100TIP3   OH248790   5.414   3.660   3.715  0.5586  0.4956  0.0750
 9100TIP3    H148791   5.348   3.597   3.744  0.2514 -0.2620 -2.1258
 9100TIP3    H248792   5.379   3.745   3.742 -0.2128 -0.0651  0.9118
 9101TIP3   OH248793   6.732   2.775  16.631 -0.2239 -0.5576  0.8188
 9101TIP3    H148794   6.754   2.690  16.594 -1.0655 -0.7627  0.7541
 9101TIP3    H248795   6.807   2.799  16.685  0.4302 -0.8913  0.0702
 9102TIP3   OH248796   1.880   5.820   0.085  0.4559  0.3910 -0.0760
 9102TIP3    H148797   1.890   5.911   0.110  0.6888  0.1954  0.5519
 9102TIP3    H248798   1.820   5.822   0.010  1.1580  1.1283 -0.6383
 9103TIP3   OH248799   2.623   0.523  10.509  0.1534 -0.5251  0.4766
 9103TIP3    H148800   2.635   0.571  10.590  0.6083 -2.1649  1.4267
 9103TIP3    H248801   2.559   0.574  10.459  1.2829  1.5052  1.0180
 9104TIP3   OH248802   1.474   2.747   0.240 -0.0427  0.6906  0.2540
 9104TIP3    H148803   1.382   2.742   0.213 -0.2608 -0.2874  1.1355
 9104TIP3    H248804   1.476   2.819   0.303  0.0897  1.6603 -0.8189
 9105TIP3   OH248805   3.086   4.867  14.876 -0.0712 -0.0028 -0.2618
 9105TIP3    H148806   3.090   4.800  14.808  0.0156  1.6587 -1.9705
 9105TIP3    H248807   3.173   4.865  14.917  0.1401 -0.4847 -0.7290
 9106TIP3   OH248808   6.679   1.929  15.226 -0.3091  0.2991 -0.6488
 9106TIP3    H148809   6.689   1.952  15.134 -0.1583  0.3917 -0.6100
 9106TIP3    H248810   6.769   1.912  15.256 -0.4121 -0.2458 -0.6527
 9107TIP3   OH248811   3.280   2.577   4.255 -0.3903 -0.2815 -0.7057
 9107TIP3    H148812   3.322   2.590   4.170  1.8294 -0.6958  0.2582
 9107TIP3    H248813   3.277   2.664   4.294 -1.2160 -0.1240 -1.1043
 9108TIP3   OH248814   4.725   1.827   3.658  0.0107 -0.2649  0.4691
 9108TIP3    H148815   4.683   1.854   3.576 -0.1312 -0.6889  0.3942
 9108TIP3    H248816   4.653   1.823   3.721  0.1876  0.4512  0.7154
 9109TIP3   OH248817   5.651   2.528   1.111  0.5724 -0.2749 -1.0268
 9109TIP3    H148818   5.681   2.607   1.066 -2.0136  0.6947 -1.1707
 9109TIP3    H248819   5.567   2.506   1.070 -0.0787 -1.5221  0.8304
 9110TIP3   OH248820   6.306   6.459   4.249 -0.0537  0.2487 -0.0409
 9110TIP3    H148821   6.234   6.486   4.192  0.6154  2.8983  0.2509
 9110TIP3    H248822   6.263   6.411   4.320 -1.6057  2.0482  0.3108
 9111TIP3   OH248823   5.959   5.450  14.026  0.3542  0.2409  0.1547
 9111TIP3    H148824   5.865   5.459  14.042 -0.2383 -1.1977 -2.1320
 9111TIP3    H248825   6.000   5.495  14.100 -2.1001 -0.1195  1.8577
 9112TIP3   OH248826   3.634   5.856  16.183  0.3489  1.3745  0.0072
 9112TIP3    H148827   3.568   5.787  16.192  2.0675 -0.3196  0.1925
 9112TIP3    H248828   3.617   5.915  16.257 -1.3812  1.4109 -0.3622
 9113TIP3   OH248829   3.681   1.838  16.823  0.2476 -0.6554 -0.4611
 9113TIP3    H148830   3.654   1.760  16.775 -0.0814 -0.8345  0.0079
 9113TIP3    H248831   3.626   1.908  16.788 -2.1475 -1.3251  1.6784
 9114TIP3   OH248832   6.637   3.353   2.818  0.6047 -0.1889 -0.4609
 9114TIP3    H148833   6.608   3.439   2.786  0.5619 -0.9665 -2.7065
 9114TIP3    H248834   6.560   3.317   2.862  0.7720  1.0861  0.9576
 9115TIP3   OH248835   3.226   4.891  15.700 -0.1277  0.3476  0.1278
 9115TIP3    H148836   3.219   4.978  15.660 -0.5086  0.3899  0.2876
 9115TIP3    H248837   3.210   4.906  15.793 -0.6236  0.0461  0.0950
 9116TIP3   OH248838   5.462   2.834  12.016 -0.1423 -0.0776 -0.0201
 9116TIP3    H148839   5.460   2.922  12.055  1.4129 -0.0509  0.0765
 9116TIP3    H248840   5.476   2.849  11.923  1.3101 -0.2004  0.1461
 9117TIP3   OH248841   4.953   0.626   2.494 -0.5611 -0.4963 -0.3531
 9117TIP3    H148842   4.981   0.697   2.551  0.4158  0.5613 -2.0325
 9117TIP3    H248843   4.941   0.551   2.552  2.1677 -0.0040  1.0358
 9118TIP3   OH248844   6.063   0.433   2.276  0.2282 -0.1727  0.1691
 9118TIP3    H148845   6.125   0.494   2.316  0.8123  0.2856 -1.3733
 9118TIP3    H248846   6.092   0.425   2.186 -1.6895 -0.3253 -0.4822
 9119TIP3   OH248847   3.349   6.041  15.717 -0.1219  0.3787 -0.3835
 9119TIP3    H148848   3.357   5.971  15.782 -0.6341  0.5326 -0.1482
 9119TIP3    H248849   3.288   6.006  15.652  2.1820 -0.7176 -2.0605
 9120TIP3   OH248850   6.138   1.628   5.599 -0.3043 -0.2333  0.6128
 9120TIP3    H148851   6.085   1.562   5.643 -1.0254 -0.6430 -0.8136
 9120TIP3    H248852   6.169   1.686   5.669 -2.8489  0.1793  1.4732
 9121TIP3   OH248853   4.847   1.599   0.322 -0.2732  0.6523  0.1800
 9121TIP3    H148854   4.767   1.592   0.269  0.2508 -0.3760 -0.5075
 9121TIP3    H248855   4.815   1.607   0.412 -1.1589  0.4639 -0.1063
 9122TIP3   OH248856   4.362   0.680   3.842 -0.7678  0.6841  0.4163
 9122TIP3    H148857   4.450   0.716   3.856 -0.3599 -0.0265 -0.2957
 9122TIP3    H248858   4.321   0.687   3.928  1.2220 -2.2822  1.7650
 9123TIP3   OH248859   3.679   1.237  12.749  0.0121  0.3709  0.6370
 9123TIP3    H148860   3.595   1.196  12.767 -0.4912  1.4446  0.8253
 9123TIP3    H248861   3.657   1.326  12.721  0.9704  0.0498 -1.3696
 9124TIP3   OH248862   2.280   3.804   2.972 -0.4326  0.1043 -0.0654
 9124TIP3    H148863   2.322   3.838   2.893 -0.0671 -2.1856 -0.9359
 9124TIP3    H248864   2.333   3.836   3.044  0.6793  0.2344 -0.9255
 9125TIP3   OH248865   4.326   0.647   5.759 -0.4567 -0.2811 -0.0053
 9125TIP3    H148866   4.413   0.688   5.752 -0.9249  0.7931  0.2934
 9125TIP3    H248867   4.325   0.582   5.688 -0.2287  1.2502 -1.4788
 9126TIP3   OH248868   5.410   4.041   4.731 -0.4252 -0.7906 -0.0893
 9126TIP3    H148869   5.317   4.028   4.753 -0.6649  0.8992  0.0709
 9126TIP3    H248870   5.455   4.038   4.816 -0.8687  2.0421  0.3545
 9127TIP3   OH248871   1.765   6.114  11.849 -0.6983 -0.0854 -0.7521
 9127TIP3    H148872   1.773   6.195  11.898  0.2174 -0.6267  0.0275
 9127TIP3    H248873   1.838   6.061  11.879 -1.6148 -1.4329 -0.8177
 9128TIP3   OH248874   3.931   2.113   6.217  0.4303 -0.5409  0.0531
 9128TIP3    H148875   4.011   2.110   6.269  0.0789  0.7420  0.7093
 9128TIP3    H248876   3.870   2.164   6.270 -0.4156 -0.4476 -0.9852
 9129TIP3   OH248877   3.742   2.318  12.778 -0.2969 -0.1159 -0.2669
 9129TIP3    H148878   3.658   2.305  12.734  0.2422  0.5353 -1.5417
 9129TIP3    H248879   3.803   2.262  12.730 -0.3115 -2.0245  1.7923
 9130TIP3   OH248880   5.689   1.694  16.967  0.0182  0.3780  0.1586
 9130TIP3    H148881   5.739   1.672  16.888 -1.1496 -1.0281 -0.2318
 9130TIP3    H248882   5.627   1.622  16.976 -0.5703  1.0597  1.7826
 9131TIP3   OH248883   5.747   3.249  14.937 -0.2383 -0.2633  0.3823
 9131TIP3    H148884   5.705   3.172  14.901  1.1813 -0.1871 -1.6311
 9131TIP3    H248885   5.833   3.218  14.968  1.1124  0.7017 -2.1027
 9132TIP3   OH248886   0.360   5.957  15.910 -0.2175  0.2116 -0.4652
 9132TIP3    H148887   0.293   6.025  15.904  0.8537  1.2310 -1.5185
 9132TIP3    H248888   0.427   5.984  15.847  2.0286  0.1971  1.7765
 9133TIP3   OH248889   2.707   2.363   1.456 -0.1171 -0.5983 -0.1990
 9133TIP3    H148890   2.617   2.330   1.449 -0.0011 -0.9474 -0.0737
 9133TIP3    H248891   2.697   2.457   1.468 -0.4943 -0.7088  0.3988
 9134TIP3   OH248892   1.107   5.464   4.606  0.1261  0.3305 -0.1511
 9134TIP3    H148893   1.139   5.383   4.646  1.5958 -0.0125 -1.8870
 9134TIP3    H248894   1.104   5.445   4.512  0.6288  2.3031 -0.6182
 9135TIP3   OH248895   3.612   3.614  16.670 -0.6211 -0.5856  0.3217
 9135TIP3    H148896   3.642   3.667  16.596 -1.1418 -2.3098 -1.2012
 9135TIP3    H248897   3.688   3.606  16.727 -0.4257  1.4218  0.4052
 9136TIP3   OH248898   2.625   0.118   3.444  0.3806 -0.3764 -0.0741
 9136TIP3    H148899   2.705   0.069   3.426  0.4197 -0.5319  0.4922
 9136TIP3    H248900   2.561   0.050   3.467 -0.1265 -0.3176 -1.2402
 9137TIP3   OH248901   1.022   1.857  11.391 -0.7648  0.0901 -0.2703
 9137TIP3    H148902   1.075   1.911  11.333  0.1564 -0.9709 -0.4672
 9137TIP3    H248903   0.949   1.827  11.336 -1.4407  1.3353 -0.0764
 9138TIP3   OH248904   5.892   5.606   3.628  0.0933  0.6880 -0.1556
 9138TIP3    H148905   5.915   5.694   3.660 -0.1785  1.5477 -2.1878
 9138TIP3    H248906   5.826   5.621   3.561  1.7860 -0.8529 -2.2952
 9139TIP3   OH248907   0.259   5.093  11.127 -0.0571 -0.2927 -0.4802
 9139TIP3    H148908   0.166   5.086  11.104 -0.2339 -0.7082  0.3157
 9139TIP3    H248909   0.292   5.004  11.119 -0.2559 -0.5721  1.3111
 9140TIP3   OH248910   6.757   2.622  14.725 -0.3867 -0.9274  0.2053
 9140TIP3    H148911   6.714   2.662  14.649  1.2156  0.2613 -0.1369
 9140TIP3    H248912   6.687   2.608  14.788 -1.1744  1.9151  0.0970
 9141TIP3   OH248913   0.948   6.473   6.039  0.0638 -0.8580 -0.6354
 9141TIP3    H148914   0.882   6.436   6.098 -0.2497 -1.5107 -1.3755
 9141TIP3    H248915   1.030   6.431   6.066  0.8490  2.0371  2.2071
 9142TIP3   OH248916   0.597   4.624  11.639  0.5264  0.5605 -0.1354
 9142TIP3    H148917   0.627   4.714  11.654  0.0147  0.4435  1.8852
 9142TIP3    H248918   0.676   4.570  11.648  0.2480  0.4600  3.0198
 9143TIP3   OH248919   4.473   1.119  15.006 -0.0118 -0.0193 -0.3395
 9143TIP3    H148920   4.504   1.044  15.057  0.7255 -0.2007 -1.0331
 9143TIP3    H248921   4.543   1.184  15.015 -0.0392  0.0808 -0.8159
 9144TIP3   OH248922   4.026   0.563   0.192 -0.4067 -0.2042 -0.1331
 9144TIP3    H148923   4.063   0.613   0.119  1.7970 -1.0607  0.3332
 9144TIP3    H248924   3.950   0.519   0.154 -0.9751  1.5650 -1.1539
 9145TIP3   OH248925   6.742   3.455  14.092  0.1191  0.2738 -0.4190
 9145TIP3    H148926   6.705   3.376  14.131 -2.2087 -0.0935 -3.0510
 9145TIP3    H248927   6.826   3.427  14.056  0.2746 -0.4402  0.4632
 9146TIP3   OH248928   1.882   0.854  12.565  0.0689 -0.1597 -0.6108
 9146TIP3    H148929   1.839   0.813  12.490  0.4202 -2.8953  0.5986
 9146TIP3    H248930   1.809   0.886  12.618 -0.1829  2.5846 -2.3780
 9147TIP3   OH248931   6.049   3.366  17.200 -0.3051 -0.1263  0.5817
 9147TIP3    H148932   6.105   3.357  17.123 -0.3644 -0.5986  0.5860
 9147TIP3    H248933   6.096   3.318  17.269  0.7831  2.0284  1.4229
 9148TIP3   OH248934   3.857   2.727  11.691 -0.4700  0.5708  0.6139
 9148TIP3    H148935   3.763   2.718  11.681 -0.2427 -1.2683 -0.2666
 9148TIP3    H248936   3.873   2.717  11.785 -1.0131 -1.1365  0.5625
 9149TIP3   OH248937   5.884   6.794  15.158 -0.7706  0.1552 -0.2165
 9149TIP3    H148938   5.848   6.801  15.070 -1.0943  2.1592  0.0391
 9149TIP3    H248939   5.963   6.849  15.156 -1.9388  2.0221  1.2722
 9150TIP3   OH248940   4.259   4.017  12.579 -0.3166  0.0825  0.0328
 9150TIP3    H148941   4.347   4.055  12.581  0.0128 -0.6743  0.4124
 9150TIP3    H248942   4.257   3.958  12.654 -0.4097 -1.4947 -1.1550
 9151TIP3   OH248943   4.783   3.537   2.468 -0.2103  0.0452 -0.2471
 9151TIP3    H148944   4.814   3.626   2.452 -0.8993  0.1751 -0.9321
 9151TIP3    H248945   4.803   3.489   2.387  0.6643 -0.5845  0.3169
 9152TIP3   OH248946   1.981   2.990   1.497  0.2273  0.0052 -0.1049
 9152TIP3    H148947   1.930   3.070   1.498  1.3996  0.8042  1.8105
 9152TIP3    H248948   1.933   2.930   1.555 -1.8311 -1.6042 -3.1782
 9153TIP3   OH248949   3.163   0.879  16.662  0.4476  0.0142 -0.0133
 9153TIP3    H148950   3.211   0.936  16.602 -0.8692  1.5081  0.2799
 9153TIP3    H248951   3.137   0.936  16.734  1.2433 -1.5515  1.6045
 9154TIP3   OH248952   4.700   1.510   2.332 -0.2400 -0.2624 -0.3395
 9154TIP3    H148953   4.788   1.505   2.369 -0.1329 -2.1163 -0.7394
 9154TIP3    H248954   4.642   1.497   2.406 -0.2291  1.5016  0.0160
 9155TIP3   OH248955   4.502   0.742  16.192 -0.2162 -0.0019  0.6688
 9155TIP3    H148956   4.479   0.784  16.109  0.0750 -0.9938  0.0759
 9155TIP3    H248957   4.597   0.744  16.194 -0.2256  0.0951  1.0239
 9156TIP3   OH248958   3.120   2.121   2.920 -0.5330 -0.5376 -0.5729
 9156TIP3    H148959   3.202   2.110   2.968  0.6850 -0.0377 -2.4290
 9156TIP3    H248960   3.095   2.032   2.896  0.0921 -0.6098 -0.9781
 9157TIP3   OH248961   0.040   4.730  12.016  0.0668  0.4077 -0.0244
 9157TIP3    H148962   0.067   4.670  12.086 -0.4293  1.2723  0.9254
 9157TIP3    H248963  -0.021   4.679  11.963  0.2524 -0.1738  0.3153
 9158TIP3   OH248964   5.513   3.389   3.255  0.4526 -0.8074 -0.1569
 9158TIP3    H148965   5.458   3.361   3.329 -1.1577 -1.6585 -1.6072
 9158TIP3    H248966   5.518   3.484   3.264 -0.0476 -0.8542  0.8279
 9159TIP3   OH248967   6.281   1.326  16.729  0.6830  0.4671  0.1729
 9159TIP3    H148968   6.291   1.371  16.813  1.5035 -0.2763  0.4809
 9159TIP3    H248969   6.212   1.262  16.745 -1.3534  2.2965 -0.5881
 9160TIP3   OH248970   1.705   4.822   5.997  0.0760  0.3867  0.0002
 9160TIP3    H148971   1.648   4.896   5.975  0.2597  1.3422  2.4329
 9160TIP3    H248972   1.646   4.756   6.033  0.1241  0.0493 -0.5334
 9161TIP3   OH248973   0.196   1.364   0.044 -0.0483  0.0264  0.2935
 9161TIP3    H148974   0.267   1.324  -0.006  1.7687  1.0347  1.9570
 9161TIP3    H248975   0.168   1.438  -0.010 -0.6145 -0.9721 -0.8509
 9162TIP3   OH248976   3.033   4.282   0.503 -0.4409  0.2899 -0.3943
 9162TIP3    H148977   2.947   4.297   0.542 -0.0058 -0.5827  0.9664
 9162TIP3    H248978   3.026   4.196   0.461  0.3236 -0.7569  1.5016
 9163TIP3   OH248979   2.743   5.228  12.387  0.0398 -0.3831  0.2082
 9163TIP3    H148980   2.729   5.134  12.392 -0.1492 -0.4524 -1.1446
 9163TIP3    H248981   2.836   5.237  12.364  0.5523 -0.1505  2.1794
 9164TIP3   OH248982   6.460   0.193   5.273 -0.0396 -0.2984 -0.1833
 9164TIP3    H148983   6.467   0.286   5.292  1.5689 -0.5585  0.7815
 9164TIP3    H248984   6.465   0.186   5.178  2.7597  0.4841 -0.1856
 9165TIP3   OH248985   3.170   6.684   1.817 -0.2503 -0.7424  0.0977
 9165TIP3    H148986   3.139   6.631   1.891 -1.8608 -1.0643 -0.7465
 9165TIP3    H248987   3.097   6.743   1.798 -0.0700 -0.9965 -1.5230
 9166TIP3   OH248988   2.035   2.498   0.613 -0.3691 -0.0251  0.3301
 9166TIP3    H148989   2.082   2.545   0.682 -0.2754  0.8000 -0.2739
 9166TIP3    H248990   2.047   2.553   0.535  0.0443 -1.2389 -0.4908
 9167TIP3   OH248991   3.107   3.912  11.771  0.1298 -0.2988  0.4973
 9167TIP3    H148992   3.134   3.822  11.753  1.1854  0.2034 -0.5406
 9167TIP3    H248993   3.012   3.906  11.780  0.0693 -1.3903 -0.4951
 9168TIP3   OH248994   2.756   0.036   2.230 -0.1428  0.2282 -0.0847
 9168TIP3    H148995   2.804  -0.047   2.223 -1.6724 -0.5600 -2.9654
 9168TIP3    H248996   2.820   0.103   2.208  0.2384 -0.5716 -1.4913
 9169TIP3   OH248997   3.355   4.191  13.044 -0.1758  0.3709  0.0684
 9169TIP3    H148998   3.315   4.261  13.096 -2.5746 -0.4409 -0.5458
 9169TIP3    H248999   3.334   4.214  12.953  3.2186  1.3168 -0.5941
 9170TIP3   OH249000   5.854   5.011  16.929  0.0542  0.2478 -0.3955
 9170TIP3    H149001   5.821   4.997  17.018  2.4142  1.6389  0.8029
 9170TIP3    H249002   5.891   4.926  16.903  3.2980  0.7863  1.8450
 9171TIP3   OH249003   0.470   5.231  14.774  0.2592  0.1441  0.2149
 9171TIP3    H149004   0.518   5.179  14.710 -0.9830 -1.1307  0.2700
 9171TIP3    H249005   0.391   5.259  14.728 -1.2043 -1.7291  1.4270
 9172TIP3   OH249006   0.960   5.999  13.560  0.1278 -0.3063 -0.3857
 9172TIP3    H149007   0.866   6.011  13.553  0.0807 -0.1361  0.4634
 9172TIP3    H249008   0.981   6.018  13.652  1.0257 -0.0680 -0.6246
 9173TIP3   OH249009   1.661   1.065   3.971  0.7260 -0.1747 -0.3582
 9173TIP3    H149010   1.620   1.111   3.897 -1.6391 -0.8282  0.4758
 9173TIP3    H249011   1.666   1.131   4.040  0.3032 -0.3046 -0.2000
 9174TIP3   OH249012   4.048   0.952  16.845 -0.0272 -0.1896  0.2824
 9174TIP3    H149013   3.972   0.974  16.899 -0.7482  0.3565 -0.9242
 9174TIP3    H249014   4.011   0.913  16.766  0.9963 -0.6270 -0.0003
 9175TIP3   OH249015   3.393   2.320  13.805 -0.5339 -0.0254  0.5199
 9175TIP3    H149016   3.311   2.270  13.808 -0.6280  0.1090  0.2243
 9175TIP3    H249017   3.375   2.399  13.856 -0.3534 -0.3310  1.0730
 9176TIP3   OH249018   6.276   6.516  11.668 -0.3832  0.0722  0.2861
 9176TIP3    H149019   6.194   6.520  11.618 -0.2075 -0.0986 -0.0203
 9176TIP3    H249020   6.303   6.424  11.661 -0.9993 -0.2467  1.7416
 9177TIP3   OH249021   5.456   6.746   0.829 -0.4943  0.1538  0.3517
 9177TIP3    H149022   5.538   6.782   0.796 -0.6977  0.5102  0.2209
 9177TIP3    H249023   5.405   6.727   0.750 -0.8849  0.7750  0.4467
 9178TIP3   OH249024   4.173   2.410   0.813  0.2009  0.1260 -0.7332
 9178TIP3    H149025   4.133   2.367   0.738  0.2817  0.4325 -0.9572
 9178TIP3    H249026   4.178   2.502   0.787 -1.4338  0.5682  0.3459
 9179TIP3   OH249027   5.502   1.070  13.546 -0.5726  0.0055  0.2323
 9179TIP3    H149028   5.435   1.044  13.483 -0.2397  0.8682 -0.4929
 9179TIP3    H249029   5.471   1.034  13.629 -0.9449 -1.2698 -0.4322
 9180TIP3   OH249030   5.325   3.678   3.295 -0.1712 -0.0118 -0.5581
 9180TIP3    H149031   5.285   3.643   3.375  2.9478  0.9494  1.6423
 9180TIP3    H249032   5.287   3.626   3.225 -2.0843 -1.8639  1.6508
 9181TIP3   OH249033   2.326   2.894  11.273 -0.1386 -0.2195 -0.4090
 9181TIP3    H149034   2.303   2.819  11.328  0.0922  0.4381  0.6104
 9181TIP3    H249035   2.405   2.865  11.226  0.8481 -0.1203  1.1012
 9182TIP3   OH249036   0.080   4.191  15.939  0.2512 -0.1104 -0.2434
 9182TIP3    H149037   0.137   4.143  15.880 -2.1840 -1.2045 -1.8851
 9182TIP3    H249038   0.060   4.272  15.892 -1.6332 -0.9485 -0.9960
 9183TIP3   OH249039   0.254   3.205   4.580 -0.4563 -0.2158 -0.0799
 9183TIP3    H149040   0.339   3.161   4.575 -0.5375 -0.2937 -0.9453
 9183TIP3    H249041   0.199   3.144   4.629  0.4302  0.5890  2.0146
 9184TIP3   OH249042   4.611   2.830   1.554  0.0090 -0.3360  0.1507
 9184TIP3    H149043   4.678   2.883   1.597 -1.0047  1.3074 -0.2237
 9184TIP3    H249044   4.643   2.820   1.464 -0.8343  1.6482 -0.4313
 9185TIP3   OH249045   2.694   3.600  14.366  0.0468  0.0382 -0.2081
 9185TIP3    H149046   2.668   3.516  14.405 -0.7010  0.4168  0.1259
 9185TIP3    H249047   2.647   3.666  14.417 -1.7335  0.5089 -2.3202
 9186TIP3   OH249048   4.023   1.740   3.100 -0.0995  0.1182 -0.3436
 9186TIP3    H149049   4.042   1.648   3.120  0.7636  0.0387 -1.3952
 9186TIP3    H249050   3.988   1.739   3.011 -0.1767  0.8023 -0.3301
 9187TIP3   OH249051   6.082   6.327  10.932 -0.4489  0.7750  0.0669
 9187TIP3    H149052   6.134   6.247  10.941 -2.7426 -0.6915  1.3588
 9187TIP3    H249053   6.033   6.316  10.851 -0.4499  1.0874  0.0228
 9188TIP3   OH249054   5.456   3.568  14.445 -0.1985 -0.5106  0.4546
 9188TIP3    H149055   5.421   3.634  14.505  1.9226  0.5041  0.6827
 9188TIP3    H249056   5.546   3.597  14.428  0.5229 -2.9052 -0.1376
 9189TIP3   OH249057   1.942   5.450  10.584 -0.2433 -0.1033 -0.2644
 9189TIP3    H149058   1.933   5.356  10.566 -0.4007 -0.1083 -0.1635
 9189TIP3    H249059   2.022   5.476  10.539  1.0682 -0.7584  1.5658
 9190TIP3   OH249060   4.627   5.459   2.922  0.4580  0.4314  0.3613
 9190TIP3    H149061   4.550   5.495   2.878  0.2511  1.5217  1.5430
 9190TIP3    H249062   4.701   5.483   2.866 -0.0969 -1.2959 -1.1847
 9191TIP3   OH249063   3.399   1.749   5.944  0.5460 -0.2009 -0.0259
 9191TIP3    H149064   3.467   1.816   5.936  1.1237 -0.7494  0.2842
 9191TIP3    H249065   3.335   1.788   6.004  0.8139  0.1281  0.0506
 9192TIP3   OH249066   0.295   3.597  16.596  0.5564  0.0121 -0.2191
 9192TIP3    H149067   0.337   3.640  16.671 -1.4185  1.4305  0.1313
 9192TIP3    H249068   0.264   3.668  16.541 -0.7219 -0.9692 -0.8265
 9193TIP3   OH249069   0.731   6.786  10.531  0.4276  0.3317 -0.5895
 9193TIP3    H149070   0.717   6.799  10.437  1.0504 -1.5924 -1.0001
 9193TIP3    H249071   0.825   6.766  10.538  0.2562 -0.2157  0.3389
 9194TIP3   OH249072   6.399   2.891   3.930  0.1964  0.1076  0.5823
 9194TIP3    H149073   6.441   2.860   3.849  0.0275  1.4148 -0.0291
 9194TIP3    H249074   6.305   2.888   3.912  0.1725  0.8667  0.5366
 9195TIP3   OH249075   0.268   5.883  10.785  0.1711 -0.3458  0.3658
 9195TIP3    H149076   0.243   5.903  10.875  0.2713  0.1726  0.2823
 9195TIP3    H249077   0.195   5.832  10.750  0.3776 -1.0255  0.9054
 9196TIP3   OH249078   4.044   2.384  15.128 -0.3244  0.1008  0.5509
 9196TIP3    H149079   4.015   2.368  15.218 -0.6350  1.8424  0.7921
 9196TIP3    H249080   3.972   2.352  15.074  0.2026 -1.7097  0.8428
 9197TIP3   OH249081   3.533   0.618   0.071  0.4409 -0.1033  0.1141
 9197TIP3    H149082   3.495   0.564   0.002  0.1061 -0.2056  0.3787
 9197TIP3    H249083   3.603   0.667   0.027  0.0302  0.0581 -0.3648
 9198TIP3   OH249084   2.692   4.906   4.747 -0.3522  0.0096 -0.4028
 9198TIP3    H149085   2.757   4.842   4.719 -3.2201 -2.5631 -1.7904
 9198TIP3    H249086   2.680   4.889   4.840  1.2943  0.9609  0.0317
 9199TIP3   OH249087   2.835   1.892   2.919 -0.5145 -0.5717 -0.1843
 9199TIP3    H149088   2.767   1.940   2.872 -0.7887 -0.4682  0.3117
 9199TIP3    H249089   2.911   1.896   2.861 -1.1068 -1.2422 -1.0380
 9200TIP3   OH249090   0.095   5.482  11.155  0.5247  0.5616 -0.1173
 9200TIP3    H149091   0.155   5.552  11.180 -0.3909  1.3731 -0.1534
 9200TIP3    H249092   0.077   5.436  11.237  0.0447  1.2402  0.1716
 9201TIP3   OH249093   2.149   2.196   0.701 -0.0399  0.3890  0.2009
 9201TIP3    H149094   2.083   2.141   0.658 -1.0197  0.4034  1.6121
 9201TIP3    H249095   2.202   2.230   0.630 -2.1072  1.0942 -1.0859
 9202TIP3   OH249096   6.734   2.694   3.534  0.4228 -0.2720 -1.0991
 9202TIP3    H149097   6.764   2.637   3.463  4.2181  0.0428  0.0108
 9202TIP3    H249098   6.802   2.686   3.601 -1.2264  2.1141  1.0471
 9203TIP3   OH249099   2.114   1.504   3.197 -0.4540 -0.0399 -0.7607
 9203TIP3    H149100   2.091   1.419   3.159 -0.3854 -1.0160  1.2241
 9203TIP3    H249101   2.210   1.501   3.205 -0.5019 -0.0858 -0.0844
 9204TIP3   OH249102   4.789   1.114   6.254 -0.6275  0.8074 -0.2468
 9204TIP3    H149103   4.737   1.081   6.181 -0.8316  0.6837 -0.0457
 9204TIP3    H249104   4.725   1.137   6.321 -0.3477 -1.3314  0.8338
 9205TIP3   OH249105   0.539   0.278  10.627 -0.3676 -0.0431 -0.1747
 9205TIP3    H149106   0.443   0.270  10.629 -0.3975  0.4023  1.3140
 9205TIP3    H249107   0.557   0.355  10.681  0.8390 -0.2226 -0.3093
 9206TIP3   OH249108   3.219   3.799   4.689  0.4799  0.0882 -0.0118
 9206TIP3    H149109   3.180   3.713   4.706  0.3873  0.5792  2.8703
 9206TIP3    H249110   3.313   3.783   4.688  0.4672 -0.0689  0.6075
 9207TIP3   OH249111   1.650   3.688   1.907  0.4091 -0.7091 -0.0357
 9207TIP3    H149112   1.600   3.723   1.981  0.2865  1.3035 -1.0160
 9207TIP3    H249113   1.719   3.635   1.948  1.9463  2.3795  1.7122
 9208TIP3   OH249114   1.210   2.888  14.347  0.1164 -0.4122  0.2715
 9208TIP3    H149115   1.254   2.837  14.280  1.9013  2.5263 -1.0173
 9208TIP3    H249116   1.249   2.859  14.429  0.7094 -1.3963 -0.3381
 9209TIP3   OH249117   3.619   0.675   3.915 -0.5565  0.0339  0.2134
 9209TIP3    H149118   3.589   0.762   3.892 -0.0495  0.4298  1.0104
 9209TIP3    H249119   3.671   0.687   3.995  0.3538 -0.8530 -0.2209
 9210TIP3   OH249120   2.418   2.825   0.231  0.1241 -0.1253  0.2952
 9210TIP3    H149121   2.418   2.839   0.137 -0.4076  0.6744  0.4029
 9210TIP3    H249122   2.363   2.895   0.266  1.6413  0.6146  1.3413
 9211TIP3   OH249123   4.343   4.720  12.370 -0.9841 -0.4967 -0.1940
 9211TIP3    H149124   4.424   4.673  12.387 -0.2691  1.0429  0.8995
 9211TIP3    H249125   4.346   4.740  12.276  2.3582  3.6041  0.4626
 9212TIP3   OH249126   6.756   5.270   5.954 -0.2473 -0.1801 -0.2092
 9212TIP3    H149127   6.829   5.244   5.899 -0.1905 -0.2212 -0.1150
 9212TIP3    H249128   6.678   5.245   5.903 -0.1908 -1.4707  0.3010
 9213TIP3   OH249129   1.276   6.545   2.835 -0.0708  0.7002  0.1122
 9213TIP3    H149130   1.315   6.591   2.760  0.5521 -0.0585 -0.0478
 9213TIP3    H249131   1.182   6.561   2.827 -0.1542 -0.2869 -1.5065
 9214TIP3   OH249132   4.761   4.620   1.393  0.2728 -0.0912  0.2271
 9214TIP3    H149133   4.845   4.585   1.363  0.7630 -1.5865  2.9728
 9214TIP3    H249134   4.784   4.686   1.458 -0.6315 -0.7506  1.2604
 9215TIP3   OH249135   5.509   4.736  11.949  0.3365 -0.3554  0.4047
 9215TIP3    H149136   5.424   4.706  11.918  1.1360 -1.5786 -0.7032
 9215TIP3    H249137   5.564   4.739  11.871  0.9251  1.9870  0.8228
 9216TIP3   OH249138   2.808   3.560   2.132  0.5319  0.3670  0.2103
 9216TIP3    H149139   2.734   3.533   2.078  1.3571  0.0946 -0.8082
 9216TIP3    H249140   2.770   3.618   2.198 -0.2839  2.0661 -1.6642
 9217TIP3   OH249141   2.023   5.266  16.757 -0.5717 -0.6402 -0.0802
 9217TIP3    H149142   1.942   5.314  16.771 -0.1743 -0.1106  0.4685
 9217TIP3    H249143   2.000   5.175  16.777 -0.9630 -0.4514  0.3638
 9218TIP3   OH249144   4.903   4.368   0.735 -0.3161 -0.3649  0.5336
 9218TIP3    H149145   4.997   4.365   0.717 -0.3590 -1.3618  0.4425
 9218TIP3    H249146   4.888   4.296   0.796 -1.3143 -1.3501 -0.8210
 9219TIP3   OH249147   1.826   3.449  12.990  0.1552  0.1019 -0.4996
 9219TIP3    H149148   1.896   3.513  12.977  0.5912 -0.2322  0.1207
 9219TIP3    H249149   1.745   3.500  12.986  0.4044  0.4329 -1.6403
 9220TIP3   OH249150   3.513   1.018  15.160  0.1040 -0.7292 -0.0412
 9220TIP3    H149151   3.602   1.013  15.194  0.1109  0.6173  0.1905
 9220TIP3    H249152   3.484   1.107  15.180 -0.5837 -0.4953 -1.8332
 9221TIP3   OH249153   4.332   3.831  10.791 -0.2204  0.4334  0.2087
 9221TIP3    H149154   4.271   3.905  10.798 -0.8831 -0.1946  1.5888
 9221TIP3    H249155   4.324   3.802  10.700 -0.7758  1.3753 -0.0581
 9222TIP3   OH249156   2.527   4.199  16.586  0.2288 -0.6011  0.4744
 9222TIP3    H149157   2.513   4.110  16.619 -1.0564  0.2251  2.2950
 9222TIP3    H249158   2.448   4.247  16.612  1.6425  1.5048  1.1143
 9223TIP3   OH249159   3.620   4.543   1.420 -0.5361 -0.3883 -0.6145
 9223TIP3    H149160   3.526   4.534   1.436 -0.6939 -0.4052 -1.4868
 9223TIP3    H249161   3.650   4.604   1.487 -1.5413  1.1560 -1.5160
 9224TIP3   OH249162   6.152   2.973  17.242  0.0581 -0.6852 -0.1770
 9224TIP3    H149163   6.111   3.040  17.296  1.9114  0.6866 -0.3522
 9224TIP3    H249164   6.136   2.891  17.289 -1.6365 -0.0583  0.4228
 9225TIP3   OH249165   4.875   2.380  15.270  0.0269  0.0903  0.0709
 9225TIP3    H149166   4.916   2.296  15.291  1.1472  0.3451 -1.0109
 9225TIP3    H249167   4.810   2.392  15.339 -1.4004 -2.4853 -0.6855
 9226TIP3   OH249168   4.502   5.780  12.372  0.0149  0.0913 -0.0600
 9226TIP3    H149169   4.561   5.826  12.432  0.0759 -0.4192  0.2761
 9226TIP3    H249170   4.480   5.699  12.418 -0.9711  0.2925 -0.1735
 9227TIP3   OH249171   2.610   1.234  16.677 -0.5503  0.1026  0.0677
 9227TIP3    H149172   2.573   1.160  16.628 -1.6311 -0.2123  1.2895
 9227TIP3    H249173   2.618   1.304  16.612 -1.2501 -0.5254 -0.7257
 9228TIP3   OH249174   4.387   4.841  15.860  0.0199 -0.1852 -0.1885
 9228TIP3    H149175   4.358   4.931  15.842  0.0355 -0.2528 -0.5532
 9228TIP3    H249176   4.482   4.849  15.868 -0.0058 -0.1206  0.0813
 9229TIP3   OH249177   3.756   2.198   5.288 -0.1633  0.6436  0.4849
 9229TIP3    H149178   3.753   2.102   5.281  0.6133  0.6166  0.4513
 9229TIP3    H249179   3.796   2.227   5.206  1.0150  0.8890  1.1219
 9230TIP3   OH249180   6.632   2.942   0.704  0.1597  0.5645  0.0433
 9230TIP3    H149181   6.712   2.985   0.733  0.0466  1.5559 -1.0878
 9230TIP3    H249182   6.641   2.934   0.609 -0.9139  0.3451 -0.0553
 9231TIP3   OH249183   0.952   2.800  16.182 -0.7465  0.1943  0.6362
 9231TIP3    H149184   1.034   2.847  16.170 -0.5029  0.2853  2.3365
 9231TIP3    H249185   0.946   2.742  16.107 -0.3519  1.9078 -0.7962
 9232TIP3   OH249186   2.071   4.506  14.787  0.0371 -0.8202 -0.1981
 9232TIP3    H149187   2.101   4.553  14.864 -0.2486  0.9331 -1.1040
 9232TIP3    H249188   1.990   4.463  14.814  1.1458 -2.2305  1.1049
 9233TIP3   OH249189   0.811   6.246  11.037  0.0211 -0.3577 -0.2404
 9233TIP3    H149190   0.739   6.217  11.093 -1.0629 -0.3984 -1.6147
 9233TIP3    H249191   0.890   6.229  11.089 -1.0341  3.0377  2.8616
 9234TIP3   OH249192   1.858   1.971  11.811 -0.1068 -0.1857 -0.6499
 9234TIP3    H149193   1.801   1.900  11.781  1.0515 -1.4300  0.0231
 9234TIP3    H249194   1.819   2.050  11.773 -0.2565 -1.3648 -3.1641
 9235TIP3   OH249195   6.792   6.040  13.966  0.3395  0.0392 -0.4107
 9235TIP3    H149196   6.767   6.122  13.923  3.7987  2.2304  1.2992
 9235TIP3    H249197   6.885   6.051  13.986  0.0816 -2.7558  3.3138
 9236TIP3   OH249198   4.063   4.676   4.777 -0.1695  0.0972 -0.5035
 9236TIP3    H149199   4.126   4.606   4.794 -0.4554 -0.0548 -0.0667
 9236TIP3    H249200   3.980   4.644   4.814  0.3020  1.8421  2.3913
 9237TIP3   OH249201   4.583   4.828  16.094  0.0382  0.0083 -0.0780
 9237TIP3    H149202   4.639   4.774  16.039 -0.9766 -0.4383 -0.7171
 9237TIP3    H249203   4.503   4.775  16.105 -1.2565  1.6001 -1.2641
 9238TIP3   OH249204   5.964   2.545   1.844 -0.1395 -0.2038  0.6379
 9238TIP3    H149205   5.923   2.468   1.805 -0.4240 -0.1584  0.8444
 9238TIP3    H249206   6.036   2.567   1.784  1.1199 -1.7290  1.5201
 9239TIP3   OH249207   5.091   3.955   3.574 -0.6115  0.4310 -0.7828
 9239TIP3    H149208   5.080   3.868   3.614  2.0450 -0.2593 -1.3932
 9239TIP3    H249209   5.013   4.004   3.602 -1.6191 -1.7726  0.5228
 9240TIP3   OH249210   2.542   5.259  14.299  0.1383 -0.5543  0.1540
 9240TIP3    H149211   2.460   5.307  14.286  0.1667 -0.3802  0.5886
 9240TIP3    H249212   2.592   5.277  14.220 -0.0306 -0.2216  0.1177
 9241TIP3   OH249213   6.408   5.809   6.680  0.1815  0.0680 -0.1195
 9241TIP3    H149214   6.326   5.820   6.729  0.2546 -0.8811  0.2237
 9241TIP3    H249215   6.432   5.717   6.692  0.2968 -0.1605 -1.7863
 9242TIP3   OH249216   3.349   1.971   5.470 -0.4324 -0.0867 -0.1741
 9242TIP3    H149217   3.263   2.003   5.445 -0.0200  0.9292 -0.3413
 9242TIP3    H249218   3.362   2.004   5.559  0.0058  0.2347 -0.3537
 9243TIP3   OH249219   6.242   4.947   5.664  0.5055  0.5186 -0.3700
 9243TIP3    H149220   6.240   4.938   5.759  1.6943 -0.4519 -0.4061
 9243TIP3    H249221   6.253   4.858   5.631 -1.4523  0.6489 -1.5146
 9244TIP3   OH249222   0.878   6.732  12.697 -0.1595  0.1446 -0.3933
 9244TIP3    H149223   0.811   6.758  12.759 -0.5499 -1.6943  0.0192
 9244TIP3    H249224   0.852   6.774  12.615  0.5320  2.8511  0.6582
 9245TIP3   OH249225   4.124   5.932   2.394 -0.3040 -0.1212  0.0355
 9245TIP3    H149226   4.034   5.919   2.363 -0.0711 -0.6093 -0.4687
 9245TIP3    H249227   4.168   5.975   2.321  0.3444 -1.6015 -0.4852
 9246TIP3   OH249228   1.740   3.193   1.793  0.2576  0.1579  0.3583
 9246TIP3    H149229   1.766   3.181   1.884  0.5730  2.4462  0.6333
 9246TIP3    H249230   1.823   3.192   1.744  0.1020 -0.9225  0.1069
 9247TIP3   OH249231   0.105   1.165  11.708 -0.0430  0.3108  0.0615
 9247TIP3    H149232   0.165   1.106  11.662  0.4574  0.1683  0.8778
 9247TIP3    H249233   0.035   1.108  11.740 -0.8505  0.5395 -1.2514
 9248TIP3   OH249234   4.262   4.059   0.703  0.2646  0.2595 -0.1797
 9248TIP3    H149235   4.259   4.009   0.622 -0.4428 -0.8640  0.5138
 9248TIP3    H249236   4.290   4.147   0.677 -1.3541  0.3212 -1.8253
 9249TIP3   OH249237   3.285   4.739   0.783 -0.4911  0.2845 -0.7947
 9249TIP3    H149238   3.351   4.753   0.850 -1.3176 -2.3053  0.7109
 9249TIP3    H249239   3.296   4.813   0.722 -0.8080  3.8281  3.0021
 9250TIP3   OH249240   0.497   3.091   4.594 -0.2435 -0.6297 -0.2261
 9250TIP3    H149241   0.553   3.028   4.548 -0.2111 -0.6345 -0.1800
 9250TIP3    H249242   0.536   3.176   4.576 -0.9321 -0.5115 -1.2246
 9251TIP3   OH249243   2.641   0.706   2.385 -0.3959  0.1169 -0.8622
 9251TIP3    H149244   2.699   0.631   2.373 -1.8488 -0.9794 -1.2678
 9251TIP3    H249245   2.670   0.745   2.468 -0.5870 -1.8045  0.1520
 9252TIP3   OH249246   3.337   5.232   0.969  0.1881  0.2588 -1.1606
 9252TIP3    H149247   3.272   5.295   0.999  0.4743 -0.1195  0.3865
 9252TIP3    H249248   3.289   5.149   0.963  0.2916  0.1876 -1.0206
 9253TIP3   OH249249   4.930   4.042   2.224 -0.5888  0.5699  0.3135
 9253TIP3    H149250   4.892   4.027   2.310 -0.1397 -1.6187  0.2106
 9253TIP3    H249251   4.978   4.124   2.232 -0.3987  0.3212  2.2123
 9254TIP3   OH249252   4.705   0.149  13.668  0.9125  0.0881  0.2222
 9254TIP3    H149253   4.653   0.131  13.747  1.9060 -1.7427  0.5170
 9254TIP3    H249254   4.640   0.166  13.600 -0.1414 -2.3235  0.5324
 9255TIP3   OH249255   2.112   1.680  10.928  0.2008  0.4550 -0.2116
 9255TIP3    H149256   2.031   1.641  10.960  0.3086  0.8123  0.5061
 9255TIP3    H249257   2.179   1.614  10.947 -0.0783 -0.4280 -2.0027
 9256TIP3   OH249258   1.364   3.939   0.340 -0.0533  0.2369 -0.4341
 9256TIP3    H149259   1.454   3.919   0.312  0.1668 -0.4879  0.7507
 9256TIP3    H249260   1.347   4.025   0.302  1.4163  0.7375 -0.0420
 9257TIP3   OH249261   6.543   5.415   4.524 -0.0703  0.1153  0.3676
 9257TIP3    H149262   6.635   5.417   4.550 -0.4840 -1.8642  2.2073
 9257TIP3    H249263   6.522   5.322   4.518 -1.7013  0.5234 -1.1198
 9258TIP3   OH249264   5.851   5.531  14.506  0.2797 -0.8644  0.5549
 9258TIP3    H149265   5.785   5.471  14.472  0.5106 -0.8974  0.1574
 9258TIP3    H249266   5.934   5.496  14.475  0.4082 -0.2679  0.1992
 9259TIP3   OH249267   4.696   4.185   6.268 -0.0804 -0.0803  0.4204
 9259TIP3    H149268   4.734   4.129   6.336  1.0302  0.2781  0.1328
 9259TIP3    H249269   4.668   4.263   6.315  0.1115 -0.0937  0.5623
 9260TIP3   OH249270   3.536   4.268  11.596 -0.2322 -0.0818 -0.3364
 9260TIP3    H149271   3.493   4.317  11.666  1.4619 -0.2155  0.8578
 9260TIP3    H249272   3.481   4.190  11.585 -0.9812  0.3434  0.2645
 9261TIP3   OH249273   3.767   5.943   2.909  0.2096  0.5142 -0.0524
 9261TIP3    H149274   3.780   5.905   2.996  2.4356  0.8596 -0.1739
 9261TIP3    H249275   3.694   6.004   2.920  0.9092  1.0779  1.7643
 9262TIP3   OH249276   2.644   4.749   0.922 -0.1370 -0.0143  0.1248
 9262TIP3    H149277   2.717   4.772   0.980 -0.7586  0.9078  0.5700
 9262TIP3    H249278   2.569   4.796   0.958 -1.0535 -1.2582 -0.0920
 9263TIP3   OH249279   2.254   6.303  12.217  0.3029 -0.1699  0.0953
 9263TIP3    H149280   2.248   6.354  12.298 -0.0976 -0.1682  0.0646
 9263TIP3    H249281   2.216   6.359  12.150 -0.9672 -0.8457  0.2170
 9264TIP3   OH249282   4.370   4.343   1.949  0.7601  0.3149  0.0597
 9264TIP3    H149283   4.413   4.363   1.866  0.7378 -0.1542 -0.0682
 9264TIP3    H249284   4.342   4.251   1.940  0.3144  0.4133  0.3885
 9265TIP3   OH249285   5.245   3.089   2.246  0.7225 -0.3332 -0.1154
 9265TIP3    H149286   5.271   3.056   2.160  0.5523  1.0093 -0.7214
 9265TIP3    H249287   5.174   3.151   2.226  0.8917  0.2209  0.9653
 9266TIP3   OH249288   3.401   3.720  17.284 -0.3993 -0.8103 -0.3164
 9266TIP3    H149289   3.356   3.803  17.271 -1.5246 -1.2522  0.6218
 9266TIP3    H249290   3.478   3.726  17.228 -0.7766  0.6151 -0.7265
 9267TIP3   OH249291   3.038   6.115  16.656  0.1120 -0.1100  0.4953
 9267TIP3    H149292   2.969   6.094  16.594 -1.3039  2.4846  1.0849
 9267TIP3    H249293   2.998   6.103  16.742  1.4949 -1.8594  0.9685
 9268TIP3   OH249294   6.212   5.532   3.422 -0.4024  0.4416 -0.7044
 9268TIP3    H149295   6.307   5.534   3.428 -0.3938  0.5905 -0.8631
 9268TIP3    H249296   6.187   5.446   3.457 -0.1241 -0.1300 -1.8719
 9269TIP3   OH249297   3.412   6.603   1.982 -0.3282 -0.2522 -0.5891
 9269TIP3    H149298   3.371   6.533   2.032 -0.4198  0.6378  0.6351
 9269TIP3    H249299   3.342   6.638   1.927 -1.0629  0.7315  0.8963
 9270TIP3   OH249300   1.859   0.798   1.521 -0.2409 -0.1654 -0.2011
 9270TIP3    H149301   1.823   0.752   1.446 -0.6045  0.4738 -0.4143
 9270TIP3    H249302   1.942   0.833   1.490 -0.5068  0.3087 -0.3761
 9271TIP3   OH249303   4.391   0.946   4.460 -0.1751 -0.4662  0.8732
 9271TIP3    H149304   4.310   0.947   4.511 -0.6625 -0.5885  0.1165
 9271TIP3    H249305   4.392   0.861   4.417 -0.9678  0.4840 -1.1691
 9272TIP3   OH249306   6.177   5.527  13.613  0.0457  0.4022  0.0831
 9272TIP3    H149307   6.244   5.462  13.634 -0.4209 -0.0861  0.0885
 9272TIP3    H249308   6.112   5.478  13.563 -1.5005  0.2672  2.1000
 9273TIP3   OH249309   3.585   1.877   3.973  0.1369 -0.1608  0.2644
 9273TIP3    H149310   3.594   1.967   3.942 -3.5051  0.1409 -0.3259
 9273TIP3    H249311   3.583   1.824   3.893 -0.4220 -0.4087  0.4338
 9274TIP3   OH249312   1.928   1.901   0.653 -0.2417  0.5818 -0.5415
 9274TIP3    H149313   1.861   1.960   0.618 -2.0156  0.4752  2.3585
 9274TIP3    H249314   1.941   1.931   0.743  2.7727 -0.2083 -0.5938
 9275TIP3   OH249315   2.937   0.251  14.756  0.2050  0.5054  0.6305
 9275TIP3    H149316   2.987   0.210  14.827 -1.0579 -0.4437  1.0091
 9275TIP3    H249317   2.995   0.247  14.680  0.8306 -0.2391  1.1339
 9276TIP3   OH249318   4.085   1.162  12.153  0.1000  0.2899 -0.2439
 9276TIP3    H149319   4.133   1.206  12.223  1.6005  0.3646 -1.2794
 9276TIP3    H249320   4.107   1.211  12.073 -0.9286 -0.2824 -0.9112
 9277TIP3   OH249321   6.273   4.286   4.457  0.3709 -0.4494 -0.0214
 9277TIP3    H149322   6.246   4.195   4.444  1.2182 -0.5277 -1.4068
 9277TIP3    H249323   6.194   4.337   4.438  0.5663 -0.7807 -1.9256
 9278TIP3   OH249324   0.836   4.496  11.604  0.6873 -0.2783 -0.0041
 9278TIP3    H149325   0.898   4.518  11.673  2.3511 -1.2929 -1.1102
 9278TIP3    H249326   0.797   4.413  11.632  0.4166 -0.0585  0.2880
 9279TIP3   OH249327   2.887   5.611   5.978  0.3739  0.0606 -0.4252
 9279TIP3    H149328   2.957   5.675   5.995  1.4725  0.0224 -3.9741
 9279TIP3    H249329   2.932   5.526   5.977 -0.7167 -0.6657  2.1162
 9280TIP3   OH249330   5.273   0.671  11.765 -0.2781  0.3277  1.0601
 9280TIP3    H149331   5.213   0.617  11.713  2.2697 -0.4328 -1.2844
 9280TIP3    H249332   5.285   0.622  11.846  0.5772 -1.8295 -0.2850
 9281TIP3   OH249333   6.630   1.929  16.688  0.2500 -0.1851 -0.0900
 9281TIP3    H149334   6.545   1.899  16.656 -0.1581  1.5908 -0.7809
 9281TIP3    H249335   6.689   1.923  16.613  0.1339  0.8118 -0.2689
 9282TIP3   OH249336   5.930   0.077   5.818  0.2680 -0.0175  0.0601
 9282TIP3    H149337   5.976   0.070   5.734  2.1638  0.0733  1.0552
 9282TIP3    H249338   5.932   0.170   5.840 -0.5638  0.0148  0.0514
 9283TIP3   OH249339   2.094   3.774  17.004  0.1887 -0.1131  0.4264
 9283TIP3    H149340   2.074   3.823  16.924  3.0408  0.7102  0.1092
 9283TIP3    H249341   2.139   3.695  16.972  1.4365  0.2708  1.1648
 9284TIP3   OH249342   3.423   1.451  14.625 -0.4126  0.2362 -0.2843
 9284TIP3    H149343   3.514   1.451  14.597 -0.6101  0.2404 -0.9479
 9284TIP3    H249344   3.402   1.544  14.637 -0.8574  0.3825 -1.9481
 9285TIP3   OH249345   3.254   5.295  12.467 -0.2348  0.4447 -0.1368
 9285TIP3    H149346   3.316   5.307  12.395 -0.4731  1.6053 -0.1675
 9285TIP3    H249347   3.309   5.296  12.546 -0.2009  1.6751 -0.1487
 9286TIP3   OH249348   6.560   4.312  12.616 -0.1682  0.0002  0.0285
 9286TIP3    H149349   6.507   4.371  12.669 -0.3796 -0.5093  0.4003
 9286TIP3    H249350   6.649   4.326  12.646 -0.3400 -0.6288  0.8723
 9287TIP3   OH249351   2.613   2.944   0.644 -0.3777 -0.0930 -0.2546
 9287TIP3    H149352   2.573   3.019   0.690 -0.6755  0.9575 -2.1195
 9287TIP3    H249353   2.544   2.878   0.642 -1.7123  1.2461 -2.3557
 9288TIP3   OH249354   0.390   4.652  12.601 -0.0716 -0.3390  0.3686
 9288TIP3    H149355   0.439   4.720  12.556  1.4806 -1.1078  0.8406
 9288TIP3    H249356   0.385   4.682  12.692 -0.9797 -0.0148  0.2291
 9289TIP3   OH249357   0.969   3.698   5.040  0.2310 -0.0636 -0.2795
 9289TIP3    H149358   1.006   3.786   5.045  2.4925 -0.7570 -2.3868
 9289TIP3    H249359   1.029   3.644   5.092 -2.3907 -0.1995  2.9799
 9290TIP3   OH249360   6.818   3.273  13.507 -0.3002 -0.2609 -0.6513
 9290TIP3    H149361   6.911   3.290  13.519 -0.2714 -1.9892  3.0544
 9290TIP3    H249362   6.774   3.352  13.537 -0.0518 -0.0056 -0.9586
 9291TIP3   OH249363   2.417   4.649   3.540 -0.2154  0.3075  0.3410
 9291TIP3    H149364   2.422   4.664   3.446  0.2864  1.9118  0.5993
 9291TIP3    H249365   2.501   4.682   3.574 -0.4819 -0.0407  1.3756
 9292TIP3   OH249366   4.089   3.235  14.567  0.3088  0.1702 -0.3539
 9292TIP3    H149367   4.108   3.273  14.652  0.5331  0.7676 -0.6699
 9292TIP3    H249368   3.993   3.227  14.565  0.3815 -1.2830  0.5607
 9293TIP3   OH249369   1.197   2.254   4.667  0.3206 -0.1209 -0.5747
 9293TIP3    H149370   1.274   2.204   4.695  0.0406 -0.4867 -0.4579
 9293TIP3    H249371   1.139   2.253   4.743 -0.2331 -0.7011 -1.0037
 9294TIP3   OH249372   3.341   3.805   0.988 -0.1679 -0.0853  0.0154
 9294TIP3    H149373   3.381   3.889   0.965  0.7013 -0.3167  0.6271
 9294TIP3    H249374   3.354   3.750   0.911  0.1777  0.0309 -0.0117
 9295TIP3   OH249375   0.760   1.753  12.607  0.0459  0.3889  0.0931
 9295TIP3    H149376   0.817   1.830  12.613  0.6720  0.0206 -0.8871
 9295TIP3    H249377   0.817   1.679  12.626  0.6826 -0.2582 -3.5283
 9296TIP3   OH249378   3.047   1.680  16.288  0.6621  0.0684  0.2701
 9296TIP3    H149379   3.044   1.767  16.249 -2.0582 -0.5006 -1.0466
 9296TIP3    H249380   3.071   1.622  16.215 -0.5538 -0.5661  0.3408
 9297TIP3   OH249381   3.769   4.975   4.473 -0.0659  0.2786 -0.3461
 9297TIP3    H149382   3.677   4.989   4.496 -0.3787 -0.1090 -1.3141
 9297TIP3    H249383   3.781   4.880   4.478  0.4384  0.3692  0.3179
 9298TIP3   OH249384   6.466   5.697  16.022  0.1551 -0.2801 -0.2016
 9298TIP3    H149385   6.469   5.787  15.990  1.8036 -0.1290  0.2724
 9298TIP3    H249386   6.531   5.651  15.969  0.3495 -0.8488  0.5166
 9299TIP3   OH249387   1.546   4.108   3.706  0.4530 -0.1532  0.5164
 9299TIP3    H149388   1.481   4.167   3.668  0.3646  0.8505  2.1090
 9299TIP3    H249389   1.629   4.134   3.666 -0.0415 -1.3399 -1.4145
 9300TIP3   OH249390   4.391   5.783  13.407  0.8538  0.4499 -0.2316
 9300TIP3    H149391   4.467   5.790  13.464  0.9373  1.6128 -0.4595
 9300TIP3    H249392   4.319   5.760  13.466  1.0898  0.8711  0.2345
 9301TIP3   OH249393   2.651   4.371   7.178  0.6378 -0.1939  0.1707
 9301TIP3    H149394   2.725   4.427   7.199  0.5641  0.4375 -1.1747
 9301TIP3    H249395   2.662   4.295   7.235  2.3772 -0.1636 -0.0676
 9302TIP3   OH249396   1.402   3.769  12.981  0.6920  0.2073 -0.2808
 9302TIP3    H149397   1.401   3.825  12.904 -1.1114  0.6842  0.0605
 9302TIP3    H249398   1.310   3.751  12.999  1.1711 -1.4722  0.6363
 9303TIP3   OH249399   0.727   2.362   4.007  0.0310  0.1695 -0.2572
 9303TIP3    H149400   0.695   2.399   4.089 -0.0260  0.6512 -0.4982
 9303TIP3    H249401   0.660   2.382   3.943 -0.2689 -0.8474 -0.2756
 9304TIP3   OH249402   4.316   2.053   2.072  0.3546  0.5104 -0.1387
 9304TIP3    H149403   4.244   2.014   2.024  0.6139 -0.2066  0.0429
 9304TIP3    H249404   4.366   1.978   2.105  0.6884  0.9953  0.4697
 9305TIP3   OH249405   4.795   6.544   3.898  0.8927  0.1026  0.0465
 9305TIP3    H149406   4.787   6.560   3.992 -0.6604 -1.6289  0.2587
 9305TIP3    H249407   4.722   6.593   3.859 -0.4531 -1.7148  0.1360
 9306TIP3   OH249408   4.466   3.079  11.124 -0.5369  0.1599 -0.3506
 9306TIP3    H149409   4.381   3.041  11.145 -0.2704  0.0823  0.6637
 9306TIP3    H249410   4.495   3.030  11.047 -0.5709 -1.1695  0.4329
 9307TIP3   OH249411   2.432   2.223  16.032 -0.5531 -0.3035  0.0815
 9307TIP3    H149412   2.484   2.295  16.066  0.0070  0.0178 -1.3492
 9307TIP3    H249413   2.463   2.146  16.079  1.8170 -0.2456 -1.2154
 9308TIP3   OH249414   1.421   2.374  16.858 -0.0547 -1.0259 -0.2009
 9308TIP3    H149415   1.449   2.291  16.896  0.2914 -0.3818  0.9970
 9308TIP3    H249416   1.328   2.360  16.837 -0.0985 -1.5932  0.3330
 9309TIP3   OH249417   6.744   6.341   6.100  0.5286 -0.1812  0.4097
 9309TIP3    H149418   6.724   6.310   6.189 -0.8709  0.4628  0.3369
 9309TIP3    H249419   6.759   6.435   6.111 -1.6928  0.2974 -0.3094
 9310TIP3   OH249420   1.961   3.322  15.103 -0.4368 -0.1828 -0.3738
 9310TIP3    H149421   2.029   3.302  15.167 -2.3245 -0.0588  1.8395
 9310TIP3    H249422   1.944   3.238  15.059 -1.2662 -1.1381  1.6143
 9311TIP3   OH249423   4.096   3.344  15.134  0.2552  0.2409 -0.3795
 9311TIP3    H149424   4.191   3.332  15.131  0.5683  2.3926 -0.0205
 9311TIP3    H249425   4.081   3.428  15.092 -1.4270  0.3166  0.3047
 9312TIP3   OH249426   4.704   1.048   4.199  0.0749 -0.5559 -0.1049
 9312TIP3    H149427   4.648   1.092   4.135  0.4517  0.2012  0.0720
 9312TIP3    H249428   4.707   0.957   4.170  0.2913 -0.2087 -1.2167
 9313TIP3   OH249429   4.495   5.017   1.871 -0.4114  0.5395  0.3352
 9313TIP3    H149430   4.451   5.098   1.896 -1.6040  0.5158 -1.5011
 9313TIP3    H249431   4.501   4.967   1.953 -1.7934  1.4939  1.0620
 9314TIP3   OH249432   0.209   6.507   3.872  0.0820 -0.5547 -0.5023
 9314TIP3    H149433   0.223   6.476   3.961 -0.1592  0.5712 -0.0510
 9314TIP3    H249434   0.122   6.474   3.849  0.6795 -1.9607 -0.8347
 9315TIP3   OH249435   5.809   2.818  15.455  0.1126  0.4125  0.0206
 9315TIP3    H149436   5.753   2.895  15.456  0.5572  0.7403 -0.2261
 9315TIP3    H249437   5.756   2.751  15.411 -0.2235  0.6093  0.1217
 9316TIP3   OH249438   0.980   4.388   5.728  0.5304  0.0583 -0.4262
 9316TIP3    H149439   1.064   4.416   5.767  0.1705 -0.2152  0.5739
 9316TIP3    H249440   0.976   4.434   5.645  1.9378 -0.3468 -0.7452
 9317TIP3   OH249441   4.996   5.270  15.964  0.0622 -0.1018 -0.1505
 9317TIP3    H149442   4.908   5.263  16.001  0.2885 -0.4489  0.3323
 9317TIP3    H249443   4.986   5.240  15.874 -0.3507  0.0409 -0.1548
 9318TIP3   OH249444   6.069   6.799   6.083  0.6817  0.1896  0.1923
 9318TIP3    H149445   6.037   6.719   6.042  0.7852  1.1915 -1.9619
 9318TIP3    H249446   5.998   6.862   6.071  1.0935  0.7670  0.7349
 9319TIP3   OH249447   0.658   4.869   0.011 -0.8720  0.1182  0.3580
 9319TIP3    H149448   0.594   4.800  -0.004 -1.3224  0.3526  1.1559
 9319TIP3    H249449   0.705   4.877  -0.072 -1.6406 -0.2953 -0.1237
 9320TIP3   OH249450   5.472   2.414  10.839  0.6095  0.6026  0.1781
 9320TIP3    H149451   5.430   2.365  10.768  0.2383  0.5048  0.4564
 9320TIP3    H249452   5.423   2.387  10.917  0.4460  1.3642  0.3426
 9321TIP3   OH249453   1.241   3.906   2.412 -0.4058  0.1546  0.0001
 9321TIP3    H149454   1.281   3.952   2.486  1.1829  0.1129 -0.7990
 9321TIP3    H249455   1.214   3.975   2.352  1.0876  0.1337 -0.7475
 9322TIP3   OH249456   4.057   2.485   4.237 -0.8105  0.4268 -0.3195
 9322TIP3    H149457   4.043   2.393   4.258  0.4462  0.4029  0.4394
 9322TIP3    H249458   4.016   2.533   4.309 -1.2935  0.4657 -0.6155
 9323TIP3   OH249459   3.030   4.459   5.674 -0.9697  0.3308  0.6490
 9323TIP3    H149460   3.045   4.371   5.638  0.3977  0.6295  0.4400
 9323TIP3    H249461   2.935   4.466   5.678 -1.1737 -0.3602 -1.3561
 9324TIP3   OH249462   1.322   1.998  12.865 -0.2165  0.4376  0.7608
 9324TIP3    H149463   1.398   1.963  12.818 -1.4116 -0.5049 -0.5917
 9324TIP3    H249464   1.346   2.087  12.888  0.2497  1.2232 -2.3068
 9325TIP3   OH249465   6.110   5.583  15.687  0.5619 -0.4444  0.1552
 9325TIP3    H149466   6.136   5.609  15.775 -0.1850 -1.3901  0.6773
 9325TIP3    H249467   6.142   5.653  15.630  1.9923 -0.3476  1.0469
 9326TIP3   OH249468   4.951   4.703  17.168 -0.1796 -0.0259  0.1679
 9326TIP3    H149469   4.879   4.659  17.123 -0.3633 -1.3267  1.6355
 9326TIP3    H249470   4.929   4.694  17.261  1.3849  0.4247  0.6040
 9327TIP3   OH249471   5.209   2.910   0.870  0.2292 -0.0199 -0.3537
 9327TIP3    H149472   5.159   2.830   0.885  0.1192 -0.2266 -1.7061
 9327TIP3    H249473   5.145   2.980   0.878  0.5215  0.0501  1.8663
 9328TIP3   OH249474   5.086   3.383  15.495  0.5063 -0.2350  0.1648
 9328TIP3    H149475   5.054   3.463  15.454 -0.8927 -0.3252  1.0232
 9328TIP3    H249476   5.120   3.330  15.422  0.9928  0.9182 -0.4648
 9329TIP3   OH249477   2.994   3.904  12.416  0.3128 -0.5787 -0.0110
 9329TIP3    H149478   3.063   3.962  12.384 -0.0712  0.2882  0.6812
 9329TIP3    H249479   3.031   3.865  12.496 -0.7626  1.6212  1.6586
 9330TIP3   OH249480   2.155   2.482   4.567 -0.1128  0.2652  0.8055
 9330TIP3    H149481   2.172   2.458   4.476 -0.4947 -0.0727  0.8166
 9330TIP3    H249482   2.144   2.577   4.565 -0.2082  0.2493  0.4823
 9331TIP3   OH249483   6.177   1.968  13.168  0.1614  0.0759 -0.0142
 9331TIP3    H149484   6.258   1.962  13.218  0.7207 -2.0128 -1.0616
 9331TIP3    H249485   6.202   1.946  13.078 -1.6348 -1.2766 -0.2484
 9332TIP3   OH249486   6.696   3.672  17.093 -0.3146 -0.2999 -0.0351
 9332TIP3    H149487   6.756   3.607  17.055  0.5531  0.4684 -0.0110
 9332TIP3    H249488   6.667   3.725  17.019 -1.2927 -0.9114 -0.1036
 9333TIP3   OH249489   0.255   6.593  15.545 -0.0847  0.3441 -0.4298
 9333TIP3    H149490   0.335   6.638  15.568  0.2618 -0.0720 -0.7911
 9333TIP3    H249491   0.284   6.513  15.501 -0.6816  1.2933 -2.7251
 9334TIP3   OH249492   4.491   2.385  12.198 -0.0021 -0.2432  0.1287
 9334TIP3    H149493   4.488   2.407  12.105 -0.7477  0.6158  0.3316
 9334TIP3    H249494   4.575   2.341  12.210  0.5597  0.5378 -0.7594
 9335TIP3   OH249495   0.308   1.025   4.824  0.3031  0.8776 -0.3280
 9335TIP3    H149496   0.376   1.009   4.759  0.3660 -1.9905  0.3392
 9335TIP3    H249497   0.355   1.060   4.900  0.6178  1.5247 -0.8109
 9336TIP3   OH249498   4.113   5.384  16.749 -0.1309  0.8444 -0.3646
 9336TIP3    H149499   4.181   5.450  16.733  0.7631 -0.1108 -0.5792
 9336TIP3    H249500   4.110   5.334  16.668 -1.8020  1.4732 -0.7337
 9337TIP3   OH249501   2.657   4.261   3.562  0.2634  0.5014  0.7706
 9337TIP3    H149502   2.746   4.230   3.546  0.0166 -0.7704  1.7178
 9337TIP3    H249503   2.611   4.249   3.479  0.5745 -0.2775  0.7103
 9338TIP3   OH249504   4.372   6.322  15.089 -0.5164 -0.0350  0.0002
 9338TIP3    H149505   4.401   6.231  15.097  0.6030  0.0985 -1.8866
 9338TIP3    H249506   4.411   6.352  15.007 -2.0615  1.7143 -0.1577
 9339TIP3   OH249507   4.894   6.664   2.807 -0.2444  0.2735 -0.2433
 9339TIP3    H149508   4.867   6.747   2.846 -1.2796 -0.7632  1.3522
 9339TIP3    H249509   4.871   6.672   2.714 -2.0985  1.0853  0.2426
 9340TIP3   OH249510   1.405   5.870   1.929  0.7832  0.2634 -0.8932
 9340TIP3    H149511   1.378   5.836   2.014  2.2465  0.2188 -0.4173
 9340TIP3    H249512   1.329   5.919   1.898 -0.9424 -2.2640 -1.0000
 9341TIP3   OH249513   0.326   3.878   3.266  0.3858  0.3113 -0.1297
 9341TIP3    H149514   0.258   3.842   3.208  1.5685 -0.5797 -1.0225
 9341TIP3    H249515   0.341   3.809   3.331 -1.4265  1.5773  1.7515
 9342TIP3   OH249516   3.667   2.853   4.399 -0.1334 -0.0448 -0.4778
 9342TIP3    H149517   3.719   2.934   4.401  0.7592 -0.6017  1.1912
 9342TIP3    H249518   3.717   2.791   4.452 -1.9572 -0.9753  0.2618
 9343TIP3   OH249519   3.537   2.935  14.502  0.1339 -0.2894  0.6098
 9343TIP3    H149520   3.606   2.891  14.451 -0.0354 -1.7541  1.5808
 9343TIP3    H249521   3.564   2.924  14.593 -1.0533 -0.3304  0.9673
 9344TIP3   OH249522   5.402   2.487   4.445 -0.7145  0.0825 -0.6234
 9344TIP3    H149523   5.427   2.547   4.375  1.2736  0.1651  0.0881
 9344TIP3    H249524   5.485   2.447   4.473 -1.7274 -1.4596  0.3094
 9345TIP3   OH249525   1.415   1.625   2.330 -0.5747  0.0806 -0.5548
 9345TIP3    H149526   1.467   1.666   2.399  0.1348 -1.3773 -0.1857
 9345TIP3    H249527   1.467   1.639   2.250 -1.0565  1.1571 -0.6935
 9346TIP3   OH249528   2.069   1.934  10.929  0.2224 -0.5900  0.5400
 9346TIP3    H149529   2.096   1.846  10.906  1.2381 -1.0614  3.2139
 9346TIP3    H249530   1.991   1.922  10.984 -1.4001  0.4058 -1.3825
 9347TIP3   OH249531   1.686   0.790   5.022 -0.6002  0.1726 -0.2131
 9347TIP3    H149532   1.668   0.785   5.116  0.7581 -1.3587 -0.0064
 9347TIP3    H249533   1.769   0.746   5.011  1.7043  4.3108 -1.5504
 9348TIP3   OH249534   3.724   1.060  11.264 -0.2659  0.0841 -0.1540
 9348TIP3    H149535   3.734   0.989  11.201 -0.2797  0.8905 -1.1006
 9348TIP3    H249536   3.813   1.086  11.286 -0.1925 -1.5911  1.8584
 9349TIP3   OH249537   5.919   2.007  13.609 -0.3613 -0.3319  0.2262
 9349TIP3    H149538   5.977   1.960  13.549  0.0685  0.3359  0.1049
 9349TIP3    H249539   5.921   2.098  13.577 -0.2351  0.0021  1.1741
 9350TIP3   OH249540   5.638   2.866   2.814 -0.1370  0.1287  0.5700
 9350TIP3    H149541   5.659   2.803   2.883  0.1601  0.7059  1.0032
 9350TIP3    H249542   5.646   2.815   2.733  1.0580 -0.1559  0.8550
 9351TIP3   OH249543   0.633   2.981   1.466 -0.2384 -0.4973 -0.3513
 9351TIP3    H149544   0.572   2.960   1.536 -1.8343  0.1785 -1.4525
 9351TIP3    H249545   0.577   3.010   1.394  1.4573  2.2308 -0.7306
 9352TIP3   OH249546   6.369   5.203   0.733 -0.0249 -0.4982  0.1225
 9352TIP3    H149547   6.278   5.175   0.731 -0.7054  1.5411 -1.7266
 9352TIP3    H249548   6.406   5.170   0.651  0.4383  0.0387  0.1088
 9353TIP3   OH249549   0.668   3.403  15.459 -0.8276 -0.1708  0.0919
 9353TIP3    H149550   0.611   3.461  15.410 -1.9357 -1.3647 -0.0733
 9353TIP3    H249551   0.612   3.366  15.527 -0.1521 -1.0611  0.1833
 9354TIP3   OH249552   0.579   5.189  13.168  0.2978 -0.0670 -0.2697
 9354TIP3    H149553   0.661   5.155  13.132  0.5975 -0.1568  0.4832
 9354TIP3    H249554   0.581   5.283  13.148  0.7237 -0.0157 -0.0063
 9355TIP3   OH249555   4.447   4.872  13.562 -0.2036 -0.2581 -0.4524
 9355TIP3    H149556   4.418   4.957  13.595 -0.0238 -0.6850  0.8798
 9355TIP3    H249557   4.528   4.891  13.515  1.7699 -0.0437  2.7398
 9356TIP3   OH249558   3.800   4.803   4.065 -0.2339  0.0805  0.3927
 9356TIP3    H149559   3.808   4.889   4.108 -0.9418 -0.2421  1.2090
 9356TIP3    H249560   3.818   4.820   3.973  3.0732  0.5244  1.0014
 9357TIP3   OH249561   4.858   5.139  13.072 -0.8205 -0.4325  0.3980
 9357TIP3    H149562   4.931   5.100  13.025  0.1961  1.3825  0.4103
 9357TIP3    H249563   4.816   5.197  13.008 -1.6515 -0.6954  0.6878
 9358TIP3   OH249564   1.874   2.438   6.366 -0.1094  0.3377  0.4476
 9358TIP3    H149565   1.835   2.352   6.350  3.2561 -1.0692 -1.0300
 9358TIP3    H249566   1.912   2.432   6.453  2.2190 -0.6417 -0.5715
 9359TIP3   OH249567   0.281   1.289  11.325 -0.1049 -0.1433  0.3319
 9359TIP3    H149568   0.343   1.349  11.365  0.6673 -0.5368 -0.2435
 9359TIP3    H249569   0.207   1.287  11.385 -1.4534  3.5286 -0.9249
 9360TIP3   OH249570   1.192   0.698  11.193  0.1185 -0.6031 -0.3075
 9360TIP3    H149571   1.155   0.734  11.273  2.4663  0.2528  0.4965
 9360TIP3    H249572   1.228   0.774  11.147  1.6359 -1.4293 -0.5647
 9361TIP3   OH249573   1.763   6.220  11.325 -0.0955 -0.6935 -0.8102
 9361TIP3    H149574   1.784   6.149  11.264  0.6257 -0.5158 -0.7830
 9361TIP3    H249575   1.846   6.238  11.369 -0.7471 -1.3239  0.7619
 9362TIP3   OH249576   0.536   1.279  11.007 -0.6879  0.3020 -0.0074
 9362TIP3    H149577   0.574   1.249  11.090 -0.9203  1.2545  0.4525
 9362TIP3    H249578   0.566   1.215  10.943  0.6398  0.3175  0.5664
 9363TIP3   OH249579   0.316   4.005  16.801 -0.5553  0.7095  0.1114
 9363TIP3    H149580   0.360   3.921  16.795  0.5300  1.3478 -1.7109
 9363TIP3    H249581   0.244   4.000  16.739 -1.9882  0.3289  1.7358
 9364TIP3   OH249582   3.288   6.780  11.614  0.0340  0.4267 -0.2043
 9364TIP3    H149583   3.314   6.852  11.556  1.0702 -0.2030 -0.5289
 9364TIP3    H249584   3.316   6.701  11.569 -1.5552 -0.2492 -0.1018
 9365TIP3   OH249585   2.535   6.785   5.505  0.5769 -0.1438 -0.9387
 9365TIP3    H149586   2.447   6.794   5.542  0.4884  0.9784 -1.3836
 9365TIP3    H249587   2.553   6.691   5.509 -0.4841 -0.3428 -0.4818
 9366TIP3   OH249588   5.785   3.044  16.301 -0.3766  0.1203 -0.0344
 9366TIP3    H149589   5.736   3.075  16.377 -1.0646  0.6793 -0.6842
 9366TIP3    H249590   5.838   2.972  16.334 -1.4504 -0.3425  0.7616
 9367TIP3   OH249591   0.679   1.787  10.805 -0.4400 -0.4712 -0.1536
 9367TIP3    H149592   0.593   1.808  10.770  0.0617  0.3899 -0.9047
 9367TIP3    H249593   0.741   1.818  10.739  0.4899 -0.0372  0.8809
 9368TIP3   OH249594   1.598   1.865   3.811  0.3394 -0.4872 -0.2749
 9368TIP3    H149595   1.515   1.842   3.769  0.1673  0.1159 -0.2775
 9368TIP3    H249596   1.662   1.803   3.775 -0.4908 -2.3308  1.2596
 9369TIP3   OH249597   5.656   4.024  11.839 -0.0117  0.3676 -0.0068
 9369TIP3    H149598   5.593   3.953  11.852  0.6958 -0.0258  1.5702
 9369TIP3    H249599   5.611   4.103  11.868  0.6550 -0.1282  2.6271
 9370TIP3   OH249600   0.242   0.154   1.366 -0.2125 -0.3261  0.2576
 9370TIP3    H149601   0.197   0.104   1.435  0.2561  1.1477  1.7071
 9370TIP3    H249602   0.308   0.094   1.332 -0.8346 -1.2814  0.6659
 9371TIP3   OH249603   2.675   3.790   1.552 -0.0316 -0.3539  0.4368
 9371TIP3    H149604   2.684   3.816   1.460 -1.3268 -0.4225  0.2776
 9371TIP3    H249605   2.765   3.777   1.581  0.5298  1.5243 -0.2763
 9372TIP3   OH249606   1.609   2.409  11.552 -0.0627  0.2218 -1.1015
 9372TIP3    H149607   1.611   2.364  11.468  0.1616  0.1879 -1.0774
 9372TIP3    H249608   1.538   2.365  11.600 -0.4549  0.5038 -1.4169
 9373TIP3   OH249609   2.802   0.054   5.820 -0.2818 -0.2379 -0.8316
 9373TIP3    H149610   2.880   0.066   5.765 -1.0506  0.5799 -1.7830
 9373TIP3    H249611   2.829   0.084   5.907  0.0368  1.5229 -1.4979
 9374TIP3   OH249612   6.210   3.714   2.526 -0.1798 -0.0710 -0.3220
 9374TIP3    H149613   6.152   3.713   2.450 -0.1299  0.0773 -0.3642
 9374TIP3    H249614   6.286   3.764   2.496 -0.7949  1.2755  0.2867
 9375TIP3   OH249615   1.445   0.106   6.319  0.0465  0.1260  0.1298
 9375TIP3    H149616   1.393   0.151   6.385 -0.0069  0.6091 -0.2364
 9375TIP3    H249617   1.463   0.173   6.253  1.9869  0.2340  0.7203
 9376TIP3   OH249618   4.618   5.591   1.117  0.3206 -0.1008 -0.0548
 9376TIP3    H149619   4.586   5.648   1.187 -0.7184  0.4522 -0.9603
 9376TIP3    H249620   4.685   5.642   1.073  1.5357 -0.7447  0.9968
 9377TIP3   OH249621   3.812   3.857   0.602  0.3904 -0.4700 -0.0724
 9377TIP3    H149622   3.841   3.839   0.692  1.0097 -1.5430 -0.4660
 9377TIP3    H249623   3.771   3.776   0.574  0.3572 -0.2017 -0.8190
 9378TIP3   OH249624   1.027   5.513   0.727 -0.2412  0.0347 -0.2574
 9378TIP3    H149625   1.048   5.601   0.695 -2.5990  1.5360  1.9142
 9378TIP3    H249626   1.108   5.483   0.769  1.0185  0.5223 -2.2291
 9379TIP3   OH249627   3.227   1.605   4.361  0.5122 -0.1377 -0.0806
 9379TIP3    H149628   3.285   1.669   4.403  0.2835  0.1442 -0.1876
 9379TIP3    H249629   3.141   1.647   4.362 -0.6758 -2.1518  3.8612
 9380TIP3   OH249630   3.740   6.134  14.270 -0.3317 -0.1728  0.3585
 9380TIP3    H149631   3.736   6.062  14.207 -0.1715 -0.8535  1.1094
 9380TIP3    H249632   3.649   6.145  14.299 -0.4672  0.3783 -0.2234
 9381TIP3   OH249633   0.177   2.876  11.228 -0.1674 -0.5856  0.8824
 9381TIP3    H149634   0.095   2.925  11.233 -0.1495 -0.5995  1.3719
 9381TIP3    H249635   0.243   2.937  11.261  0.6362  0.6991 -2.6319
 9382TIP3   OH249636   2.173   3.003   0.504  0.7922 -0.4318  0.5690
 9382TIP3    H149637   2.162   3.059   0.581  0.2895 -0.7777  0.7522
 9382TIP3    H249638   2.256   3.032   0.465  1.3156 -0.5967  1.5213
 9383TIP3   OH249639   0.382   3.858   1.320 -0.1545  0.0641 -0.1883
 9383TIP3    H149640   0.290   3.869   1.298 -0.5549 -1.3051  0.7132
 9383TIP3    H249641   0.406   3.773   1.283 -0.2393 -1.2321  2.5313
 9384TIP3   OH249642   3.478   0.574   5.044  0.2069 -0.3461 -0.0225
 9384TIP3    H149643   3.462   0.517   4.969  0.5192 -1.3736  0.6774
 9384TIP3    H249644   3.537   0.524   5.100 -0.9945 -0.0878  1.5085
 9385TIP3   OH249645   4.567   1.449   2.851 -0.1882  0.0824 -0.1034
 9385TIP3    H149646   4.603   1.386   2.914 -0.5369  0.2694  0.2856
 9385TIP3    H249647   4.595   1.535   2.885 -0.9834  0.2302  0.2013
 9386TIP3   OH249648   6.133   0.233  14.384  0.2869 -0.1286  0.0800
 9386TIP3    H149649   6.136   0.290  14.307  1.5206 -1.3375 -0.8210
 9386TIP3    H249650   6.078   0.159  14.356  0.6489 -0.5204  0.3940
 9387TIP3   OH249651   1.396   4.571  16.486 -0.3117  0.2201 -0.0917
 9387TIP3    H149652   1.407   4.523  16.403 -1.7658 -1.6033  0.6880
 9387TIP3    H249653   1.483   4.607  16.505  0.4957 -0.8810 -1.4868
 9388TIP3   OH249654   6.233   6.487  14.840  0.3268  0.3791  0.1077
 9388TIP3    H149655   6.220   6.396  14.866 -0.1569 -0.1381 -1.8485
 9388TIP3    H249656   6.194   6.538  14.912  2.0433 -0.8574  2.0332
 9389TIP3   OH249657   1.973   5.241  10.921  0.2710  0.1855  0.0838
 9389TIP3    H149658   1.973   5.148  10.901 -0.0554  0.5590 -1.8370
 9389TIP3    H249659   2.066   5.262  10.935  0.6266 -0.0097 -1.7755
 9390TIP3   OH249660   5.771   6.733   5.940  0.3347  0.7649 -0.3142
 9390TIP3    H149661   5.824   6.658   5.966 -1.2757 -0.3693 -0.1389
 9390TIP3    H249662   5.830   6.788   5.888  1.8923  0.0091  0.5808
 9391TIP3   OH249663   5.684   5.871  15.315  0.1688  0.3462  0.0622
 9391TIP3    H149664   5.614   5.809  15.297  1.3616 -0.3360 -2.6674
 9391TIP3    H249665   5.755   5.817  15.350  1.2393  0.0443 -2.3984
 9392TIP3   OH249666   4.043   2.303  15.898 -0.4439 -0.1606 -0.2848
 9392TIP3    H149667   4.011   2.362  15.829 -0.8109 -1.7544 -1.5535
 9392TIP3    H249668   4.104   2.356  15.949 -2.2971  1.9015 -0.0759
 9393TIP3   OH249669   5.454   4.095   6.192  0.0137  0.3132 -1.3995
 9393TIP3    H149670   5.436   4.186   6.216  0.4387  0.1875 -0.5731
 9393TIP3    H249671   5.550   4.089   6.193 -0.0167 -0.7287  0.8982
 9394TIP3   OH249672   1.479   5.620   5.614 -0.8913  0.2378 -0.1056
 9394TIP3    H149673   1.408   5.679   5.591 -0.6138  0.5241 -0.2396
 9394TIP3    H249674   1.529   5.668   5.681  0.2261  0.8231 -1.3139
 9395TIP3   OH249675   3.513   6.545  12.629 -0.2221 -0.2387 -0.2908
 9395TIP3    H149676   3.465   6.469  12.596  0.5816 -0.8541 -0.0765
 9395TIP3    H249677   3.540   6.519  12.717 -0.0670  0.3545 -0.1645
 9396TIP3   OH249678   1.353   6.502   0.995 -0.6183 -0.1921  0.3880
 9396TIP3    H149679   1.397   6.522   0.912 -1.6126  3.3009  0.5523
 9396TIP3    H249680   1.407   6.544   1.062 -2.4277  1.4770  0.8938
 9397TIP3   OH249681   6.227   5.584  16.416  0.6169  0.5233  0.1288
 9397TIP3    H149682   6.277   5.595  16.497 -1.0478  0.5989  1.1799
 9397TIP3    H249683   6.160   5.652  16.419  0.6770  0.6852 -1.4454
 9398TIP3   OH249684   0.198   0.021   1.608  0.3624 -0.4806 -0.2121
 9398TIP3    H149685   0.253  -0.058   1.606 -1.9162 -2.1584 -0.0871
 9398TIP3    H249686   0.173   0.030   1.700  1.0020  0.7207 -0.1398
 9399TIP3   OH249687   4.050   6.044  17.133  0.2018 -0.7464 -0.3316
 9399TIP3    H149688   3.987   6.068  17.201 -1.0701 -1.5280 -1.1861
 9399TIP3    H249689   4.069   6.126  17.088  3.1432  0.3712  2.5106
 9400TIP3   OH249690   0.555   6.700   4.359  0.2555  0.0873 -0.0893
 9400TIP3    H149691   0.634   6.740   4.395  0.5363 -0.8848  0.4113
 9400TIP3    H249692   0.570   6.696   4.265  0.2149  1.1437 -0.1532
 9401TIP3   OH249693   1.450   6.722   3.097  0.4186  0.4349 -0.3329
 9401TIP3    H149694   1.446   6.628   3.115 -0.6899  0.5184 -0.0289
 9401TIP3    H249695   1.496   6.758   3.173 -1.7964  0.4541  1.0835
 9402TIP3   OH249696   6.757   0.589  16.591 -0.0680  0.4718 -0.2946
 9402TIP3    H149697   6.696   0.535  16.640 -0.9044 -0.0152 -1.7995
 9402TIP3    H249698   6.701   0.647  16.539  0.7968  1.5547 -0.0601
 9403TIP3   OH249699   1.384   0.930   0.870  0.8005 -0.4720  0.2292
 9403TIP3    H149700   1.412   0.949   0.781 -0.7983 -0.3626 -0.2743
 9403TIP3    H249701   1.364   0.836   0.870 -1.1904 -0.0832 -0.1306
 9404TIP3   OH249702   3.147   2.738  12.476  0.6756 -0.0550  0.2048
 9404TIP3    H149703   3.146   2.646  12.505 -0.1050 -0.3841 -0.8092
 9404TIP3    H249704   3.158   2.733  12.381 -1.7175  0.7762 -0.1800
 9405TIP3   OH249705   6.598   2.787   2.955 -0.4077 -0.5141 -0.0508
 9405TIP3    H149706   6.672   2.847   2.943 -0.4118 -0.5814 -0.4274
 9405TIP3    H249707   6.613   2.717   2.892 -0.5675 -0.7530  0.1718
 9406TIP3   OH249708   5.339   6.128  16.759 -0.3001  0.0326 -0.0889
 9406TIP3    H149709   5.412   6.068  16.744 -2.3060 -2.3489 -1.0401
 9406TIP3    H249710   5.357   6.166  16.845  1.9977 -0.5099 -0.2629
 9407TIP3   OH249711   2.406   3.119   0.403  0.0008  0.0153  0.0088
 9407TIP3    H149712   2.501   3.119   0.411 -0.0631 -1.1648  1.1663
 9407TIP3    H249713   2.385   3.203   0.362  1.6305 -0.3739 -1.7708
 9408TIP3   OH249714   2.667   3.424   5.173  0.1999  0.1684 -0.7814
 9408TIP3    H149715   2.694   3.355   5.113  1.1911  0.8795 -1.1882
 9408TIP3    H249716   2.571   3.426   5.167  0.2104 -0.7029 -1.2738
 9409TIP3   OH249717   4.332   4.976   0.189 -0.2540  0.7459 -0.4452
 9409TIP3    H149718   4.344   5.023   0.107 -0.0215 -0.6189 -1.2318
 9409TIP3    H249719   4.418   4.978   0.230 -0.3389  1.3184 -0.2843
 9410TIP3   OH249720   1.742   0.676   5.704 -0.3122  0.2143 -0.0837
 9410TIP3    H149721   1.681   0.610   5.737 -1.6683  2.1041  1.4848
 9410TIP3    H249722   1.708   0.700   5.618  0.6659 -1.6539 -1.0212
 9411TIP3   OH249723   0.165   0.651   5.404  0.0859  0.0317  0.3177
 9411TIP3    H149724   0.174   0.659   5.499  2.9595  0.7211  0.0669
 9411TIP3    H249725   0.151   0.557   5.389 -1.0916  0.0044  1.4237
 9412TIP3   OH249726   4.372   2.521   0.552  0.2249  1.4362  0.1718
 9412TIP3    H149727   4.467   2.531   0.541  0.7540 -0.2159  2.5308
 9412TIP3    H249728   4.355   2.557   0.639 -1.1228  0.7558  0.2031
 9413TIP3   OH249729   0.620   3.590   3.233  0.4994  0.0211  0.7880
 9413TIP3    H149730   0.644   3.541   3.312 -0.5104  0.8582  1.6483
 9413TIP3    H249731   0.527   3.611   3.245  0.5165  0.7989 -0.2788
 9414TIP3   OH249732   5.803   2.424   1.675  0.1733 -0.6979  0.3513
 9414TIP3    H149733   5.826   2.512   1.647 -1.3222 -0.5477 -0.4944
 9414TIP3    H249734   5.769   2.382   1.596 -1.9370 -1.0454  1.3878
 9415TIP3   OH249735   0.452   1.927  10.993  0.0779 -0.1370  0.2573
 9415TIP3    H149736   0.459   1.862  10.923  2.5002  1.1225 -0.8048
 9415TIP3    H249737   0.539   1.926  11.035  0.0502  2.0904  0.4603
 9416TIP3   OH249738   3.368   0.345   0.493  0.4006  0.5442  0.4339
 9416TIP3    H149739   3.397   0.306   0.575  0.5300  0.9624  0.5913
 9416TIP3    H249740   3.449   0.363   0.445  0.2928 -1.3218 -0.5750
 9417TIP3   OH249741   5.814   1.738  11.592  0.1118  0.4696  0.4900
 9417TIP3    H149742   5.826   1.707  11.682  1.5652  1.0723  0.5355
 9417TIP3    H249743   5.901   1.730  11.553 -0.1181  1.8138 -0.3450
 9418TIP3   OH249744   2.099   1.298  12.975 -0.0936  0.3577 -0.3763
 9418TIP3    H149745   2.133   1.385  12.953 -1.1494  0.8978  0.0198
 9418TIP3    H249746   2.052   1.270  12.896 -0.7754  0.6924 -0.1019
 9419TIP3   OH249747   0.860   1.433  15.793 -0.0966  0.1659 -0.1497
 9419TIP3    H149748   0.947   1.468  15.775 -0.7922  2.3269  0.4136
 9419TIP3    H249749   0.804   1.510  15.801 -2.4789 -1.1486 -2.4220
 9420TIP3   OH249750   2.317   2.216   5.665 -0.0870 -0.6837 -0.1145
 9420TIP3    H149751   2.307   2.146   5.730 -0.6642 -0.6204 -0.1269
 9420TIP3    H249752   2.254   2.283   5.692  1.6537  0.6351  0.9161
 9421TIP3   OH249753   5.649   1.966  13.553  0.3214 -0.3353  0.4730
 9421TIP3    H149754   5.585   2.004  13.613 -1.2243  0.0755 -1.3478
 9421TIP3    H249755   5.733   1.975  13.599 -0.3236  2.8597  1.2612
 9422TIP3   OH249756   3.877   5.310  15.621  0.2363 -0.1013  0.2902
 9422TIP3    H149757   3.865   5.374  15.551 -1.9602 -0.5833  0.1646
 9422TIP3    H249758   3.944   5.250  15.588 -0.2303  0.1076 -1.0942
 9423TIP3   OH249759   1.097   4.442  15.704  0.4936  0.5045  0.2051
 9423TIP3    H149760   1.097   4.525  15.656 -0.9556  0.6415  0.4103
 9423TIP3    H249761   1.017   4.398  15.676  1.2563 -0.8632  0.0724
 9424TIP3   OH249762   4.551   2.451  11.318  0.2627 -0.0573  0.3499
 9424TIP3    H149763   4.572   2.380  11.258 -1.1644 -1.5330  1.5145
 9424TIP3    H249764   4.501   2.513  11.265 -0.8785 -1.2831 -0.0608
 9425TIP3   OH249765   6.417   5.474   5.642 -0.1751 -0.2004  0.2503
 9425TIP3    H149766   6.382   5.407   5.701 -1.3960  1.6898  1.8065
 9425TIP3    H249767   6.340   5.511   5.599  0.5052  0.0292 -0.7976
 9426TIP3   OH249768   3.483   0.258  14.624 -0.2447  0.2359  0.3428
 9426TIP3    H149769   3.442   0.319  14.685 -0.6937  0.4559 -0.1677
 9426TIP3    H249770   3.459   0.171  14.656 -0.1282  0.3372  0.7109
 9427TIP3   OH249771   4.929   5.036  16.295  0.4599 -0.9614  0.3578
 9427TIP3    H149772   4.856   5.024  16.356 -0.4420 -0.7853 -0.6563
 9427TIP3    H249773   4.937   5.131  16.286 -0.1163 -0.9797 -0.5776
 9428TIP3   OH249774   0.974   5.925  13.306  0.5848  0.7839 -0.2750
 9428TIP3    H149775   0.880   5.908  13.315  0.5541  1.2951  0.5204
 9428TIP3    H249776   1.002   5.949  13.395  1.8327 -1.0967 -0.1100
 9429TIP3   OH249777   4.225   0.970   4.809 -0.9053 -0.2288 -0.1656
 9429TIP3    H149778   4.320   0.986   4.813 -0.6461 -1.2673 -1.4027
 9429TIP3    H249779   4.186   1.050   4.844  0.4341  0.0834  0.6854
 9430TIP3   OH249780   0.915   0.280  11.989 -0.5038 -0.0494  0.3122
 9430TIP3    H149781   0.873   0.225  12.055  0.5288  0.7297  1.6658
 9430TIP3    H249782   1.007   0.256  11.992 -0.3203  0.5423 -0.3095
 9431TIP3   OH249783   2.719   3.870   2.172 -0.1981 -0.1350 -0.3661
 9431TIP3    H149784   2.681   3.956   2.191 -1.1118 -0.7744  0.7835
 9431TIP3    H249785   2.685   3.847   2.086 -2.1908 -0.5423  0.4890
 9432TIP3   OH249786   3.618   4.107  17.270 -0.2452 -0.2259  0.7814
 9432TIP3    H149787   3.631   4.103  17.175 -2.4089 -2.2959  0.4784
 9432TIP3    H249788   3.593   4.198  17.287  1.4171  0.4968 -0.3917
 9433TIP3   OH249789   5.413   5.868  16.226 -0.2599  0.3409 -0.6369
 9433TIP3    H149790   5.484   5.871  16.290  0.3511  1.2815 -1.3478
 9433TIP3    H249791   5.378   5.779  16.234 -0.6731  0.6468  1.4958
 9434TIP3   OH249792   4.716   4.232   4.881 -0.3375  0.3373 -0.4014
 9434TIP3    H149793   4.695   4.196   4.795 -0.9734  1.0560 -0.5563
 9434TIP3    H249794   4.809   4.254   4.876 -0.1233 -0.5627 -0.5532
 9435TIP3   OH249795   0.054   5.857   3.568  0.2723  0.7689 -0.4900
 9435TIP3    H149796   0.106   5.797   3.515  0.5623 -1.3903  2.0223
 9435TIP3    H249797   0.111   5.879   3.642 -1.4605  0.3576  1.0300
 9436TIP3   OH249798   2.766   4.978  11.303  0.7025 -0.2515 -0.1284
 9436TIP3    H149799   2.842   5.017  11.260  2.0137 -2.1628  0.3315
 9436TIP3    H249800   2.792   4.969  11.394 -1.5317  2.4793  0.9350
 9437TIP3   OH249801   6.264   2.434   2.186  0.6413  0.0964 -0.1274
 9437TIP3    H149802   6.356   2.437   2.160  0.2556  0.0976 -1.5787
 9437TIP3    H249803   6.261   2.484   2.267  1.9777 -0.2157  0.1443
 9438TIP3   OH249804   4.032   2.867  17.280  0.1446 -0.2239  0.2417
 9438TIP3    H149805   4.062   2.924  17.209 -2.1890  0.5781 -0.2074
 9438TIP3    H249806   3.936   2.871  17.274 -0.2094  0.5446  3.9156
 9439TIP3   OH249807   4.609   0.622   5.092 -0.0699  0.0004 -0.1641
 9439TIP3    H149808   4.545   0.605   5.160  1.5252 -1.2374  1.1298
 9439TIP3    H249809   4.633   0.714   5.102  1.5348 -0.6000  2.3133
 9440TIP3   OH249810   3.430   6.218   5.707 -0.4268 -0.2127  0.2092
 9440TIP3    H149811   3.343   6.182   5.692  0.1320 -2.0818  1.2034
 9440TIP3    H249812   3.424   6.259   5.794 -0.4960  0.3268 -0.0427
 9441TIP3   OH249813   1.865   3.901  10.950 -0.7784  0.0420 -0.2604
 9441TIP3    H149814   1.896   3.858  10.871 -0.0093 -0.2442  0.1918
 9441TIP3    H249815   1.877   3.995  10.933 -0.1535 -0.0425 -0.2912
 9442TIP3   OH249816   2.697   5.745  11.800  0.2762  0.1161  0.2051
 9442TIP3    H149817   2.625   5.704  11.752  0.5238 -1.1183  0.8684
 9442TIP3    H249818   2.692   5.838  11.775 -1.6136  0.0920  0.3309
 9443TIP3   OH249819   0.844   4.211  12.923 -0.1896  0.5710 -0.3625
 9443TIP3    H149820   0.807   4.299  12.929  1.3765  1.1717  1.8610
 9443TIP3    H249821   0.778   4.154  12.962 -0.3482  1.0865  0.1382
 9444TIP3   OH249822   6.790   5.946  15.370 -0.0997  0.3264  0.8357
 9444TIP3    H149823   6.797   5.947  15.274  1.3931  0.9857  0.9305
 9444TIP3    H249824   6.778   5.853  15.392 -0.9387  0.2205 -0.0068
 9445TIP3   OH249825   5.457   4.762   1.426  0.0192 -0.3870  0.1185
 9445TIP3    H149826   5.470   4.762   1.331 -0.5150  1.7339  0.0028
 9445TIP3    H249827   5.449   4.669   1.449 -1.7447 -0.9070 -2.1808
 9446TIP3   OH249828   4.809   1.144   3.444 -0.4414  0.0518 -0.4962
 9446TIP3    H149829   4.886   1.199   3.432  0.4074 -1.2118 -1.0824
 9446TIP3    H249830   4.790   1.110   3.356 -0.3410 -1.3418 -0.0064
 9447TIP3   OH249831   5.891   3.775  16.861  0.4067 -0.2947  0.2838
 9447TIP3    H149832   5.939   3.832  16.921  2.4249 -0.2485 -1.2810
 9447TIP3    H249833   5.828   3.833  16.817  0.7940  0.2304  0.4214
 9448TIP3   OH249834   0.969   2.023  13.872  0.0066  0.1633 -0.4441
 9448TIP3    H149835   1.018   2.025  13.790  1.1901  0.9240  0.2357
 9448TIP3    H249836   0.965   1.931  13.896  0.6934  0.0413 -0.7688
 9449TIP3   OH249837   2.622   5.073   3.028  0.4701  0.0928  0.4093
 9449TIP3    H149838   2.548   5.016   3.047 -3.6789  3.7601 -2.6921
 9449TIP3    H249839   2.669   5.030   2.957 -1.3881 -0.4495 -0.5429
 9450TIP3   OH249840   1.650   5.859   4.981 -0.1346  1.0193 -0.4506
 9450TIP3    H149841   1.725   5.887   5.032  1.1424  0.6147 -2.0134
 9450TIP3    H249842   1.583   5.838   5.046  0.2754  3.5577  0.9054
 9451TIP3   OH249843   4.818   6.679   2.226 -0.0286  0.0450  0.0067
 9451TIP3    H149844   4.792   6.730   2.302  1.6051  1.7093 -0.4904
 9451TIP3    H249845   4.788   6.730   2.151 -1.3363 -1.4145 -0.5281
 9452TIP3   OH249846   3.576   6.138  13.886  0.6144 -0.3006 -0.1863
 9452TIP3    H149847   3.628   6.218  13.887  0.4357 -0.1584 -1.0528
 9452TIP3    H249848   3.598   6.096  13.803  0.5805 -1.0714  0.1797
 9453TIP3   OH249849   1.879   6.248  14.913 -0.6033  0.3306  0.3458
 9453TIP3    H149850   1.789   6.256  14.882  0.4324  2.3149 -2.5392
 9453TIP3    H249851   1.874   6.271  15.006 -3.3589 -2.2899  1.0319
 9454TIP3   OH249852   3.282   5.297  15.292  0.2184  0.4243  0.8606
 9454TIP3    H149853   3.330   5.215  15.303 -0.3428  0.1950  1.8094
 9454TIP3    H249854   3.323   5.357  15.354 -0.4103  0.3574  1.3582
 9455TIP3   OH249855   1.863   4.638  15.332 -0.4421 -0.1642  0.2770
 9455TIP3    H149856   1.801   4.705  15.303 -1.5031 -0.8657  0.8591
 9455TIP3    H249857   1.936   4.644  15.271 -1.7045 -0.2478 -1.2972
 9456TIP3   OH249858   2.607   2.492   2.168  0.1467  0.1502 -0.1408
 9456TIP3    H149859   2.682   2.454   2.121 -0.0189 -1.2938  0.7029
 9456TIP3    H249860   2.619   2.464   2.258 -0.9709  0.6378  0.1767
 9457TIP3   OH249861   0.060   4.371  17.212  0.1358 -0.3361  0.4242
 9457TIP3    H149862   0.061   4.463  17.239 -1.5629 -0.3039  0.4446
 9457TIP3    H249863   0.133   4.331  17.260  2.3052  1.3956 -1.1928
 9458TIP3   OH249864   1.012   3.046  14.445  0.2341  0.3762  0.2486
 9458TIP3    H149865   1.048   3.134  14.434  0.2496  0.2804 -0.5165
 9458TIP3    H249866   1.084   2.987  14.426 -0.2220  0.1886 -0.9990
 9459TIP3   OH249867   3.433   1.485   5.873 -0.0379 -0.1064  0.0275
 9459TIP3    H149868   3.424   1.578   5.896  2.1484  0.0289  0.4777
 9459TIP3    H249869   3.505   1.483   5.811  0.3735 -1.5942  0.5361
 9460TIP3   OH249870   3.709   1.137  13.273  0.0769 -0.0982  0.3900
 9460TIP3    H149871   3.796   1.100  13.260 -0.0972  0.1032 -1.6137
 9460TIP3    H249872   3.651   1.082  13.220 -0.6244  1.2510 -0.3149
 9461TIP3   OH249873   2.480   0.875   6.252  0.5811  0.2131  0.3811
 9461TIP3    H149874   2.484   0.780   6.240  1.0180  0.3782 -0.8957
 9461TIP3    H249875   2.388   0.897   6.234  0.3974 -0.0041  1.0330
 9462TIP3   OH249876   4.074   4.276  12.885 -0.8472  0.2573  0.0968
 9462TIP3    H149877   4.011   4.297  12.954 -0.5206  1.4511  0.0556
 9462TIP3    H249878   4.118   4.197  12.916 -0.9036  0.6175  1.1386
 9463TIP3   OH249879   4.807   4.976  15.869 -0.2669  0.1673  0.1009
 9463TIP3    H149880   4.769   5.049  15.918  0.3453  1.1752 -0.8762
 9463TIP3    H249881   4.734   4.940  15.819 -0.4964  0.3626  0.2953
 9464TIP3   OH249882   4.735   0.109  15.412 -0.0195 -0.2205  0.4041
 9464TIP3    H149883   4.699   0.024  15.439 -0.7178  0.7831  2.8629
 9464TIP3    H249884   4.827   0.092  15.395 -0.3693 -1.6613 -0.2280
 9465TIP3   OH249885   0.050   0.770   0.353 -0.5589 -0.1754  0.2816
 9465TIP3    H149886  -0.041   0.787   0.331 -0.0710  0.2461 -1.5612
 9465TIP3    H249887   0.098   0.846   0.319  0.4795 -0.3902  1.2145
 9466TIP3   OH249888   3.152   4.880   4.015 -0.4051 -0.1952  0.1375
 9466TIP3    H149889   3.218   4.935   4.057  0.2790 -0.4610 -0.5686
 9466TIP3    H249890   3.095   4.853   4.087  0.7145 -0.5985  0.9159
 9467TIP3   OH249891   1.928   2.737  11.984 -0.1183  0.3842  0.5384
 9467TIP3    H149892   1.917   2.692  11.900  0.0160  1.1937  0.0791
 9467TIP3    H249893   1.913   2.829  11.964  0.1202  0.6073  1.3633
 9468TIP3   OH249894   3.903   3.202  15.681  0.4478  0.4629  0.6355
 9468TIP3    H149895   3.976   3.210  15.742 -0.8103 -1.2791  2.4994
 9468TIP3    H249896   3.840   3.146  15.727 -0.8243 -0.4593 -2.0655
 9469TIP3   OH249897   1.655   4.070   3.252 -0.3979  0.2445  0.1717
 9469TIP3    H149898   1.672   4.120   3.173  0.0839 -2.7731 -1.8040
 9469TIP3    H249899   1.735   4.019   3.266 -2.0035 -2.5223 -0.0623
 9470TIP3   OH249900   2.660   4.306  16.369  0.0637 -0.6987  0.6149
 9470TIP3    H149901   2.588   4.334  16.312  0.5474  0.5660  0.5957
 9470TIP3    H249902   2.616   4.262  16.442 -0.4877 -4.3594 -1.6791
 9471TIP3   OH249903   6.666   4.829  14.882 -0.6348  0.4648 -0.0122
 9471TIP3    H149904   6.680   4.823  14.976 -0.7614 -0.6881 -0.0495
 9471TIP3    H249905   6.732   4.771  14.843 -0.7663  0.7030 -0.6082
 9472TIP3   OH249906   6.084   5.539   2.474  0.1449  0.1602  0.1421
 9472TIP3    H149907   6.092   5.494   2.390  1.0034  0.2110  0.1829
 9472TIP3    H249908   5.998   5.581   2.472  0.2111  0.2565 -0.7550
 9473TIP3   OH249909   5.728   0.447   2.981  0.1769 -0.0346  0.2783
 9473TIP3    H149910   5.652   0.497   3.011  0.7171  1.9652 -1.4265
 9473TIP3    H249911   5.695   0.360   2.963 -1.6814  0.7349 -0.2255
 9474TIP3   OH249912   1.766   3.660   3.177  0.2999  0.0575 -0.0958
 9474TIP3    H149913   1.859   3.662   3.151  0.6373  0.3545  1.0904
 9474TIP3    H249914   1.745   3.566   3.183 -0.0564 -0.0517 -2.2801
 9475TIP3   OH249915   6.535   5.125  15.188  0.3324  0.5150  0.5609
 9475TIP3    H149916   6.460   5.162  15.140  1.0920  1.9256  0.4155
 9475TIP3    H249917   6.503   5.041  15.220 -0.7239  0.2353 -1.0768
 9476TIP3   OH249918   0.655   6.659   0.259  0.5232 -0.2252 -0.2853
 9476TIP3    H149919   0.707   6.732   0.295 -0.0221  0.8792 -1.6498
 9476TIP3    H249920   0.585   6.702   0.211 -0.6711 -1.6992  0.0960
 9477TIP3   OH249921   4.608   4.917   3.944 -0.3622  0.5037  0.1182
 9477TIP3    H149922   4.545   4.957   4.005 -0.5943  0.5701 -0.1634
 9477TIP3    H249923   4.682   4.978   3.944 -1.1967  1.5776 -1.2137
 9478TIP3   OH249924   6.541   0.232  14.221  0.4627  0.1992  0.0387
 9478TIP3    H149925   6.583   0.185  14.293  1.6205  1.1777  0.0370
 9478TIP3    H249926   6.473   0.172  14.189  2.2608 -1.7164 -0.3731
 9479TIP3   OH249927   5.574   3.919   4.543  0.6857 -0.1916 -0.3388
 9479TIP3    H149928   5.496   3.914   4.599  1.5623 -1.4781  0.8305
 9479TIP3    H249929   5.543   3.889   4.458  0.3262 -3.0305  0.6616
 9480TIP3   OH249930   3.147   5.921  12.422  0.0065 -0.6402 -0.9963
 9480TIP3    H149931   3.102   5.846  12.381 -0.7083  0.8795 -3.1732
 9480TIP3    H249932   3.168   5.978  12.348  1.7368  0.6992  0.4711
 9481TIP3   OH249933   2.548   1.535  16.207  0.2293  0.3334 -0.0523
 9481TIP3    H149934   2.555   1.488  16.290  1.0487  0.3329 -0.1150
 9481TIP3    H249935   2.569   1.469  16.140  1.4565  0.7933 -0.1357
 9482TIP3   OH249936   0.650   2.489  15.267 -0.3511 -0.2315 -0.3770
 9482TIP3    H149937   0.659   2.550  15.340  0.6899 -1.3750  0.5139
 9482TIP3    H249938   0.630   2.543  15.191  0.2713  1.1667  0.4283
 9483TIP3   OH249939   6.289   1.231  14.373  0.5978 -0.4601 -0.1313
 9483TIP3    H149940   6.282   1.152  14.427  1.3013  0.1507  0.8713
 9483TIP3    H249941   6.359   1.282  14.413  1.1826  0.0022 -1.6556
 9484TIP3   OH249942   3.765   6.591  16.706 -0.0770  0.6995 -0.2639
 9484TIP3    H149943   3.774   6.614  16.798 -0.3715 -0.3822  0.0515
 9484TIP3    H249944   3.710   6.660  16.669 -0.8996  0.5585  0.6396
 9485TIP3   OH249945   5.676   3.944   0.075 -0.1970  0.2458 -0.3385
 9485TIP3    H149946   5.582   3.943   0.062 -0.4350 -0.2711  1.2711
 9485TIP3    H249947   5.711   3.891   0.003 -1.1437  0.1385 -0.7311
 9486TIP3   OH249948   2.467   4.478   1.087 -0.1421  0.0331  0.1984
 9486TIP3    H149949   2.439   4.460   0.997 -0.0806  0.6424  0.0570
 9486TIP3    H249950   2.428   4.406   1.138 -2.7861  1.3024  0.1627
 9487TIP3   OH249951   1.084   2.310   0.825  0.1756  0.5719 -0.0228
 9487TIP3    H149952   1.049   2.259   0.752  1.2171 -0.2861  0.0542
 9487TIP3    H249953   1.007   2.333   0.877 -0.4714  0.3493 -0.8599
 9488TIP3   OH249954   4.548   3.873  10.925 -0.4315 -0.3885  0.2761
 9488TIP3    H149955   4.600   3.818  10.867  0.1570  0.6580 -0.2295
 9488TIP3    H249956   4.460   3.870  10.888  0.0346  0.6576 -1.0192
 9489TIP3   OH249957   4.420   1.216  15.417 -0.0104  0.1315 -0.6915
 9489TIP3    H149958   4.498   1.271  15.425 -0.9840  1.4509  0.1016
 9489TIP3    H249959   4.443   1.135  15.462  1.0621  0.3157 -0.8836
 9490TIP3   OH249960   5.086   4.322  17.037  0.7275  0.3486  0.1696
 9490TIP3    H149961   5.035   4.401  17.020  1.6762  0.6443 -1.4958
 9490TIP3    H249962   5.028   4.250  17.012  0.8752  0.6559 -1.1156
 9491TIP3   OH249963   4.099   3.848   6.462  0.3205 -0.3026  0.1981
 9491TIP3    H149964   4.107   3.906   6.386  0.6356 -0.2461  0.2697
 9491TIP3    H249965   4.142   3.896   6.533 -0.0327 -0.3244  0.4295
 9492TIP3   OH249966   4.729   1.913  14.676  0.2269  0.1633 -0.3503
 9492TIP3    H149967   4.680   1.849  14.728 -0.4934  0.9570 -0.0189
 9492TIP3    H249968   4.761   1.864  14.601 -1.1037 -0.3827 -0.5863
 9493TIP3   OH249969   5.700   4.718   4.521 -0.2339  0.3619 -0.2124
 9493TIP3    H149970   5.765   4.657   4.556 -2.3554 -1.3055  1.0886
 9493TIP3    H249971   5.690   4.785   4.589 -0.7840 -0.1183  0.1919
 9494TIP3   OH249972   0.150   6.486  13.335 -0.4175  0.2524  0.0138
 9494TIP3    H149973   0.148   6.577  13.362 -1.0879  0.6029 -1.1781
 9494TIP3    H249974   0.240   6.458  13.354 -0.0036  1.3536 -0.2571
 9495TIP3   OH249975   0.642   4.595   5.001 -0.1006 -0.0314  0.3696
 9495TIP3    H149976   0.737   4.601   5.004 -0.0990 -0.1056  0.5062
 9495TIP3    H249977   0.620   4.536   5.074 -0.0706 -2.0079 -1.1527
 9496TIP3   OH249978   4.669   1.824  10.981  0.2585  0.8635 -0.0198
 9496TIP3    H149979   4.611   1.876  10.926 -1.9667  0.2591  1.6370
 9496TIP3    H249980   4.641   1.841  11.071  0.8431 -1.5084  0.7044
 9497TIP3   OH249981   3.936   0.561  12.199  0.0561  0.3094 -0.7522
 9497TIP3    H149982   3.849   0.572  12.238  0.0077 -0.3349 -0.6670
 9497TIP3    H249983   3.936   0.620  12.124 -0.2275  0.7804 -0.3947
 9498TIP3   OH249984   6.215   4.376   2.338 -0.2480  0.3415  0.5481
 9498TIP3    H149985   6.293   4.325   2.314 -0.5291  0.5905 -1.0090
 9498TIP3    H249986   6.215   4.376   2.434 -0.7879 -3.4233  0.6743
 9499TIP3   OH249987   0.179   2.544  14.026 -0.0655  0.1117  0.3179
 9499TIP3    H149988   0.267   2.527  13.994  0.5110  1.6099  1.0335
 9499TIP3    H249989   0.174   2.500  14.111 -0.3734 -0.8199 -0.1667
 9500TIP3   OH249990   4.336   4.266  14.544 -0.6476 -0.1503  0.0781
 9500TIP3    H149991   4.279   4.289  14.470 -0.5397 -1.4511 -0.4364
 9500TIP3    H249992   4.397   4.201  14.508  0.1885  0.1057  1.0081
 9501TIP3   OH249993   0.760   1.097   2.884 -0.0582 -0.0705  0.1143
 9501TIP3    H149994   0.765   1.161   2.956  1.5622 -0.6650  0.5541
 9501TIP3    H249995   0.673   1.059   2.894  0.4989 -0.9179  2.4794
 9502TIP3   OH249996   0.145   1.779   2.711 -0.0521  0.4015 -0.0339
 9502TIP3    H149997   0.222   1.783   2.767  1.3306 -0.4487 -1.7634
 9502TIP3    H249998   0.073   1.807   2.767  1.3119  0.0991  1.9842
 9503TIP3   OH249999   6.493   0.013  11.154  0.1301  0.3677 -0.1596
 9503TIP3    H150000   6.528  -0.073  11.178  1.8009  0.6373 -1.4431
 9503TIP3    H250001   6.459   0.048  11.236 -2.1207 -2.1365  0.1157
 9504TIP3   OH250002   0.161   3.250  15.056 -0.1373  0.6434  0.3565
 9504TIP3    H150003   0.157   3.196  15.135  2.9607  0.8891  0.8290
 9504TIP3    H250004   0.229   3.208  15.002 -0.6278  1.7233 -1.1789
 9505TIP3   OH250005   0.328   5.883  13.043 -0.4350  0.0945 -0.1367
 9505TIP3    H150006   0.333   5.792  13.014  1.1263  0.6122 -1.7062
 9505TIP3    H250007   0.337   5.934  12.963 -2.0065  1.6565  0.6234
 9506TIP3   OH250008   4.166   0.871  14.562  0.4165  0.4775 -0.3277
 9506TIP3    H150009   4.195   0.950  14.516 -0.6022  1.0122 -0.0893
 9506TIP3    H250010   4.103   0.830  14.503 -1.0171  1.2505  0.6111
 9507TIP3   OH250011   4.600   1.095   5.278 -0.0157 -0.1211 -0.6845
 9507TIP3    H150012   4.576   1.179   5.239  0.6509  0.4601  0.1281
 9507TIP3    H250013   4.518   1.061   5.314 -0.6361 -0.6414 -2.4627
 9508TIP3   OH250014   3.365   1.058   0.172  0.4071  0.3987 -0.0984
 9508TIP3    H150015   3.328   0.974   0.144  0.8453  0.0713  0.3026
 9508TIP3    H250016   3.460   1.047   0.164  0.4407  1.1654 -0.9149
 9509TIP3   OH250017   5.708   2.421   4.449  0.1942 -0.2177  0.0802
 9509TIP3    H150018   5.731   2.459   4.534  1.3941  0.9518 -0.7392
 9509TIP3    H250019   5.752   2.336   4.449  1.7535  0.5468 -0.0635
 9510TIP3   OH250020   1.168   3.858   0.526  0.1746  0.3433 -0.3154
 9510TIP3    H150021   1.133   3.804   0.456  1.2190 -0.9934  0.1466
 9510TIP3    H250022   1.235   3.911   0.484  0.4460 -0.0843 -0.4265
 9511TIP3   OH250023   0.395   2.420   4.846  0.0305  0.3083 -0.8046
 9511TIP3    H150024   0.418   2.358   4.915 -3.1605  0.6841  0.7497
 9511TIP3    H250025   0.387   2.366   4.767  3.0084 -0.2360 -0.8453
 9512TIP3   OH250026   5.166   1.531   1.886 -0.9801  0.2775 -0.1647
 9512TIP3    H150027   5.082   1.541   1.842 -0.8455 -1.7924 -1.0141
 9512TIP3    H250028   5.219   1.479   1.825  0.6227  0.7918  0.7279
 9513TIP3   OH250029   3.274   4.874   6.783 -0.4249 -0.2236  0.5856
 9513TIP3    H150030   3.323   4.950   6.752 -0.6089 -0.3374  0.0004
 9513TIP3    H250031   3.212   4.855   6.712  0.5961 -1.8247  0.0690
 9514TIP3   OH250032   1.536   5.788   3.017  0.1901 -0.4223 -0.3376
 9514TIP3    H150033   1.441   5.781   3.005 -0.1436  0.4028  1.4940
 9514TIP3    H250034   1.567   5.830   2.937 -1.2596  0.9476 -0.2414
 9515TIP3   OH250035   6.444   6.344   4.726  0.5560 -0.2353 -0.3783
 9515TIP3    H150036   6.485   6.430   4.723  1.9558 -0.8681 -0.0420
 9515TIP3    H250037   6.433   6.325   4.819  0.0620 -0.3495 -0.4548
 9516TIP3   OH250038   2.866   4.423   1.178 -0.3728 -0.3005 -0.1920
 9516TIP3    H150039   2.777   4.457   1.191 -0.4513 -0.7575  0.5281
 9516TIP3    H250040   2.922   4.488   1.219 -0.2265  0.8781 -2.1795
 9517TIP3   OH250041   0.240   6.646   4.133  0.4003  0.1760 -0.1734
 9517TIP3    H150042   0.287   6.713   4.183  0.6410  0.4215 -0.7172
 9517TIP3    H250043   0.309   6.594   4.091  0.2445 -0.9654  0.9313
 9518TIP3   OH250044   3.577   6.683   4.218  0.4167 -0.3400 -0.1035
 9518TIP3    H150045   3.663   6.641   4.212  0.7944  0.4644 -0.4360
 9518TIP3    H250046   3.546   6.688   4.128  0.1118 -0.4313 -0.0048
 9519TIP3   OH250047   3.159   0.668   4.803 -0.4789  0.3794  0.3184
 9519TIP3    H150048   3.234   0.629   4.758 -0.8086  0.2896 -0.1604
 9519TIP3    H250049   3.189   0.680   4.893  0.2662  0.7489  0.0326
 9520TIP3   OH250050   2.779   3.928  15.465  0.2896 -0.4926 -0.2301
 9520TIP3    H150051   2.847   3.955  15.528 -1.1436  0.6890  0.8706
 9520TIP3    H250052   2.697   3.935  15.514 -0.7381 -0.8980 -1.8449
 9521TIP3   OH250053   2.444   3.490  14.275  0.0340  0.1819  0.1981
 9521TIP3    H150054   2.508   3.561  14.262 -0.5782  0.9741  1.3462
 9521TIP3    H250055   2.456   3.465  14.367  0.6837 -1.6730 -0.3564
 9522TIP3   OH250056   5.614   6.768   3.305  0.0222 -0.2856  0.1467
 9522TIP3    H150057   5.575   6.850   3.336 -0.2733  0.9037 -2.9766
 9522TIP3    H250058   5.540   6.708   3.297 -0.0210 -0.3384  0.8579
 9523TIP3   OH250059   5.068   4.602  13.468  0.2402  0.0938 -0.2609
 9523TIP3    H150060   5.118   4.586  13.389 -0.3987 -0.5649 -0.5407
 9523TIP3    H250061   5.121   4.663  13.519  0.4805  0.8123 -1.3633
 9524TIP3   OH250062   4.407   2.100  17.019  0.4073  0.3096  0.5534
 9524TIP3    H150063   4.476   2.040  16.992 -0.6693 -0.5936 -0.3285
 9524TIP3    H250064   4.330   2.073  16.968 -0.1097  2.5169  0.0266
 9525TIP3   OH250065   1.262   1.087  17.299 -0.1600  0.0457  0.0202
 9525TIP3    H150066   1.204   1.164  17.298 -1.2117 -0.7323  0.2559
 9525TIP3    H250067   1.292   1.079  17.208  1.6832  1.9708  0.3718
 9526TIP3   OH250068   6.082   3.815   2.758  0.1307  0.2028  0.5723
 9526TIP3    H150069   6.130   3.799   2.676 -0.9347 -2.2296  0.3444
 9526TIP3    H250070   6.144   3.793   2.827  0.1310 -0.5842  0.3312
 9527TIP3   OH250071   1.130   5.092   1.879 -0.6091 -0.0922 -0.2365
 9527TIP3    H150072   1.125   5.030   1.951 -0.6363  0.4261  0.2156
 9527TIP3    H250073   1.054   5.149   1.890  0.1165  0.8366  0.1266
 9528TIP3   OH250074   4.051   0.479  15.781  0.2906  0.6455 -0.1162
 9528TIP3    H150075   4.023   0.569  15.763 -0.4667  0.2712 -0.9004
 9528TIP3    H250076   4.082   0.447  15.697 -0.4197 -0.1585 -0.0830
 9529TIP3   OH250077   4.896   6.013   5.296 -0.2921 -0.1847 -0.9301
 9529TIP3    H150078   4.988   5.996   5.276  0.2668  0.6871  0.7032
 9529TIP3    H250079   4.848   5.982   5.219  1.2201 -2.1754 -1.1236
 9530TIP3   OH250080   3.350   4.251   6.485 -0.5774  0.2042  0.0284
 9530TIP3    H150081   3.408   4.220   6.555 -0.1781 -0.1150 -0.4436
 9530TIP3    H250082   3.262   4.244   6.522 -0.3527  0.2796  0.5919
 9531TIP3   OH250083   1.734   5.203  16.313  0.2159 -0.9204 -0.2721
 9531TIP3    H150084   1.679   5.181  16.388  1.6636  1.4976  1.6583
 9531TIP3    H250085   1.815   5.155  16.327  0.9585  0.4869  0.4628
 9532TIP3   OH250086   5.879   5.478   6.315 -0.3288 -0.0157  0.3405
 9532TIP3    H150087   5.829   5.411   6.363  0.4499  0.4378  1.8419
 9532TIP3    H250088   5.960   5.434   6.291 -0.4263 -0.0279  0.0193
 9533TIP3   OH250089   0.293   5.630  14.714  0.5293  0.2916 -0.1497
 9533TIP3    H150090   0.319   5.607  14.625  1.1076  1.4689 -0.3020
 9533TIP3    H250091   0.373   5.663  14.755  0.5483 -1.2882  1.1882
 9534TIP3   OH250092   2.724   0.831  14.837  0.0533  0.0639  0.1772
 9534TIP3    H150093   2.640   0.786  14.839  0.6025 -0.9821  0.3137
 9534TIP3    H250094   2.759   0.813  14.749  0.7906 -0.7842  0.6245
 9535TIP3   OH250095   0.183   1.071   6.390 -0.0678 -0.2825 -0.0300
 9535TIP3    H150096   0.237   1.119   6.452  1.0100 -1.2117 -0.2066
 9535TIP3    H250097   0.118   1.134   6.359  1.2062  1.0150 -0.1534
 9536TIP3   OH250098   3.054   4.764  11.318  0.0366  0.0881 -0.1233
 9536TIP3    H150099   2.991   4.691  11.323 -0.9347  0.7621 -1.7032
 9536TIP3    H250100   3.000   4.842  11.329  0.7863  0.6442 -0.3723
 9537TIP3   OH250101   3.016   6.144   0.513  0.1808 -0.4420 -0.0319
 9537TIP3    H150102   3.108   6.169   0.523  0.0800 -0.7842  2.0724
 9537TIP3    H250103   2.969   6.227   0.512  0.4658 -0.2795 -0.8128
 9538TIP3   OH250104   4.092   4.689  12.487  0.0027 -0.1958  0.5919
 9538TIP3    H150105   4.080   4.605  12.532  0.5517  0.1841  1.4594
 9538TIP3    H250106   4.182   4.688  12.456 -0.8004 -1.1614 -2.0464
 9539TIP3   OH250107   0.896   1.260  15.504 -0.4775  0.1589 -0.2828
 9539TIP3    H150108   0.857   1.176  15.478 -0.4944 -0.9970  3.0010
 9539TIP3    H250109   0.822   1.312  15.536 -0.1977  0.5660 -0.2994
 9540TIP3   OH250110   2.330   6.394   1.511 -0.0467  0.3201 -0.1674
 9540TIP3    H150111   2.326   6.359   1.422  0.3399 -1.7193  0.5623
 9540TIP3    H250112   2.269   6.340   1.561  0.0518  1.1620  0.9071
 9541TIP3   OH250113   3.309   4.263  13.544  0.1947  0.4105 -0.5552
 9541TIP3    H150114   3.328   4.306  13.628  0.5462 -0.6458 -0.0688
 9541TIP3    H250115   3.325   4.330  13.478  2.2290  0.6041  0.0690
 9542TIP3   OH250116   0.423   4.893   5.991 -0.4958 -0.3151  0.1768
 9542TIP3    H150117   0.484   4.918   6.060  0.9341 -0.0298 -1.1293
 9542TIP3    H250118   0.343   4.942   6.011  0.1930  0.4730  1.1046
 9543TIP3   OH250119   1.236   0.920   5.124  0.2956  0.2272 -0.3007
 9543TIP3    H150120   1.307   0.912   5.061  1.5445  0.2953  1.0375
 9543TIP3    H250121   1.228   1.014   5.140  0.3246  0.1782  0.0079
 9544TIP3   OH250122   5.439   1.807   4.031  0.3716 -0.1462 -0.0106
 9544TIP3    H150123   5.458   1.794   4.124 -0.4984  0.2304  0.2196
 9544TIP3    H250124   5.366   1.748   4.013  0.2928  0.0631 -0.3731
 9545TIP3   OH250125   4.071   6.482   2.974 -0.0688  0.4871 -0.0154
 9545TIP3    H150126   4.141   6.418   2.963 -2.0040 -1.9495  0.7098
 9545TIP3    H250127   4.087   6.522   3.059 -0.7574 -1.8200  1.2919
 9546TIP3   OH250128   5.651   0.926   1.999  0.3403 -0.7856 -0.2321
 9546TIP3    H150129   5.593   0.899   1.927  0.0473  0.1150 -0.3516
 9546TIP3    H250130   5.668   1.019   1.982 -0.3608 -0.3413  1.2802
 9547TIP3   OH250131   3.365   0.871   4.707  0.4775  0.1931 -1.1093
 9547TIP3    H150132   3.291   0.931   4.713  0.2739 -0.1710  3.1107
 9547TIP3    H250133   3.327   0.786   4.686 -0.5784 -0.1610  1.8261
 9548TIP3   OH250134   4.589   2.929   5.832  0.1142  0.2772  0.2585
 9548TIP3    H150135   4.496   2.926   5.809  0.3436 -0.6012 -0.6319
 9548TIP3    H250136   4.591   2.971   5.918 -1.0184  1.1493 -0.1100
 9549TIP3   OH250137   6.023   4.750   1.064  0.0985  0.7707  0.0363
 9549TIP3    H150138   5.957   4.685   1.040 -0.9397  1.7101  0.3278
 9549TIP3    H250139   5.977   4.834   1.062  1.6170  1.6358 -1.1587
 9550TIP3   OH250140   2.817   6.682   3.966 -0.0666 -0.2897 -0.0071
 9550TIP3    H150141   2.904   6.657   3.937 -0.2046  0.0913 -0.7926
 9550TIP3    H250142   2.818   6.778   3.966 -0.2329 -0.2800  0.7861
 9551TIP3   OH250143   5.422   0.531  11.998  0.4347  0.5155 -0.0942
 9551TIP3    H150144   5.426   0.627  11.993 -0.2378  0.4727 -2.6584
 9551TIP3    H250145   5.374   0.514  12.079  2.2821  2.2528  1.4776
 9552TIP3   OH250146   5.012   6.649  11.994  0.0880 -0.0193 -0.3190
 9552TIP3    H150147   5.011   6.717  11.926 -1.2526 -1.2264 -1.5922
 9552TIP3    H250148   4.951   6.681  12.060  1.2688  1.0852  0.2891
 9553TIP3   OH250149   5.207   1.076   4.102  0.0072  0.3888 -0.2234
 9553TIP3    H150150   5.112   1.081   4.087  0.0325  0.0176 -0.5464
 9553TIP3    H250151   5.217   1.073   4.197 -0.3684 -0.5933 -0.2062
 9554TIP3   OH250152   5.705   1.044   3.700 -0.2331  0.5038 -0.5556
 9554TIP3    H150153   5.785   1.087   3.730  0.7264 -0.6185 -1.3805
 9554TIP3    H250154   5.717   0.952   3.723 -0.9548  0.1956 -1.3288
 9555TIP3   OH250155   3.151   0.566  15.288 -0.3464 -0.0548  0.1337
 9555TIP3    H150156   3.203   0.510  15.346 -2.6708 -1.0149  1.4387
 9555TIP3    H250157   3.096   0.504  15.240 -0.0746  0.9019 -1.4759
 9556TIP3   OH250158   4.605   3.153   6.081 -0.0397 -0.2805  0.2214
 9556TIP3    H150159   4.697   3.130   6.071  0.0215 -0.6455  1.4383
 9556TIP3    H250160   4.603   3.209   6.159 -0.4787  2.0558 -1.3584
 9557TIP3   OH250161   6.696   1.366  13.656  0.3562  0.0973 -0.3435
 9557TIP3    H150162   6.607   1.390  13.632 -0.2045 -0.6722  0.9163
 9557TIP3    H250163   6.714   1.416  13.735  1.3767  0.9117 -1.0619
 9558TIP3   OH250164   2.558   3.301   2.926  0.0278  0.1688  0.4805
 9558TIP3    H150165   2.499   3.252   2.983  0.7227  0.0565  1.1127
 9558TIP3    H250166   2.551   3.257   2.841 -0.4045 -0.1557  0.6811
 9559TIP3   OH250167   1.352   2.231  15.750 -0.0406 -0.0367  0.4222
 9559TIP3    H150168   1.364   2.228  15.845 -3.3126  0.5178  0.9667
 9559TIP3    H250169   1.334   2.323  15.731 -1.9050 -0.5096 -0.2984
 9560TIP3   OH250170   0.274   2.455  11.481 -0.1373  0.1340 -0.5722
 9560TIP3    H150171   0.219   2.452  11.559  0.5984  0.1184 -0.0493
 9560TIP3    H250172   0.318   2.540  11.487 -1.3264  0.8915 -1.8467
 9561TIP3   OH250173   5.524   3.806  16.820  0.0221 -0.3911  0.2848
 9561TIP3    H150174   5.557   3.851  16.897 -0.2210  0.9008 -0.3418
 9561TIP3    H250175   5.434   3.837  16.810  0.6471  0.9974 -1.5988
 9562TIP3   OH250176   6.283   4.059   3.351  0.2815  0.0093 -0.3688
 9562TIP3    H150177   6.282   4.069   3.446  0.7702 -1.9967 -0.1135
 9562TIP3    H250178   6.375   4.042   3.330  0.2997  1.1076 -1.3184
 9563TIP3   OH250179   4.217   3.519   3.712 -0.2006 -0.4699  0.0367
 9563TIP3    H150180   4.272   3.587   3.751  0.0660 -0.2254 -0.7396
 9563TIP3    H250181   4.250   3.510   3.623 -1.6405 -0.0795 -0.5565
 9564TIP3   OH250182   4.315   0.184   1.167  0.3733 -0.2040 -0.5138
 9564TIP3    H150183   4.373   0.108   1.167 -0.5509 -1.0372  1.8974
 9564TIP3    H250184   4.230   0.149   1.142  0.0155  0.0742  0.2656
 9565TIP3   OH250185   2.304   5.883   3.413 -0.0930  0.5019 -0.4441
 9565TIP3    H150186   2.310   5.923   3.326  2.0196  1.3345  0.0220
 9565TIP3    H250187   2.353   5.942   3.470  0.0676 -0.9402  0.9870
 9566TIP3   OH250188   6.341   2.852  12.561  0.2565  0.1328 -0.2883
 9566TIP3    H150189   6.335   2.844  12.656  0.3502  3.2415  0.0832
 9566TIP3    H250190   6.434   2.866  12.544  0.2841 -0.7060 -0.9056
 9567TIP3   OH250191   2.696   2.782   4.481  0.0507  0.5719  0.5549
 9567TIP3    H150192   2.717   2.709   4.422  1.9655  0.2759  1.5300
 9567TIP3    H250193   2.707   2.860   4.426  0.2397  0.2357  0.1033
 9568TIP3   OH250194   0.990   4.874  13.197 -0.0153 -0.0856 -0.1653
 9568TIP3    H150195   1.044   4.813  13.248  2.4211  0.3435 -2.0390
 9568TIP3    H250196   0.970   4.945  13.258  0.4208 -0.8939  0.9604
 9569TIP3   OH250197   4.357   0.373  12.583 -0.1568 -0.3033 -0.3456
 9569TIP3    H150198   4.431   0.317  12.605  0.9431  0.6769 -1.4613
 9569TIP3    H250199   4.295   0.315  12.539  0.1045 -1.0369  0.2376
 9570TIP3   OH250200   5.511   3.668  13.169 -0.1586  0.2735  0.6628
 9570TIP3    H150201   5.528   3.600  13.234  0.3416  0.2852  0.5511
 9570TIP3    H250202   5.498   3.619  13.087 -1.9311  0.1776  0.9553
 9571TIP3   OH250203   4.468   0.676   4.346 -0.2123  0.4651  0.2889
 9571TIP3    H150204   4.374   0.655   4.348 -0.0977 -0.0602  0.3125
 9571TIP3    H250205   4.511   0.597   4.380  0.1408  1.3584  1.9987
 9572TIP3   OH250206   2.828   6.114   2.593  0.2189  0.2165  0.3755
 9572TIP3    H150207   2.836   6.132   2.499 -2.0238 -0.0680  0.0562
 9572TIP3    H250208   2.892   6.171   2.634  1.1222  0.4879 -1.3206
 9573TIP3   OH250209   2.911   0.689  11.351 -0.5960  0.0291 -0.0224
 9573TIP3    H150210   2.823   0.654  11.338 -0.4005  0.0371 -1.7207
 9573TIP3    H250211   2.953   0.678  11.265  0.5495  1.4389  0.3193
 9574TIP3   OH250212   6.171   5.296  11.014  0.1739 -0.1368  0.1654
 9574TIP3    H150213   6.110   5.322  10.945  1.3690  0.5011 -0.6935
 9574TIP3    H250214   6.183   5.202  11.001  0.9850  0.1085 -1.0313
 9575TIP3   OH250215   2.175   1.995   1.820  0.2299  0.1858  0.8507
 9575TIP3    H150216   2.233   2.056   1.775  0.7943  0.6716  2.1798
 9575TIP3    H250217   2.094   1.997   1.770  0.2949  1.9143  0.7695
 9576TIP3   OH250218   6.300   2.010   3.535  0.0046 -0.0518 -0.4693
 9576TIP3    H150219   6.312   1.993   3.442  2.8169  1.4602 -0.5114
 9576TIP3    H250220   6.206   2.004   3.549 -0.7184  1.4176 -3.7984
 9577TIP3   OH250221   2.136   6.105   5.263  0.1151 -0.5750  0.2467
 9577TIP3    H150222   2.230   6.126   5.259 -0.1008  0.8660  1.7127
 9577TIP3    H250223   2.123   6.072   5.352 -0.3176 -3.4055 -0.7749
 9578TIP3   OH250224   1.843   3.969   5.668  0.3128  0.6882 -0.1788
 9578TIP3    H150225   1.882   3.969   5.580 -0.6200  0.5402 -0.6084
 9578TIP3    H250226   1.914   3.944   5.726  0.5603 -0.8102 -1.0789
 9579TIP3   OH250227   6.565   2.015  15.899  0.0144 -0.0700 -0.1513
 9579TIP3    H150228   6.564   1.919  15.896 -1.1748 -0.1112  0.9886
 9579TIP3    H250229   6.648   2.037  15.942 -0.0193 -0.6156  0.2022
 9580TIP3   OH250230   3.705   0.716  13.507 -0.3641 -0.9020  0.4571
 9580TIP3    H150231   3.613   0.699  13.528 -0.3360 -0.3109  1.1154
 9580TIP3    H250232   3.740   0.757  13.586  0.3236 -0.5961  0.0035
 9581TIP3   OH250233   2.581   3.854  13.128  0.1601  0.8427 -0.0946
 9581TIP3    H150234   2.538   3.784  13.176 -0.4858 -0.1275 -2.0090
 9581TIP3    H250235   2.675   3.836  13.139  0.0635  1.1182  1.4183
 9582TIP3   OH250236   0.022   0.512   0.982 -0.3604  0.2736 -0.0067
 9582TIP3    H150237   0.028   0.607   0.989 -0.5654  0.2484  0.5506
 9582TIP3    H250238   0.091   0.488   0.920  0.8929  0.6075  1.2345
 9583TIP3   OH250239   6.053   5.991  14.221 -0.3854  0.9015  0.2949
 9583TIP3    H150240   6.017   6.080  14.214  1.4029  1.7024  0.6806
 9583TIP3    H250241   6.048   5.956  14.132 -1.1141  1.3753  0.1395
 9584TIP3   OH250242   0.951   0.587  11.733 -0.2609 -0.7075  0.5362
 9584TIP3    H150243   0.894   0.591  11.810  0.2361  0.8060  0.8563
 9584TIP3    H250244   1.037   0.615  11.765 -0.0960  0.1635 -0.5960
 9585TIP3   OH250245   2.919   6.564  11.060 -0.4741 -0.2138  0.0070
 9585TIP3    H150246   2.874   6.480  11.056  1.4692 -1.3151 -0.1299
 9585TIP3    H250247   2.998   6.551  11.008 -1.3413  2.5578 -2.2218
 9586TIP3   OH250248   6.699   5.545   1.779  0.0112  0.3805 -0.1710
 9586TIP3    H150249   6.717   5.585   1.694  0.7193  0.2769 -0.0735
 9586TIP3    H250250   6.633   5.478   1.760 -1.4845  1.8412 -0.2653
 9587TIP3   OH250251   3.734   5.770   2.109 -0.1037  0.1998  0.0752
 9587TIP3    H150252   3.660   5.818   2.070 -2.2372 -2.4966  0.5002
 9587TIP3    H250253   3.763   5.712   2.039  0.3861 -0.0731  0.5066
 9588TIP3   OH250254   2.787   1.357   5.031  0.5327  0.1244 -0.2520
 9588TIP3    H150255   2.749   1.273   5.058 -1.1512  1.1984  0.9242
 9588TIP3    H250256   2.836   1.386   5.109 -0.7404  1.2327  0.1644
 9589TIP3   OH250257   1.103   1.039   2.191  0.2629 -0.2878  0.0559
 9589TIP3    H150258   1.039   1.028   2.261 -1.1761  2.1326 -0.7614
 9589TIP3    H250259   1.187   1.023   2.233 -0.6053  0.3839  2.1880
 9590TIP3   OH250260   6.000   1.907   2.909 -0.4522  0.0181  0.1237
 9590TIP3    H150261   6.008   1.829   2.855  0.6591 -0.0448  0.3445
 9590TIP3    H250262   5.911   1.904   2.945 -0.9721 -0.2881 -1.1444
 9591TIP3   OH250263   2.130   2.792  11.636  0.1682  0.7920  0.2924
 9591TIP3    H150264   2.034   2.795  11.645  0.1290  0.3609  0.0329
 9591TIP3    H250265   2.153   2.878  11.602 -0.1670  0.7660 -0.0038
 9592TIP3   OH250266   4.192   1.541  11.677  0.2450  0.7835 -0.3001
 9592TIP3    H150267   4.223   1.595  11.605 -0.8634  1.5067 -0.2520
 9592TIP3    H250268   4.247   1.463  11.674 -1.5051 -0.5140 -3.6646
 9593TIP3   OH250269   0.239   6.390  15.955 -0.3068  0.7733 -0.3767
 9593TIP3    H150270   0.329   6.389  15.989 -0.5157  0.5864  0.1640
 9593TIP3    H250271   0.191   6.447  16.014 -0.6254  0.6065 -0.4718
 9594TIP3   OH250272   2.351   0.638   3.963  0.1075  0.4019 -0.4228
 9594TIP3    H150273   2.295   0.657   3.888 -1.5060 -0.1757  0.5749
 9594TIP3    H250274   2.430   0.690   3.948 -1.4916  2.8499 -0.9351
 9595TIP3   OH250275   0.803   1.316   1.439 -0.0384 -0.2847 -0.2196
 9595TIP3    H150276   0.842   1.399   1.412  0.4633 -1.1178 -2.2554
 9595TIP3    H250277   0.732   1.341   1.498  1.3110  1.4548  0.7663
 9596TIP3   OH250278   1.858   6.111   1.623 -0.1074 -0.3216 -1.2232
 9596TIP3    H150279   1.856   6.018   1.643 -2.9375 -0.0721  0.2171
 9596TIP3    H250280   1.780   6.126   1.570 -0.9071  1.4794  0.3207
 9597TIP3   OH250281   1.334   0.057   5.671  0.1075  0.3733  0.3095
 9597TIP3    H150282   1.373  -0.002   5.735 -0.1140 -1.0829 -0.8594
 9597TIP3    H250283   1.406   0.080   5.613 -0.1806 -0.1500 -0.2594
 9598TIP3   OH250284   0.817   1.289  13.935  0.5719 -0.5038  0.4667
 9598TIP3    H150285   0.881   1.301  14.005  0.3995  1.6142  0.3268
 9598TIP3    H250286   0.869   1.267  13.858  1.1538  0.9334  0.4164
 9599TIP3   OH250287   0.160   0.920  10.966  1.0914 -0.2915 -0.2674
 9599TIP3    H150288   0.112   0.927  10.884 -0.9931 -1.8219  0.7374
 9599TIP3    H250289   0.131   0.996  11.017 -1.6559 -1.9705  0.9158
 9600TIP3   OH250290   6.747   0.400  17.309 -0.3735 -0.0616 -0.1901
 9600TIP3    H150291   6.698   0.336  17.360  0.3604 -0.1794  0.3889
 9600TIP3    H250292   6.731   0.484  17.352  0.5051 -0.2089  0.4491
 9601TIP3   OH250293   2.205   6.595  16.523 -0.1615 -0.0757  0.0201
 9601TIP3    H150294   2.120   6.636  16.537 -0.4632 -1.1988  1.7233
 9601TIP3    H250295   2.198   6.555  16.436 -1.6654 -0.7757  0.4209
 9602TIP3   OH250296   0.282   3.052  10.999 -0.3134 -0.1842  0.2964
 9602TIP3    H150297   0.245   3.068  10.912  0.7753  0.6045 -0.0381
 9602TIP3    H250298   0.376   3.043  10.984  0.2449  2.4203  1.6499
 9603TIP3   OH250299   1.262   2.640   5.568 -0.1444  0.1949 -0.1016
 9603TIP3    H150300   1.275   2.732   5.547 -0.4972  0.0227 -1.1352
 9603TIP3    H250301   1.249   2.638   5.663 -0.1521  1.2056 -0.0766
 9604TIP3   OH250302   4.220   1.294   4.423  0.0376 -0.3688  0.3054
 9604TIP3    H150303   4.251   1.319   4.510  1.1636  1.0916 -0.4586
 9604TIP3    H250304   4.139   1.246   4.439  0.7175 -0.9835  2.1908
 9605TIP3   OH250305   5.045   1.159  13.936  0.1243  0.7646  0.5397
 9605TIP3    H150306   5.007   1.235  13.891  1.1276 -0.0256 -1.7980
 9605TIP3    H250307   5.014   1.083  13.886  1.3392 -0.1873  1.1681
 9606TIP3   OH250308   0.581   3.825   4.106  0.3063 -0.0977  0.0911
 9606TIP3    H150309   0.519   3.801   4.175  1.3571 -0.9741  0.7500
 9606TIP3    H250310   0.599   3.918   4.122  0.1672 -0.1688  0.6986
 9607TIP3   OH250311   3.470   1.415  13.087  0.3251 -0.0683  0.5817
 9607TIP3    H150312   3.411   1.461  13.146  0.6610 -0.8726  1.5621
 9607TIP3    H250313   3.475   1.472  13.010 -2.8764 -0.6348 -0.2050
 9608TIP3   OH250314   0.186   0.055   3.991  0.1676 -0.4096 -0.3595
 9608TIP3    H150315   0.097   0.084   4.014  0.3254  0.2156 -0.5069
 9608TIP3    H250316   0.192  -0.034   4.024 -0.4002 -0.3320 -0.0365
 9609TIP3   OH250317   1.358   2.153  17.252  0.1674 -0.7908 -0.4288
 9609TIP3    H150318   1.351   2.108  17.167 -0.6932  0.4686 -1.0645
 9609TIP3    H250319   1.408   2.232  17.232  0.3249 -0.6982  0.3369
 9610TIP3   OH250320   3.431   2.728  14.249  0.6236  0.7373  0.4015
 9610TIP3    H150321   3.507   2.689  14.292  0.3093  0.3694  0.6412
 9610TIP3    H250322   3.423   2.815  14.289 -0.6704 -0.2131  2.3969
 9611TIP3   OH250323   6.783   6.612   1.778 -0.1392  0.2961 -0.0228
 9611TIP3    H150324   6.693   6.580   1.773 -0.9789  2.6162 -2.1707
 9611TIP3    H250325   6.779   6.688   1.836  0.2279  0.8931 -0.7531
 9612TIP3   OH250326   6.715   0.265   4.478 -0.3951  0.2381 -0.1539
 9612TIP3    H150327   6.801   0.304   4.489 -0.6274  1.2223 -1.5831
 9612TIP3    H250328   6.730   0.170   4.486  1.2339  0.2022 -2.5988
 9613TIP3   OH250329   2.259   4.633   5.476  0.5686 -0.0113  0.3579
 9613TIP3    H150330   2.241   4.607   5.386 -0.5710 -0.5587  0.7270
 9613TIP3    H250331   2.338   4.584   5.500 -1.1124 -2.6758  0.8027
 9614TIP3   OH250332   6.474   0.555   4.644  0.4758 -0.1135 -0.2399
 9614TIP3    H150333   6.542   0.563   4.710  0.9424 -1.3846 -0.5335
 9614TIP3    H250334   6.516   0.511   4.571 -0.3925  0.0376 -0.8488
 9615TIP3   OH250335   6.397   6.291  11.571 -0.0682  0.1764  0.1451
 9615TIP3    H150336   6.339   6.223  11.535  0.1735  0.1011 -0.1024
 9615TIP3    H250337   6.484   6.252  11.568  0.3141  1.0829 -1.5123
 9616TIP3   OH250338   0.744   3.828   3.545  0.0559  0.4276  0.2714
 9616TIP3    H150339   0.651   3.813   3.563  0.5784 -0.8566  2.2286
 9616TIP3    H250340   0.755   3.923   3.550 -0.9170  0.5019  1.4763
 9617TIP3   OH250341   5.196   1.936  11.591 -0.3459  0.0505 -0.5796
 9617TIP3    H150342   5.269   1.941  11.530 -1.0799 -0.8252 -1.5466
 9617TIP3    H250343   5.146   2.017  11.576  0.6271  0.8518  0.3785
 9618TIP3   OH250344   5.073   0.833   0.793  0.1983 -0.7478  0.0907
 9618TIP3    H150345   5.063   0.738   0.786  2.2181 -1.0335  0.4155
 9618TIP3    H250346   5.165   0.849   0.772 -0.0495  1.1215  0.2518
 9619TIP3   OH250347   4.640   4.186  11.433  0.2823 -0.1081  0.7619
 9619TIP3    H150348   4.726   4.167  11.469 -0.1525  0.7591  2.3588
 9619TIP3    H250349   4.658   4.227  11.348  1.3088 -3.6302 -0.9160
 9620TIP3   OH250350   2.364   3.790  15.795  0.1459  0.0599  0.5356
 9620TIP3    H150351   2.384   3.696  15.797  1.6306  0.2779 -1.1282
 9620TIP3    H250352   2.290   3.797  15.736  2.1092  0.1318 -2.1316
 9621TIP3   OH250353   0.936   6.731   4.902  0.2234 -0.0162  0.3053
 9621TIP3    H150354   0.939   6.784   4.982 -0.8089  0.6094 -0.0513
 9621TIP3    H250355   1.027   6.722   4.876  0.3836  3.2540 -0.6828
 9622TIP3   OH250356   2.219   3.821   6.661  0.0469  0.1169 -0.3246
 9622TIP3    H150357   2.206   3.740   6.611 -3.4633  0.5410 -0.3329
 9622TIP3    H250358   2.260   3.881   6.599  0.9457 -1.0548 -0.8997
 9623TIP3   OH250359   1.028   4.295   6.473  0.1113 -0.0630  0.3477
 9623TIP3    H150360   1.106   4.341   6.506  1.3543 -0.4313 -1.9133
 9623TIP3    H250361   1.030   4.309   6.379 -0.6630 -2.9283 -0.1773
 9624TIP3   OH250362   0.560   3.552  16.364 -0.1966 -0.2582 -0.5798
 9624TIP3    H150363   0.480   3.599  16.340  0.0682  0.2461 -0.5061
 9624TIP3    H250364   0.532   3.488  16.429 -0.4907  0.1444 -0.2996
 9625TIP3   OH250365   3.567   5.074  13.628  0.0174  0.2229 -0.1842
 9625TIP3    H150366   3.605   5.121  13.554 -0.6724  1.6400  0.3305
 9625TIP3    H250367   3.499   5.132  13.661  1.1158  0.1745  2.3325
 9626TIP3   OH250368   1.822   0.384   3.261 -0.3706  0.3514 -0.8074
 9626TIP3    H150369   1.750   0.397   3.199 -0.4785 -0.0146 -0.7674
 9626TIP3    H250370   1.845   0.471   3.291  0.3493  0.6236 -2.1059
 9627TIP3   OH250371   0.738   1.512  13.798 -0.4501  0.1943 -0.7846
 9627TIP3    H150372   0.771   1.438  13.849  1.9933  1.4939 -0.3047
 9627TIP3    H250373   0.645   1.493  13.786  0.1546 -3.1886 -1.1620
 9628TIP3   OH250374   6.475   6.156  16.520 -0.0967 -0.2556  0.0154
 9628TIP3    H150375   6.395   6.148  16.469  0.3324  0.2785 -0.7615
 9628TIP3    H250376   6.508   6.243  16.500 -0.0570  0.0852  1.4344
 9629TIP3   OH250377   3.122   2.150   0.762 -0.6350 -0.0029  0.1706
 9629TIP3    H150378   3.195   2.104   0.720 -1.4758 -0.3906 -0.8899
 9629TIP3    H250379   3.113   2.232   0.713 -1.4534 -0.3403 -0.2546
 9630TIP3   OH250380   3.988   1.125   3.885  0.3825  0.1890 -0.2145
 9630TIP3    H150381   3.954   1.053   3.938 -0.7484  0.8788  0.0140
 9630TIP3    H250382   3.998   1.086   3.797 -0.7175 -0.1167 -0.2179
 9631TIP3   OH250383   2.215   3.245  14.755  0.3086 -0.0806 -0.1908
 9631TIP3    H150384   2.243   3.304  14.825  1.1254 -2.3107  1.4736
 9631TIP3    H250385   2.273   3.266  14.681  1.7869  0.0423  0.9480
 9632TIP3   OH250386   1.916   1.272  14.868 -0.1391 -0.0319  0.8075
 9632TIP3    H150387   1.899   1.276  14.962 -0.9720 -3.4018  0.9408
 9632TIP3    H250388   2.005   1.235  14.862 -0.6387 -1.2160  0.3517
 9633TIP3   OH250389   2.377   3.333  16.839  1.2846  0.3705  0.2056
 9633TIP3    H150390   2.407   3.396  16.774  0.8132  0.0404 -0.3425
 9633TIP3    H250391   2.426   3.253  16.819  0.2420 -0.1052 -0.5547
 9634TIP3   OH250392   2.931   4.497  12.729  0.0649  0.7431  0.2857
 9634TIP3    H150393   3.013   4.496  12.679 -0.2316  3.1026 -0.3540
 9634TIP3    H250394   2.874   4.436  12.683  0.7822  0.6127 -0.4568
 9635TIP3   OH250395   5.048   2.327  16.012 -0.0369  0.1992  0.0247
 9635TIP3    H150396   5.014   2.342  16.100 -0.5049 -0.8718  0.0531
 9635TIP3    H250397   4.985   2.266  15.973 -0.2301  1.2071 -1.3137
 9636TIP3   OH250398   3.590   6.770  16.614  0.0001 -0.0418 -0.3383
 9636TIP3    H150399   3.576   6.778  16.520 -0.3063 -1.3186 -0.4294
 9636TIP3    H250400   3.504   6.787  16.653  0.1222  0.4664 -0.2919
 9637TIP3   OH250401   6.164   0.759  15.087  0.0431 -0.2721  0.5458
 9637TIP3    H150402   6.222   0.754  15.163 -0.4130 -0.2205  0.8947
 9637TIP3    H250403   6.087   0.709  15.111 -0.2944  0.1150  0.2893
 9638TIP3   OH250404   4.131   2.276  14.618  0.1551  0.0642  0.7247
 9638TIP3    H150405   4.072   2.231  14.678 -0.6880  1.0823  0.6950
 9638TIP3    H250406   4.120   2.369  14.639 -1.0808  0.5649 -1.7636
 9639TIP3   OH250407   0.001   6.609  15.431 -1.0742  0.4350 -0.1673
 9639TIP3    H150408   0.091   6.601  15.463 -0.1367 -0.8090 -2.7776
 9639TIP3    H250409  -0.017   6.703  15.431 -0.5392  0.5888  2.1997
 9640TIP3   OH250410   2.057   1.221  14.496  0.4423 -0.0474 -0.4531
 9640TIP3    H150411   2.037   1.284  14.427  0.3753 -0.3176 -0.6835
 9640TIP3    H250412   2.075   1.139  14.449 -2.5740 -1.0562 -0.0530
 9641TIP3   OH250413   1.999   5.076  14.614  0.1526  0.1023  0.3418
 9641TIP3    H150414   1.990   5.171  14.611  0.9914  0.1660 -0.4798
 9641TIP3    H250415   2.086   5.061  14.652  0.1434 -0.3210  0.2062
 9642TIP3   OH250416   5.681   0.778  16.308 -0.3352  0.4774  0.2242
 9642TIP3    H150417   5.746   0.783  16.238 -0.3267 -0.2784  0.1748
 9642TIP3    H250418   5.698   0.695  16.351  0.1672  1.2884  1.6472
 9643TIP3   OH250419   6.774   2.962   3.952  0.4867  0.5104 -0.0554
 9643TIP3    H150420   6.752   3.019   4.026 -1.4292 -0.9462  0.5651
 9643TIP3    H250421   6.704   2.976   3.889 -1.3624 -2.6658  1.0468
 9644TIP3   OH250422   5.269   4.301   4.850  0.2486  0.0107  0.9460
 9644TIP3    H150423   5.245   4.274   4.938 -0.0869 -1.6108  0.3961
 9644TIP3    H250424   5.362   4.326   4.856  0.5397 -1.1715  1.5353
 9645TIP3   OH250425   1.499   1.275   1.682 -0.3980  0.1477  0.6023
 9645TIP3    H150426   1.521   1.292   1.591  1.7745 -2.7775  0.4392
 9645TIP3    H250427   1.485   1.361   1.720  1.6901  1.6722 -1.7834
 9646TIP3   OH250428   1.812   2.114   4.422  0.0839 -0.3772  0.1676
 9646TIP3    H150429   1.865   2.073   4.353  0.0683 -0.6155  0.2959
 9646TIP3    H250430   1.819   2.208   4.405  3.5717 -0.0566  2.2821
 9647TIP3   OH250431   3.809   3.571   4.782  0.0875  0.4299 -0.2107
 9647TIP3    H150432   3.812   3.634   4.854 -0.2470  0.0035  0.1802
 9647TIP3    H250433   3.719   3.539   4.781  0.3860 -0.4636 -0.0300
 9648TIP3   OH250434   5.575   6.585   5.835 -0.2823 -0.0261 -0.8832
 9648TIP3    H150435   5.652   6.617   5.882 -0.4549  0.1789 -0.7386
 9648TIP3    H250436   5.512   6.563   5.904 -0.8052  0.9496 -1.0305
 9649TIP3   OH250437   2.721   6.230   1.696 -0.0346 -0.7176 -0.0850
 9649TIP3    H150438   2.750   6.151   1.742 -2.9429 -0.4489  2.5597
 9649TIP3    H250439   2.749   6.302   1.753 -0.3365 -0.1013 -0.7030
 9650TIP3   OH250440   2.395   5.379   5.666 -0.0406  0.1913 -0.1285
 9650TIP3    H150441   2.342   5.435   5.723 -0.4174 -0.0197 -0.2696
 9650TIP3    H250442   2.394   5.293   5.710 -1.5096 -0.3570 -1.1480
 9651TIP3   OH250443   4.803   2.434  15.030  0.2688  0.4048  0.0443
 9651TIP3    H150444   4.832   2.422  15.120  1.9824 -1.5941 -0.6894
 9651TIP3    H250445   4.713   2.403  15.029  0.1955  0.5535  1.0632
 9652TIP3   OH250446   2.379   0.043  11.854 -0.2181 -0.3964 -0.1047
 9652TIP3    H150447   2.472   0.032  11.832  0.1655 -0.4826  1.4375
 9652TIP3    H250448   2.337   0.062  11.770  1.4655  1.5362 -0.5866
 9653TIP3   OH250449   0.703   2.773  14.042 -0.4071 -0.0410  0.1645
 9653TIP3    H150450   0.667   2.848  14.089 -0.8237 -0.5156  0.6222
 9653TIP3    H250451   0.757   2.727  14.107  2.8233  1.7641 -0.9932
 9654TIP3   OH250452   4.309   2.837   5.873 -0.4182  0.2294  0.4594
 9654TIP3    H150453   4.281   2.886   5.950 -0.1612 -0.2951  0.8957
 9654TIP3    H250454   4.345   2.756   5.908  0.5646  0.3834 -0.1565
 9655TIP3   OH250455   3.112   5.627  11.497 -0.0208  0.3575  0.3328
 9655TIP3    H150456   3.028   5.621  11.544 -0.1896 -0.0610 -0.0182
 9655TIP3    H250457   3.176   5.645  11.566 -0.0143 -1.9117  0.9951
 9656TIP3   OH250458   4.689   3.324  14.271 -0.0359 -0.0166  0.2334
 9656TIP3    H150459   4.729   3.402  14.309 -0.7416  1.1607 -1.3580
 9656TIP3    H250460   4.711   3.328  14.178 -1.5008 -0.8323 -0.1774
 9657TIP3   OH250461   0.250   6.125  14.502  0.1071  0.2447 -0.4063
 9657TIP3    H150462   0.228   6.089  14.416 -0.2827  0.0050 -0.2099
 9657TIP3    H250463   0.212   6.063  14.564 -2.6217  2.0984 -0.0354
 9658TIP3   OH250464   4.088   4.697   3.687 -0.4719 -0.2135 -0.1742
 9658TIP3    H150465   4.042   4.753   3.624  0.3766  0.4466 -0.2210
 9658TIP3    H250466   4.171   4.676   3.645  0.3573  0.7069  0.9295
 9659TIP3   OH250467   0.939   5.872  16.879  0.4963  0.0342  0.5747
 9659TIP3    H150468   0.938   5.955  16.831  0.2835  0.0461  0.6005
 9659TIP3    H250469   0.858   5.828  16.854  0.0852  0.3044  1.3817
 9660TIP3   OH250470   4.959   6.086  11.395  0.1217 -0.6053  0.3697
 9660TIP3    H150471   4.911   6.166  11.375  1.4823  0.3398  0.7506
 9660TIP3    H250472   4.991   6.098  11.484  2.4358 -0.4567 -0.4062
 9661TIP3   OH250473   3.768   1.143  15.180 -0.0817 -0.6338  0.0543
 9661TIP3    H150474   3.701   1.209  15.164 -0.9837 -1.1293  1.5027
 9661TIP3    H250475   3.845   1.192  15.208  0.8239  0.0740 -3.2614
 9662TIP3   OH250476   5.142   2.345  14.738  0.0072 -0.2341 -0.0859
 9662TIP3    H150477   5.105   2.350  14.650  0.6980 -1.4557 -0.4829
 9662TIP3    H250478   5.082   2.289  14.787 -1.6116  2.2520  0.9468
 9663TIP3   OH250479   1.306   5.499  13.070  0.1253 -0.5383  0.2607
 9663TIP3    H150480   1.255   5.515  12.991  1.3008  0.7440 -0.2833
 9663TIP3    H250481   1.329   5.587  13.102 -0.2426 -1.0251  1.9905
 9664TIP3   OH250482   0.211   4.938  12.036 -0.0762 -0.6415 -0.0602
 9664TIP3    H150483   0.156   4.860  12.025  0.1381 -0.7838 -0.1452
 9664TIP3    H250484   0.287   4.906  12.086  1.4183 -1.1628 -2.4842
 9665TIP3   OH250485   0.259   0.965  11.594 -0.4616 -0.1220 -0.6539
 9665TIP3    H150486   0.236   0.875  11.617 -0.7177  0.1501  0.1759
 9665TIP3    H250487   0.354   0.970  11.610 -0.3383 -0.4070 -1.2696
 9666TIP3   OH250488   0.816   1.990  16.453 -0.1665 -0.1391  0.1618
 9666TIP3    H150489   0.781   2.000  16.364  0.6204  1.0570 -0.0494
 9666TIP3    H250490   0.848   1.900  16.456 -1.9294 -0.8052 -0.0993
 9667TIP3   OH250491   1.193   1.974   3.781  0.9505  0.1958 -0.4279
 9667TIP3    H150492   1.254   1.946   3.713  0.3492 -0.8116 -0.5594
 9667TIP3    H250493   1.107   1.971   3.740  0.6503  0.2365  0.1822
 9668TIP3   OH250494   1.082   0.771   5.309  0.2199 -0.1783  0.4415
 9668TIP3    H150495   1.060   0.686   5.271 -0.6179  0.9914 -1.8754
 9668TIP3    H250496   1.116   0.822   5.236 -1.9881  2.3866  1.0255
 9669TIP3   OH250497   0.411   0.571   3.589 -0.0663 -0.5896 -0.1754
 9669TIP3    H150498   0.393   0.646   3.646 -0.4886  3.1629 -4.6523
 9669TIP3    H250499   0.506   0.558   3.596 -0.0870 -0.1805  1.1870
 9670TIP3   OH250500   2.148   4.839   5.777 -0.2864  0.2011 -0.3863
 9670TIP3    H150501   2.175   4.750   5.798 -0.5389 -0.2614 -1.9068
 9670TIP3    H250502   2.052   4.838   5.783 -0.2631  0.4829  0.0311
 9671TIP3   OH250503   2.587   2.943  13.706 -0.1712  0.0878 -0.1416
 9671TIP3    H150504   2.492   2.934  13.713 -0.5519  3.0321 -0.5619
 9671TIP3    H250505   2.611   2.887  13.632 -1.6652 -0.2065 -0.4393
 9672TIP3   OH250506   0.977   1.738  16.473  0.9217 -0.6124  0.2688
 9672TIP3    H150507   0.982   1.711  16.381 -1.4771  0.9065 -0.3977
 9672TIP3    H250508   1.046   1.803  16.483  0.5283 -0.0069 -0.7951
 9673TIP3   OH250509   0.270   6.670  12.254 -0.4366 -0.0446 -0.6687
 9673TIP3    H150510   0.324   6.606  12.208 -0.4941  1.0584 -2.3076
 9673TIP3    H250511   0.319   6.752  12.250 -1.8176  0.7825 -1.4912
 9674TIP3   OH250512   1.878   4.123  17.304  0.5432  0.4208  0.0491
 9674TIP3    H150513   1.854   4.211  17.278  1.5764  1.3189  1.9113
 9674TIP3    H250514   1.855   4.068  17.229  0.7797  2.3882 -1.5340
 9675TIP3   OH250515   4.474   2.326   1.379 -0.4776  0.1107  0.3250
 9675TIP3    H150516   4.394   2.378   1.386 -0.0908  0.8416 -0.4462
 9675TIP3    H250517   4.505   2.341   1.289  0.3248 -0.4424  0.4965
 9676TIP3   OH250518   0.693   2.074  17.207  0.6330 -0.5244  0.6383
 9676TIP3    H150519   0.638   2.147  17.177  0.2951  0.1415  2.7160
 9676TIP3    H250520   0.634   2.021  17.261  1.3750 -1.2682  0.7351
 9677TIP3   OH250521   2.853   1.534  15.785  0.2660  0.7532  0.1871
 9677TIP3    H150522   2.913   1.590  15.735 -0.3584  1.5811  0.3310
 9677TIP3    H250523   2.892   1.447  15.781  1.6469  1.3239  0.5515
 9678TIP3   OH250524   5.272   5.345   0.507 -0.6611  0.7083  0.1126
 9678TIP3    H150525   5.347   5.327   0.450  0.9944  1.5936  1.9114
 9678TIP3    H250526   5.220   5.410   0.459 -0.8052 -0.5593 -1.5413
 9679TIP3   OH250527   2.579   6.743   3.225  0.2935 -0.1730 -0.4322
 9679TIP3    H150528   2.551   6.827   3.188  0.9693 -0.3519 -1.3816
 9679TIP3    H250529   2.673   6.753   3.239  0.7075 -1.3180 -2.1283
 9680TIP3   OH250530   4.439   6.305  12.404  0.3207  0.3437 -0.7931
 9680TIP3    H150531   4.527   6.280  12.433 -0.5873 -0.1026  1.8150
 9680TIP3    H250532   4.401   6.225  12.369  0.0432 -0.1614  0.6063
 9681TIP3   OH250533   1.701   5.512   4.779 -0.0545 -0.2382  0.1575
 9681TIP3    H150534   1.658   5.511   4.864  0.2513  1.1453  0.3566
 9681TIP3    H250535   1.635   5.546   4.718  0.8192  2.3412  0.5497
 9682TIP3   OH250536   0.236   3.052   5.033 -0.2083 -0.5659 -0.0069
 9682TIP3    H150537   0.291   3.056   5.111 -0.3634 -1.1528  0.1403
 9682TIP3    H250538   0.147   3.041   5.067 -0.2959 -0.6636 -0.2626
 9683TIP3   OH250539   4.828   3.889  16.742  0.3437 -0.1612  0.6575
 9683TIP3    H150540   4.900   3.937  16.700  1.3184  1.1979  3.5404
 9683TIP3    H250541   4.865   3.803  16.762 -0.1916 -0.8878 -1.2777
 9684TIP3   OH250542   1.532   0.612   2.717  0.0796 -0.3553  0.1629
 9684TIP3    H150543   1.495   0.564   2.792  0.1536 -0.4731  0.1246
 9684TIP3    H250544   1.560   0.543   2.657  0.8445 -0.2745  0.4238
 9685TIP3   OH250545   2.216   0.495  12.783  0.8427 -0.2639  0.5072
 9685TIP3    H150546   2.271   0.504  12.705  1.5015 -3.8545  0.3920
 9685TIP3    H250547   2.133   0.535  12.758  1.3258 -0.5215 -1.7537
 9686TIP3   OH250548   0.402   0.029   2.178  0.0848 -0.0370 -0.1217
 9686TIP3    H150549   0.398   0.060   2.268 -1.9329 -0.8478  0.1285
 9686TIP3    H250550   0.420  -0.065   2.186 -0.0948 -0.1112 -0.5711
 9687TIP3   OH250551   3.233   1.988  16.325 -0.2720  0.2201  0.3914
 9687TIP3    H150552   3.139   1.994  16.310 -0.4511 -1.1907  0.7724
 9687TIP3    H250553   3.265   1.933  16.253  0.7778  2.9942 -1.4415
 9688TIP3   OH250554   1.746   4.977  13.058  0.0173 -0.1834  0.2330
 9688TIP3    H150555   1.666   4.933  13.029  0.4213 -0.5083 -0.4086
 9688TIP3    H250556   1.715   5.056  13.102 -0.6242  0.5387 -1.4269
 9689TIP3   OH250557   4.963   6.585   6.507  0.2989  0.0399 -0.4738
 9689TIP3    H150558   5.049   6.581   6.465  0.5985  0.4570  0.0732
 9689TIP3    H250559   4.970   6.525   6.581  0.0647 -0.0510 -0.5257
 9690TIP3   OH250560   6.511   4.416  15.637  0.8971 -0.1994 -0.2511
 9690TIP3    H150561   6.522   4.501  15.679  1.7630  1.1437 -2.9208
 9690TIP3    H250562   6.600   4.386  15.620  0.5939 -1.5333  0.3963
 9691TIP3   OH250563   1.518   5.928  16.921  0.3880  0.1644  0.0919
 9691TIP3    H150564   1.570   5.848  16.925  0.2491  0.0786  0.1830
 9691TIP3    H250565   1.458   5.922  16.995  0.3860  0.3576  0.1057
 9692TIP3   OH250566   0.657   1.538   4.430  0.0969  1.2282 -0.3433
 9692TIP3    H150567   0.658   1.510   4.521  0.3077  1.9198 -0.1229
 9692TIP3    H250568   0.640   1.458   4.380  1.3566  0.5836  0.2141
 9693TIP3   OH250569   4.083   3.809  14.963 -0.0443 -0.4683 -0.3221
 9693TIP3    H150570   4.012   3.789  14.901  0.5852  0.2807 -1.3222
 9693TIP3    H250571   4.051   3.884  15.013 -0.0776 -0.3009 -0.5893
 9694TIP3   OH250572   1.237   5.507  16.987 -0.1524 -0.8874  0.2239
 9694TIP3    H150573   1.243   5.596  16.954  0.5681  0.2204  3.0517
 9694TIP3    H250574   1.153   5.474  16.954 -0.7219  1.0511 -0.3843
 9695TIP3   OH250575   2.432   3.653   4.051 -0.6044 -0.0872  0.0235
 9695TIP3    H150576   2.347   3.611   4.062 -0.1817 -0.7658  0.7902
 9695TIP3    H250577   2.418   3.743   4.082 -1.1502 -0.0681 -0.2660
 9696TIP3   OH250578   5.282   1.148  12.273 -0.2224  0.0107  0.1978
 9696TIP3    H150579   5.350   1.081  12.284 -0.1084  0.1931  0.6216
 9696TIP3    H250580   5.241   1.155  12.360  0.9264  1.7468  0.6412
 9697TIP3   OH250581   6.635   1.714   1.647 -0.1159  0.4423 -0.2656
 9697TIP3    H150582   6.688   1.786   1.684 -0.7279  0.0688  1.4506
 9697TIP3    H250583   6.574   1.758   1.588 -0.3305  1.3372  0.5810
 9698TIP3   OH250584   0.233   6.333   2.879  0.1641 -0.4265 -0.2741
 9698TIP3    H150585   0.265   6.280   2.806  1.0890 -0.2334 -0.0283
 9698TIP3    H250586   0.202   6.268   2.943 -0.1054 -0.6159 -0.5951
 9699TIP3   OH250587   2.588   6.295  14.533  0.1241 -0.0980  0.4335
 9699TIP3    H150588   2.608   6.333  14.447 -0.8397  0.0993  0.2832
 9699TIP3    H250589   2.521   6.353  14.570  0.2718 -0.3854  1.1727
 9700TIP3   OH250590   0.174   6.368  14.844 -0.1953 -0.2272 -0.4326
 9700TIP3    H150591   0.265   6.396  14.838 -0.6165  1.4696  0.3932
 9700TIP3    H250592   0.129   6.415  14.773 -0.6685  0.1238  0.0843
 9701TIP3   OH250593   6.775   2.663  15.567 -0.3617 -0.0904  0.4017
 9701TIP3    H150594   6.740   2.603  15.502 -0.5158  1.7011 -1.2538
 9701TIP3    H250595   6.711   2.734  15.572  0.2866  0.4513  1.5420
 9702TIP3   OH250596   5.195   5.638  13.564 -0.7735  0.5380  0.4630
 9702TIP3    H150597   5.144   5.659  13.643 -0.5732 -0.4128  0.8532
 9702TIP3    H250598   5.286   5.633  13.594 -0.7948 -0.7385  0.3685
 9703TIP3   OH250599   0.257   3.933   2.516  0.0402 -0.6179 -0.0918
 9703TIP3    H150600   0.180   3.878   2.531  0.4671 -0.9981  0.7499
 9703TIP3    H250601   0.302   3.934   2.600  0.0351  1.0485 -0.0875
 9704TIP3   OH250602   3.892   0.747   1.451 -0.6260  0.0161  0.3956
 9704TIP3    H150603   3.822   0.797   1.410 -0.3353 -0.0763 -0.2162
 9704TIP3    H250604   3.936   0.810   1.508 -0.3123  0.4341 -0.3100
 9705TIP3   OH250605   6.484   0.251  12.350  0.1407 -0.0864 -0.1401
 9705TIP3    H150606   6.471   0.346  12.340 -0.7127  0.1402  2.4440
 9705TIP3    H250607   6.477   0.217  12.261 -0.8330  2.1280 -1.0003
 9706TIP3   OH250608   4.846   3.014   5.153  0.5158  0.2765  0.3894
 9706TIP3    H150609   4.790   2.939   5.132  1.1597  0.6953 -3.5907
 9706TIP3    H250610   4.786   3.080   5.188 -0.5967 -0.9420  0.8688
 9707TIP3   OH250611   1.661   2.245   1.929 -0.8451 -0.0862 -0.0107
 9707TIP3    H150612   1.586   2.294   1.896 -0.6396  0.4886  0.3691
 9707TIP3    H250613   1.700   2.302   1.994 -0.2185 -0.4880 -0.0300
 9708TIP3   OH250614   3.092   4.628   1.506  0.1514 -0.1552 -0.0682
 9708TIP3    H150615   3.012   4.679   1.506  1.2180  1.6141  0.5021
 9708TIP3    H250616   3.090   4.578   1.424 -0.4686  1.5998 -1.1605
 9709TIP3   OH250617   0.932   6.746   1.972 -0.0756 -0.5682  0.1605
 9709TIP3    H150618   0.839   6.768   1.964 -0.3073 -1.2693  0.8892
 9709TIP3    H250619   0.970   6.819   2.021 -0.0817  0.0976 -0.8006
 9710TIP3   OH250620   2.884   1.508   5.578  0.4306  0.0101  0.1682
 9710TIP3    H150621   2.862   1.418   5.553  0.4556 -0.3526  1.3635
 9710TIP3    H250622   2.968   1.500   5.624  0.8419  0.7647 -0.4254
 9711TIP3   OH250623   0.761   2.834  15.299  0.1536 -0.6438 -0.2904
 9711TIP3    H150624   0.851   2.818  15.327  0.2473  1.2236  0.6136
 9711TIP3    H250625   0.715   2.753  15.320  1.1401 -0.8283  1.3280
 9712TIP3   OH250626   0.246   1.245  14.881  0.3169  0.0343 -0.3562
 9712TIP3    H150627   0.187   1.253  14.807 -2.4030  0.3647  1.6961
 9712TIP3    H250628   0.278   1.154  14.877 -0.5963 -0.2640 -1.3148
 9713TIP3   OH250629   2.869   3.710   0.927 -0.5398 -0.2304  0.0191
 9713TIP3    H150630   2.914   3.626   0.931  0.3245  0.1734 -0.8211
 9713TIP3    H250631   2.910   3.763   0.995  1.1248  0.5134 -1.4787
 9714TIP3   OH250632   0.149   0.217  16.952 -0.3282  0.0066  0.0311
 9714TIP3    H150633   0.124   0.251  16.866  1.3242  0.8641 -0.1571
 9714TIP3    H250634   0.070   0.223  17.005 -0.8126  1.5051 -0.8247
 9715TIP3   OH250635   1.804   0.473  10.671 -0.0328 -1.0189  0.3170
 9715TIP3    H150636   1.731   0.417  10.699 -1.8502  0.5195 -1.0511
 9715TIP3    H250637   1.773   0.514  10.590  3.6310 -2.7462 -2.2944
 9716TIP3   OH250638   1.239   2.959   0.141  0.6429  0.2988 -0.2494
 9716TIP3    H150639   1.284   2.961   0.225 -1.3305 -0.3999  0.9028
 9716TIP3    H250640   1.309   2.955   0.076  2.2436  1.3287  1.3114
 9717TIP3   OH250641   4.221   4.743   0.081  0.0490  0.3160  0.1289
 9717TIP3    H150642   4.268   4.824   0.103  1.3035 -0.1185 -0.8229
 9717TIP3    H250643   4.279   4.673   0.111  0.4302 -0.2450 -1.8035
 9718TIP3   OH250644   6.190   5.892   4.177 -0.4965 -0.0188 -1.0187
 9718TIP3    H150645   6.172   5.984   4.198 -1.5898 -0.5173  0.3396
 9718TIP3    H250646   6.119   5.866   4.119 -0.2832 -0.0739 -1.2603
 9719TIP3   OH250647   5.014   1.476   4.641  0.8237  0.1191  0.3578
 9719TIP3    H150648   5.102   1.461   4.674  0.6821 -0.4860  0.4734
 9719TIP3    H250649   5.000   1.408   4.575  0.9958  1.1445 -0.7735
 9720TIP3   OH250650   1.657   6.496   0.163  0.3858  0.1616  0.2031
 9720TIP3    H150651   1.743   6.535   0.148  0.1148  0.4753 -0.5266
 9720TIP3    H250652   1.666   6.406   0.131 -0.0368  0.6740 -1.4392
 9721TIP3   OH250653   1.687   4.236  15.308  0.3981 -0.2138 -0.1626
 9721TIP3    H150654   1.594   4.249  15.323  0.8021  1.1425  1.5684
 9721TIP3    H250655   1.730   4.286  15.378  2.4330 -0.4395 -1.1578
 9722TIP3   OH250656   0.699   1.280  13.546 -0.3369  0.0497  0.2571
 9722TIP3    H150657   0.614   1.324  13.555  0.0506  0.5793  1.5284
 9722TIP3    H250658   0.688   1.222  13.471 -1.4241  1.0293 -0.3718
 9723TIP3   OH250659   0.100   3.607   4.042  0.6767 -0.1098 -0.1905
 9723TIP3    H150660   0.017   3.578   4.005  0.3349 -0.8597  1.1128
 9723TIP3    H250661   0.156   3.529   4.040  1.3230  0.3558 -0.9341
 9724TIP3   OH250662   6.382   4.517   1.477 -0.3504  0.1955  0.1269
 9724TIP3    H150663   6.339   4.599   1.500 -1.1508 -0.1896  0.0629
 9724TIP3    H250664   6.435   4.537   1.400 -0.8544  0.5631 -0.1255
 9725TIP3   OH250665   1.204   0.146  17.114 -0.8252 -0.1493 -0.0609
 9725TIP3    H150666   1.127   0.141  17.170 -1.8772 -1.9082 -1.5524
 9725TIP3    H250667   1.207   0.061  17.069  0.7488  0.6643 -1.6209
 9726TIP3   OH250668   4.745   5.413   5.288 -0.2807 -0.2952  0.7365
 9726TIP3    H150669   4.835   5.411   5.320  0.3782  0.4282 -0.9554
 9726TIP3    H250670   4.751   5.458   5.204 -2.1893 -0.4985  0.4605
 9727TIP3   OH250671   0.581   5.151   0.024 -0.6888 -0.1440  0.3587
 9727TIP3    H150672   0.615   5.201  -0.051  0.7641  0.0464  1.0988
 9727TIP3    H250673   0.603   5.060   0.005 -2.9925 -0.5298 -0.8046
 9728TIP3   OH250674   4.479   2.036  15.549  0.3869 -0.0619  0.1430
 9728TIP3    H150675   4.487   2.017  15.455 -1.1704 -1.6983  0.2856
 9728TIP3    H250676   4.389   2.068  15.559  0.9391  1.3498  0.9341
 9729TIP3   OH250677   6.054   0.410   0.613  0.0999 -0.5443  0.4319
 9729TIP3    H150678   6.022   0.482   0.558  1.9473 -0.1958 -0.2522
 9729TIP3    H250679   6.114   0.451   0.674  1.1928 -1.4819  0.0241
 9730TIP3   OH250680   1.475   3.593  14.488  0.1163 -0.2445 -0.3037
 9730TIP3    H150681   1.444   3.677  14.521  0.0856  0.3822 -1.8440
 9730TIP3    H250682   1.550   3.572  14.542 -0.6196  0.1539  0.9090
 9731TIP3   OH250683   4.568   3.532   0.235  0.7341 -0.0563  0.1947
 9731TIP3    H150684   4.623   3.498   0.306  2.7157  1.6232 -0.4257
 9731TIP3    H250685   4.586   3.474   0.161  3.3857  1.6275 -0.5978
 9732TIP3   OH250686   3.101   0.709  11.984 -0.4365 -0.0483  0.7954
 9732TIP3    H150687   3.081   0.622  12.019  1.1413 -0.6618  0.3040
 9732TIP3    H250688   3.189   0.729  12.018 -0.0563  0.5812 -0.4765
 9733TIP3   OH250689   0.467   5.678   3.644  0.0334  0.8901 -0.2145
 9733TIP3    H150690   0.542   5.735   3.664 -0.0393  0.8254  0.2616
 9733TIP3    H250691   0.507   5.594   3.622  0.0846  0.6752  0.6621
 9734TIP3   OH250692   0.254   2.270   0.856  0.5229  0.1167 -0.8119
 9734TIP3    H150693   0.277   2.178   0.846 -2.1124 -0.4564 -2.8691
 9734TIP3    H250694   0.323   2.317   0.808  0.4208 -1.0503 -2.1751
 9735TIP3   OH250695   3.717   3.869  16.487  0.3378  0.6226 -0.3537
 9735TIP3    H150696   3.739   3.963  16.484 -1.6367  1.1357 -0.2733
 9735TIP3    H250697   3.664   3.855  16.409 -1.1649  0.0830  0.7223
 9736TIP3   OH250698   4.642   6.260  13.586 -0.3572  0.2935 -0.4096
 9736TIP3    H150699   4.679   6.264  13.498 -1.3310  0.5731 -0.8177
 9736TIP3    H250700   4.668   6.174  13.619  2.5706  1.3047  0.2133
 9737TIP3   OH250701   4.609   4.315  12.852  0.3273 -0.2404 -0.4032
 9737TIP3    H150702   4.663   4.384  12.891 -0.3440 -0.5206  1.0971
 9737TIP3    H250703   4.520   4.339  12.874  0.1277 -2.0206  0.9214
 9738TIP3   OH250704   3.651   4.681  14.790  0.0903 -0.3720  0.1870
 9738TIP3    H150705   3.652   4.771  14.822  1.5558  0.1460 -1.1787
 9738TIP3    H250706   3.682   4.629  14.865  2.2989  0.6701  0.0916
 9739TIP3   OH250707   4.017   6.189  11.287 -0.4394  0.2258  0.6646
 9739TIP3    H150708   3.967   6.199  11.206  1.2805  1.2655 -0.3388
 9739TIP3    H250709   4.066   6.107  11.275  0.3426  0.7276  0.3098
 9740TIP3   OH250710   0.998   1.913   5.275 -0.6277  0.1254 -0.2554
 9740TIP3    H150711   0.966   1.822   5.279 -0.0893 -0.0345  2.8952
 9740TIP3    H250712   1.074   1.908   5.217 -0.4964 -1.4842 -0.0144
 9741TIP3   OH250713   2.892   5.415   1.715  0.5794 -0.4950 -0.3972
 9741TIP3    H150714   2.863   5.332   1.677  0.4764  0.2353 -2.0051
 9741TIP3    H250715   2.952   5.451   1.650 -0.5638  1.4022 -0.4802
 9742TIP3   OH250716   0.384   1.484   1.221  0.0218 -0.7793 -0.2870
 9742TIP3    H150717   0.461   1.476   1.165 -0.3241 -0.3385 -0.8327
 9742TIP3    H250718   0.419   1.512   1.306  0.5229 -1.2093 -0.3491
 9743TIP3   OH250719   1.602   0.535  15.080  0.7362  0.7196 -0.0906
 9743TIP3    H150720   1.611   0.546  15.174 -0.3258  1.4971 -0.0695
 9743TIP3    H250721   1.687   0.561  15.045  1.7189 -1.1691  0.7443
 9744TIP3   OH250722   4.663   4.185   1.426 -0.2010 -1.0813  0.1484
 9744TIP3    H150723   4.683   4.162   1.517 -0.5041 -1.6001  0.0848
 9744TIP3    H250724   4.718   4.261   1.409  1.3074 -2.1276  0.1552
 9745TIP3   OH250725   5.281   0.565  10.260  0.6307 -0.3971 -0.6147
 9745TIP3    H150726   5.233   0.533  10.337 -1.1650  0.9872 -1.0822
 9745TIP3    H250727   5.316   0.486  10.219 -0.2496 -1.3577  0.4290
 9746TIP3   OH250728   1.968   4.150   4.612  0.0049  0.4472  0.8268
 9746TIP3    H150729   1.885   4.111   4.640  0.5654 -1.3331  0.1279
 9746TIP3    H250730   1.966   4.238   4.649 -2.8432  1.0122 -0.3595
 9747TIP3   OH250731   6.214   6.615  15.780 -0.8421  0.1413 -0.1861
 9747TIP3    H150732   6.210   6.564  15.861  1.0883 -0.0166 -0.1540
 9747TIP3    H250733   6.193   6.704  15.807 -1.1802 -0.0822  0.3046
 9748TIP3   OH250734   4.106   0.741  13.618 -0.2300  0.2694 -0.1024
 9748TIP3    H150735   4.106   0.836  13.603 -1.2745  0.3418  0.2544
 9748TIP3    H250736   4.154   0.730  13.700 -0.2644  0.5112 -0.0480
 9749TIP3   OH250737   2.191   1.808   5.615 -0.0474 -0.4972  0.2971
 9749TIP3    H150738   2.233   1.855   5.687  1.1758 -0.4282 -0.4408
 9749TIP3    H250739   2.105   1.785   5.650  0.1792  0.2976  1.4715
 9750TIP3   OH250740   2.224   6.506  14.371 -0.9634  0.0330  0.0632
 9750TIP3    H150741   2.293   6.516  14.306 -1.3830 -0.6451 -0.5093
 9750TIP3    H250742   2.225   6.413  14.392 -1.2501  0.1396  0.5614
 9751TIP3   OH250743   6.189   3.654  15.412  0.0982 -0.3587 -0.1308
 9751TIP3    H150744   6.107   3.646  15.363 -0.5687 -1.0460  1.0640
 9751TIP3    H250745   6.191   3.746  15.440 -1.0613 -0.7096  1.1709
 9752TIP3   OH250746   0.869   5.869   3.520 -0.2116 -0.1397 -0.2778
 9752TIP3    H150747   0.898   5.957   3.496 -0.6152  0.4873  1.3794
 9752TIP3    H250748   0.922   5.846   3.596 -1.6777 -0.3456  0.7328
 9753TIP3   OH250749   1.341   3.191   5.878  0.4366 -0.6261 -0.1472
 9753TIP3    H150750   1.430   3.184   5.842  0.0012  0.1443 -1.4424
 9753TIP3    H250751   1.314   3.280   5.856 -1.1244 -1.2513 -0.9026
 9754TIP3   OH250752   3.374   5.198  12.147  0.1315 -0.0012  0.4168
 9754TIP3    H150753   3.397   5.208  12.054 -1.1871 -0.7307 -0.0083
 9754TIP3    H250754   3.459   5.199  12.192  0.8425 -0.3045 -0.8529
 9755TIP3   OH250755   3.837   4.580   3.537 -0.0971  0.1557  0.0827
 9755TIP3    H150756   3.879   4.615   3.459  0.0379 -0.4189 -0.1122
 9755TIP3    H250757   3.745   4.606   3.530  0.0213  0.5388 -0.0097
 9756TIP3   OH250758   2.668   1.161   0.368  0.0735 -0.6417 -0.1746
 9756TIP3    H150759   2.751   1.133   0.408  0.7638 -0.1545 -1.2241
 9756TIP3    H250760   2.607   1.090   0.387 -0.4458  0.6048  4.0304
 9757TIP3   OH250761   3.471   4.966  12.538  0.3440  0.0794 -0.6933
 9757TIP3    H150762   3.377   4.959  12.525 -0.1705  1.5417  1.6686
 9757TIP3    H250763   3.492   4.900  12.604  0.8006  0.3783 -0.5301
 9758TIP3   OH250764   6.379   1.056   3.530 -0.1210  0.0158 -0.6491
 9758TIP3    H150765   6.380   1.110   3.609  0.6305 -0.2682 -0.4635
 9758TIP3    H250766   6.363   0.967   3.561 -0.6457  0.0223 -0.8917
 9759TIP3   OH250767   4.405   0.069   4.696  0.0555 -0.2239 -0.0510
 9759TIP3    H150768   4.471   0.138   4.695 -0.2176  0.0890  1.3881
 9759TIP3    H250769   4.433   0.008   4.764 -1.2565  0.0673  0.7990
 9760TIP3   OH250770   4.547   5.408  11.441  0.1517  0.6127 -0.0911
 9760TIP3    H150771   4.514   5.463  11.512  0.9725  0.7392  0.2083
 9760TIP3    H250772   4.627   5.370  11.477  0.1444  0.0408 -0.6684
 9761TIP3   OH250773   1.145   3.859  13.956 -0.1356 -0.6041 -0.7344
 9761TIP3    H150774   1.079   3.924  13.980 -0.5322 -0.7494 -1.4042
 9761TIP3    H250775   1.185   3.835  14.039  0.7901  1.2861 -0.5903
 9762TIP3   OH250776   4.703   5.677  14.748 -0.7314 -0.6624  0.2915
 9762TIP3    H150777   4.656   5.667  14.830 -0.0275 -0.3699  0.7407
 9762TIP3    H250778   4.770   5.744  14.766 -1.0997  0.0235 -0.7532
 9763TIP3   OH250779   4.669   3.417   5.567  0.2765 -0.5250  0.1033
 9763TIP3    H150780   4.616   3.340   5.590 -0.6319 -0.0895 -0.4739
 9763TIP3    H250781   4.628   3.489   5.614  1.1442 -0.3752  0.6654
 9764TIP3   OH250782   0.039   6.215  12.860 -0.0308 -0.6249  0.2552
 9764TIP3    H150783   0.024   6.256  12.774 -0.3143 -0.3778  0.4196
 9764TIP3    H250784  -0.042   6.168  12.878  0.2798 -1.2223  0.0897
 9765TIP3   OH250785   1.848   3.004   4.613 -0.2289  0.1339 -0.0329
 9765TIP3    H150786   1.778   2.946   4.643  1.0898 -0.7760  1.4608
 9765TIP3    H250787   1.818   3.036   4.528 -1.7858 -1.3705 -0.1111
 9766TIP3   OH250788   4.708   3.547   3.276  0.6123 -0.1167 -0.0531
 9766TIP3    H150789   4.645   3.585   3.216  0.0514 -1.3404 -0.2790
 9766TIP3    H250790   4.785   3.527   3.221  0.0126 -1.4508 -0.4546
 9767TIP3   OH250791   6.211   3.480   2.676 -0.2149 -0.0315 -0.5944
 9767TIP3    H150792   6.222   3.567   2.638 -1.1478 -0.4496 -1.8893
 9767TIP3    H250793   6.118   3.475   2.697 -0.5800 -1.3588 -2.2872
 9768TIP3   OH250794   6.659   3.048   2.352  0.3575  0.4850 -0.3101
 9768TIP3    H150795   6.719   3.098   2.406  0.3731  0.3786 -0.2295
 9768TIP3    H250796   6.573   3.065   2.390 -0.2078  3.5477 -2.5036
 9769TIP3   OH250797   1.082   1.762  10.579 -0.2444  0.5251  0.0466
 9769TIP3    H150798   1.155   1.700  10.577 -1.3737 -0.8850 -2.0559
 9769TIP3    H250799   1.117   1.840  10.621  1.6821 -1.0025  1.4672
 9770TIP3   OH250800   3.582   3.465  14.782  0.4199  0.4608  0.2142
 9770TIP3    H150801   3.554   3.503  14.698 -0.3659  0.2357  0.3655
 9770TIP3    H250802   3.625   3.538  14.827  0.1202  0.8137 -0.0540
 9771TIP3   OH250803   3.242   1.420   4.068  0.0537 -0.2912 -0.5163
 9771TIP3    H150804   3.185   1.495   4.080 -0.0354 -0.5266  0.5994
 9771TIP3    H250805   3.330   1.457   4.064  0.0695 -0.1739  0.6915
 9772TIP3   OH250806   3.777   4.815   6.174 -0.0588 -0.9705  0.2553
 9772TIP3    H150807   3.850   4.753   6.184  0.5988 -0.2280  0.2412
 9772TIP3    H250808   3.759   4.816   6.081 -0.5957 -1.7223  0.3518
 9773TIP3   OH250809   1.067   6.627   4.585  0.0106 -0.3967 -0.0567
 9773TIP3    H150810   1.105   6.539   4.573  0.9195  0.0242 -0.3790
 9773TIP3    H250811   1.107   6.658   4.667  0.0433 -0.1074 -0.1834
 9774TIP3   OH250812   1.281   3.236  11.649  0.3629 -0.4158 -0.0115
 9774TIP3    H150813   1.367   3.247  11.610 -0.2488  2.0928 -0.8997
 9774TIP3    H250814   1.230   3.189  11.583  0.6333 -0.4377 -0.2068
 9775TIP3   OH250815   5.026   0.276   3.266  0.1045 -0.0517  0.6267
 9775TIP3    H150816   4.974   0.280   3.186  0.8410  0.2841  0.1525
 9775TIP3    H250817   5.006   0.190   3.304 -1.6802  0.5185  1.0781
 9776TIP3   OH250818   6.105   0.235  16.666 -0.2682 -0.6054 -0.6189
 9776TIP3    H150819   6.011   0.224  16.655 -0.2105 -0.0837 -1.7240
 9776TIP3    H250820   6.122   0.327  16.643  0.4951 -0.6698 -0.3514
 9777TIP3   OH250821   0.541   5.511  15.732  0.2175  0.5729  0.2442
 9777TIP3    H150822   0.468   5.523  15.671 -0.7481 -0.0089  1.2331
 9777TIP3    H250823   0.619   5.517  15.678 -0.5523  1.3607 -0.8306
 9778TIP3   OH250824   1.757   3.662  13.663 -0.6910  0.2345 -0.0233
 9778TIP3    H150825   1.774   3.621  13.748 -0.4757  0.0787 -0.1431
 9778TIP3    H250826   1.830   3.636  13.608  0.3117  2.0825  0.3558
 9779TIP3   OH250827   2.557   4.843  13.882 -0.1632  0.1326  0.6314
 9779TIP3    H150828   2.627   4.803  13.934  0.7054  0.3863 -0.2942
 9779TIP3    H250829   2.571   4.937  13.892  0.2826  0.1879 -0.3707
 9780TIP3   OH250830   5.309   5.297   5.859 -0.0657 -0.5946 -0.4772
 9780TIP3    H150831   5.301   5.388   5.887 -1.0391 -0.5911 -0.7119
 9780TIP3    H250832   5.245   5.250   5.912  2.0842 -1.5939  1.3692
 9781TIP3   OH250833   2.015   0.916  10.854 -0.0428 -0.0710 -0.0248
 9781TIP3    H150834   2.049   0.867  10.780  0.0972  0.7691 -0.5290
 9781TIP3    H250835   2.070   0.995  10.859 -0.5080  0.2316  0.5164
 9782TIP3   OH250836   5.313   1.118  13.985 -0.4419 -0.4116 -0.2440
 9782TIP3    H150837   5.361   1.188  13.941 -0.5142  0.6029  1.2170
 9782TIP3    H250838   5.221   1.142  13.974 -0.4551 -0.0291  0.6060
 9783TIP3   OH250839   5.769   5.173  15.989 -0.7794  0.3765  0.6298
 9783TIP3    H150840   5.795   5.106  16.053 -3.2075  0.4273  1.8176
 9783TIP3    H250841   5.675   5.186  16.006 -1.3763  0.8942 -2.5601
 9784TIP3   OH250842   1.324   5.825   3.246 -0.6417  0.4359 -0.0946
 9784TIP3    H150843   1.340   5.844   3.154  0.0641 -1.9531 -0.5465
 9784TIP3    H250844   1.299   5.909   3.285  2.1451  2.1937 -1.7616
 9785TIP3   OH250845   5.792   6.763  11.144  0.4990 -0.0017  0.1787
 9785TIP3    H150846   5.712   6.755  11.196  1.2661  0.5456  1.4837
 9785TIP3    H250847   5.778   6.704  11.070 -1.0024 -0.1101  0.5144
 9786TIP3   OH250848   6.293   3.612   2.130  0.3621  0.0758 -0.4896
 9786TIP3    H150849   6.363   3.657   2.084 -1.8724  3.9165 -0.5565
 9786TIP3    H250850   6.336   3.568   2.203  3.0918 -0.0572 -2.0671
 9787TIP3   OH250851   0.881   1.107  14.450 -0.5094 -0.1392  0.1543
 9787TIP3    H150852   0.975   1.126  14.457 -0.4738 -0.2329 -0.0890
 9787TIP3    H250853   0.840   1.193  14.440 -0.4380 -0.1088  0.1221
 9788TIP3   OH250854   6.634   2.490  17.009 -0.0130  0.0378 -0.0622
 9788TIP3    H150855   6.725   2.505  17.030  0.4250 -2.3191  0.0817
 9788TIP3    H250856   6.585   2.545  17.070  1.3130 -0.5396  1.6198
 9789TIP3   OH250857   2.677   0.966  12.559 -0.2707 -0.1924 -0.0259
 9789TIP3    H150858   2.629   0.913  12.496 -0.4863  0.6131 -0.5493
 9789TIP3    H250859   2.627   1.047  12.567  0.1706  0.0330  0.5919
 9790TIP3   OH250860   5.517   4.932  14.584  0.7315 -0.0300 -0.2708
 9790TIP3    H150861   5.593   4.876  14.565  1.3258  0.4789  0.5538
 9790TIP3    H250862   5.443   4.871  14.586  1.6099 -1.1610  2.4665
 9791TIP3   OH250863   2.469   3.751   2.386  0.4361  0.1602 -0.4649
 9791TIP3    H150864   2.498   3.686   2.321  1.0030 -1.1552  1.0442
 9791TIP3    H250865   2.433   3.822   2.333 -1.2372 -1.8156 -2.2011
 9792TIP3   OH250866   1.240   4.140  17.133  0.5073 -0.2217 -0.6900
 9792TIP3    H150867   1.304   4.127  17.063 -0.1137  1.0011 -1.5423
 9792TIP3    H250868   1.178   4.068  17.123  1.3709 -1.0449 -0.2676
 9793TIP3   OH250869   0.609   2.805  14.973  0.9886 -0.4025  0.0553
 9793TIP3    H150870   0.533   2.863  14.966  1.4919  0.4991  1.5396
 9793TIP3    H250871   0.573   2.721  15.002  0.3234 -0.6912 -1.5074
 9794TIP3   OH250872   4.979   1.660   4.273  0.0620  0.1858  0.5253
 9794TIP3    H150873   4.957   1.567   4.281 -1.6779  0.5287  0.1551
 9794TIP3    H250874   5.069   1.666   4.305  0.8881 -1.9102 -1.1804
 9795TIP3   OH250875   0.276   1.362   2.812 -0.3025  0.7113 -0.3226
 9795TIP3    H150876   0.196   1.332   2.855 -0.8806  1.3797 -0.9065
 9795TIP3    H250877   0.275   1.320   2.726 -0.0926  0.8190 -0.3797
 9796TIP3   OH250878   1.888   1.709  13.277  0.6570  0.1070 -0.7711
 9796TIP3    H150879   1.874   1.801  13.255 -1.0200 -0.4109 -2.0727
 9796TIP3    H250880   1.806   1.681  13.316  1.7200 -0.4499  1.1650
 9797TIP3   OH250881   1.585   5.204   5.624 -0.3626  0.4917 -0.0958
 9797TIP3    H150882   1.607   5.260   5.550  0.9819  0.4761  0.2685
 9797TIP3    H250883   1.669   5.175   5.659 -0.9951 -0.4038  0.7577
 9798TIP3   OH250884   1.211   0.379   3.639  0.2210 -0.0908 -0.1216
 9798TIP3    H150885   1.212   0.469   3.606 -0.5733 -0.5457 -1.5076
 9798TIP3    H250886   1.120   0.351   3.628  0.8046 -1.6608 -1.5372
 9799TIP3   OH250887   0.705   5.557   3.511 -0.1847 -0.3250 -0.1157
 9799TIP3    H150888   0.758   5.529   3.585  0.1980 -1.6330 -0.8602
 9799TIP3    H250889   0.767   5.592   3.448 -0.4602  0.3228 -0.0392
 9800TIP3   OH250890   1.005   6.606  13.074  0.2825  0.6007 -0.0562
 9800TIP3    H150891   0.988   6.520  13.112 -0.6949  1.3175  1.2111
 9800TIP3    H250892   1.038   6.658  13.148 -0.9662  1.8391 -0.3406
 9801TIP3   OH250893   0.109   5.036   5.415  0.3013 -0.6428 -0.1452
 9801TIP3    H150894   0.044   4.982   5.459 -0.1144  0.0588  0.1144
 9801TIP3    H250895   0.190   5.020   5.464 -0.4454  1.2350  1.8844
 9802TIP3   OH250896   6.476   3.484  11.778 -0.5925  0.3424  0.5057
 9802TIP3    H150897   6.427   3.426  11.719  1.6803  0.1286 -1.3434
 9802TIP3    H250898   6.423   3.564  11.783 -2.0509 -0.5597  0.2159
 9803TIP3   OH250899   6.655   2.433   4.150  0.5417 -0.1618  0.1036
 9803TIP3    H150900   6.594   2.502   4.177  2.5827  1.9281 -0.2910
 9803TIP3    H250901   6.715   2.424   4.225  1.6638  0.1953 -0.7221
 9804TIP3   OH250902   4.451   6.406   4.671  0.1232  0.3334  0.3975
 9804TIP3    H150903   4.389   6.438   4.736 -2.5709  1.9762 -2.7126
 9804TIP3    H250904   4.496   6.485   4.639 -1.7251  0.3110 -2.6150
 9805TIP3   OH250905   5.945   5.913  16.428  0.3753  0.2614 -0.3621
 9805TIP3    H150906   5.993   5.854  16.486  0.9971  2.6086  1.6798
 9805TIP3    H250907   5.901   5.855  16.366  1.1613 -2.2943  1.3124
 9806TIP3   OH250908   3.007   6.123  12.556  0.4707 -0.2099 -0.4942
 9806TIP3    H150909   3.059   6.051  12.521  1.0313 -0.8194  1.4965
 9806TIP3    H250910   2.968   6.164  12.478 -0.6877 -3.2321 -1.6303
 9807TIP3   OH250911   4.231   6.520   2.138  0.2129  0.0723 -0.3212
 9807TIP3    H150912   4.293   6.472   2.192 -1.4164  0.2445  1.8392
 9807TIP3    H250913   4.185   6.452   2.088 -0.8667 -0.5459  1.4088
 9808TIP3   OH250914   6.811   4.741   5.153 -0.1261 -0.2840 -0.0340
 9808TIP3    H150915   6.812   4.837   5.152  0.3103 -0.2909 -0.3679
 9808TIP3    H250916   6.728   4.719   5.194  0.3351  0.2371  1.2226
 9809TIP3   OH250917   0.803   6.454  17.147  0.6208 -0.4634  0.1274
 9809TIP3    H150918   0.734   6.442  17.212  0.3259  0.5774  0.0242
 9809TIP3    H250919   0.822   6.548  17.150  0.7457 -0.4372 -1.1532
 9810TIP3   OH250920   3.005   1.396   2.697  0.4916 -0.1562 -0.3619
 9810TIP3    H150921   2.998   1.410   2.792 -0.5849 -1.0821 -0.2915
 9810TIP3    H250922   3.094   1.365   2.684  0.0812 -1.8984  0.6226
 9811TIP3   OH250923   1.741   2.052  14.938 -0.1108  0.0584 -0.7639
 9811TIP3    H150924   1.648   2.040  14.959 -0.5979  2.0733 -1.4561
 9811TIP3    H250925   1.742   2.069  14.844  0.8155  1.1225 -0.5874
 9812TIP3   OH250926   2.498   5.445   3.584 -0.0598  0.2155  0.8349
 9812TIP3    H150927   2.496   5.381   3.513 -0.7190 -0.8244  1.7639
 9812TIP3    H250928   2.467   5.526   3.544  2.2544  0.4238 -0.7552
 9813TIP3   OH250929   0.364   0.438  16.128 -0.1071  0.6115  0.6301
 9813TIP3    H150930   0.365   0.389  16.045  1.5714  0.9578  0.4077
 9813TIP3    H250931   0.373   0.370  16.195 -2.4528  0.2310  0.6502
 9814TIP3   OH250932   0.089   5.960  11.653 -0.4547  1.4996 -0.8126
 9814TIP3    H150933   0.053   5.896  11.713 -2.2559  1.3510 -1.9879
 9814TIP3    H250934   0.145   5.909  11.594  2.0953  1.7687  1.1658
 9815TIP3   OH250935   3.015   5.907   5.485  0.2416 -1.0502  0.6012
 9815TIP3    H150936   3.003   5.994   5.445 -0.9156 -1.8218 -0.8359
 9815TIP3    H250937   3.107   5.905   5.511  0.5002  0.3027 -0.1177
 9816TIP3   OH250938   2.459   5.603   3.177 -0.1250 -0.2191  0.2812
 9816TIP3    H150939   2.450   5.525   3.122 -1.6366  0.1423 -0.0338
 9816TIP3    H250940   2.553   5.617   3.183  0.2763 -2.7631  1.3442
 9817TIP3   OH250941   4.546   4.044   5.014 -1.1270 -0.0540  0.8615
 9817TIP3    H150942   4.532   3.960   4.969 -1.8861 -0.0609  1.0964
 9817TIP3    H250943   4.605   4.092   4.956 -0.8047 -0.6902  0.6503
 9818TIP3   OH250944   5.464   1.109   0.557 -0.1859 -0.0100  0.2077
 9818TIP3    H150945   5.549   1.137   0.524  0.6335  0.1303  2.2799
 9818TIP3    H250946   5.482   1.073   0.644 -2.2283 -0.0177  0.6912
 9819TIP3   OH250947   0.828   2.974   0.204 -0.0834 -0.2704  0.2788
 9819TIP3    H150948   0.755   3.031   0.181  0.3030 -0.1234 -0.6345
 9819TIP3    H250949   0.791   2.886   0.204 -0.5366 -0.0826  1.0569
 9820TIP3   OH250950   5.956   2.540   5.990  0.3120  0.2015  0.3097
 9820TIP3    H150951   5.904   2.530   6.070  1.3260 -0.3094  0.9330
 9820TIP3    H250952   5.948   2.455   5.946  2.6799 -0.8507  1.7265
 9821TIP3   OH250953   6.603   1.662  14.324  0.0783  0.1159 -0.0745
 9821TIP3    H150954   6.555   1.695  14.249 -0.3431  1.4230  0.7364
 9821TIP3    H250955   6.691   1.699  14.316  0.7933 -1.6796 -1.1625
 9822TIP3   OH250956   2.964   5.633   5.618  0.8382  0.1772 -0.0231
 9822TIP3    H150957   2.989   5.554   5.666  0.1090 -0.9233 -1.3806
 9822TIP3    H250958   3.032   5.697   5.640  2.3016 -1.3038 -0.0777
 9823TIP3   OH250959   6.636   6.087  11.599 -0.3173 -0.0501 -0.1977
 9823TIP3    H150960   6.724   6.118  11.580 -0.3743 -0.4728 -1.2447
 9823TIP3    H250961   6.638   5.993  11.577 -1.1303  0.0260 -0.6420
 9824TIP3   OH250962   3.614   0.099   1.631 -0.4608  0.0946 -0.0471
 9824TIP3    H150963   3.654   0.039   1.568 -0.0303 -0.1416  0.4415
 9824TIP3    H250964   3.614   0.183   1.587 -0.3739 -0.1129 -0.4512
 9825TIP3   OH250965   3.821   3.357  11.046  0.1653  0.0815 -0.4725
 9825TIP3    H150966   3.822   3.408  10.965 -0.2763 -1.5983 -1.5849
 9825TIP3    H250967   3.911   3.326  11.057  0.6585  1.8097  0.7209
 9826TIP3   OH250968   6.589   5.274   1.936  0.5292  0.1848 -0.7651
 9826TIP3    H150969   6.528   5.229   1.994 -0.5252  1.1016 -1.1388
 9826TIP3    H250970   6.596   5.363   1.971  0.2994  0.5896 -1.7166
 9827TIP3   OH250971   4.839   1.330   3.033  0.1174  0.1007 -0.1870
 9827TIP3    H150972   4.870   1.245   3.003  0.8598  0.5435 -0.7279
 9827TIP3    H250973   4.912   1.365   3.085  0.4173  1.0084 -1.1770
 9828TIP3   OH250974   2.417   4.598  13.418 -0.0026  0.2536  0.1267
 9828TIP3    H150975   2.335   4.629  13.456  0.3564  1.5655 -0.1075
 9828TIP3    H250976   2.485   4.644  13.467  0.5869 -0.6232  0.1457
 9829TIP3   OH250977   1.224   4.031   3.790 -0.1813 -0.0688 -0.2635
 9829TIP3    H150978   1.264   3.947   3.814 -2.3793 -1.3365 -0.7875
 9829TIP3    H250979   1.225   4.032   3.695  0.4840  0.8763 -0.2640
 9830TIP3   OH250980   5.215   1.326   3.044 -0.2589  0.1589  0.5903
 9830TIP3    H150981   5.154   1.362   2.979  0.1889  2.0386  1.1480
 9830TIP3    H250982   5.171   1.247   3.076 -1.3601  0.2373 -0.6216
 9831TIP3   OH250983   2.576   2.209   0.732 -0.1533 -0.0448  0.3641
 9831TIP3    H150984   2.568   2.115   0.716  0.8317  0.2187 -2.1495
 9831TIP3    H250985   2.665   2.231   0.703 -0.5415  1.7411  0.3899
 9832TIP3   OH250986   2.738   2.439   2.886  0.0850  0.4190  0.3075
 9832TIP3    H150987   2.796   2.365   2.866 -1.2300 -0.5534 -0.0465
 9832TIP3    H250988   2.729   2.438   2.981 -1.3556 -1.0448  0.1963
 9833TIP3   OH250989   3.957   2.566  11.996 -0.0954  0.7897 -0.2465
 9833TIP3    H150990   3.997   2.478  11.994  0.1041  0.8858 -0.5324
 9833TIP3    H250991   3.863   2.549  11.998 -0.0473  0.5571  0.4990
 9834TIP3   OH250992   5.251   1.317   2.519  0.6521  0.2967  0.6306
 9834TIP3    H150993   5.296   1.260   2.580  0.5149 -2.8418 -1.9495
 9834TIP3    H250994   5.173   1.269   2.493 -0.7709  2.7283  0.0096
 9835TIP3   OH250995   1.131   4.335  16.974 -0.1571  0.1687 -0.3559
 9835TIP3    H150996   1.143   4.297  17.061  0.0018 -0.1558 -0.5171
 9835TIP3    H250997   1.214   4.378  16.954 -0.2420  0.3608 -0.2867
 9836TIP3   OH250998   1.195   1.236  11.764 -0.1402  0.1245 -0.1912
 9836TIP3    H150999   1.217   1.274  11.679  1.0141  0.3751  0.2010
 9836TIP3    H251000   1.221   1.303  11.828  0.0807 -0.5146  0.4066
 9837TIP3   OH251001   2.569   2.484  12.410  0.1082  0.1735  0.0845
 9837TIP3    H151002   2.519   2.508  12.488 -0.2019  0.3638 -0.1720
 9837TIP3    H251003   2.503   2.454  12.348  0.3326  0.2514 -0.1916
 9838TIP3   OH251004   0.825   5.645   5.225 -0.2249  0.2967 -0.1254
 9838TIP3    H151005   0.880   5.708   5.272  0.7414 -0.9732  0.5291
 9838TIP3    H251006   0.776   5.601   5.295 -0.5698  0.0299 -0.5350
 9839TIP3   OH251007   6.671   1.094   0.119 -0.5459 -1.0216 -0.4446
 9839TIP3    H151008   6.625   1.105   0.036  0.3941 -1.6134 -1.0638
 9839TIP3    H251009   6.687   1.183   0.150 -2.1354 -0.7998 -0.1833
 9840TIP3   OH251010   0.522   1.909  16.539  0.3478  0.0806  0.0050
 9840TIP3    H151011   0.459   1.922  16.610  1.1006 -0.9312  0.8987
 9840TIP3    H251012   0.605   1.937  16.577  0.6093  0.4266 -0.8179
 9841TIP3   OH251013   5.989   5.335  11.386  0.2997  0.2818  0.0279
 9841TIP3    H151014   6.081   5.355  11.372  0.4011 -0.2769 -0.1483
 9841TIP3    H251015   5.988   5.280  11.464  0.4525 -2.1179 -1.5401
 9842TIP3   OH251016   3.846   5.407  16.458 -0.4878  0.3374  0.3867
 9842TIP3    H151017   3.837   5.441  16.369 -0.2443 -0.6565 -0.0386
 9842TIP3    H251018   3.915   5.460  16.498  1.3549 -0.9449 -0.9400
 9843TIP3   OH251019   1.735   4.246   1.185 -0.2693 -0.0438  0.3076
 9843TIP3    H151020   1.654   4.274   1.229 -0.4138 -1.8149  1.2419
 9843TIP3    H251021   1.784   4.199   1.253 -0.3742 -2.6380 -1.2850
 9844TIP3   OH251022   1.060   3.315  14.342  0.0688 -0.0315 -0.0282
 9844TIP3    H151023   1.004   3.362  14.281 -0.3527 -2.8180 -1.9656
 9844TIP3    H251024   1.148   3.322  14.304 -0.0153 -0.8268 -0.4006
 9845TIP3   OH251025   5.688   5.643  16.911 -0.6358 -0.0922 -0.2189
 9845TIP3    H151026   5.596   5.627  16.890 -0.6697 -1.2595  0.6522
 9845TIP3    H251027   5.692   5.736  16.934 -1.6435 -0.0661 -0.0825
 9846TIP3   OH251028   6.069   4.988  11.223  0.4606 -0.1339 -0.4547
 9846TIP3    H151029   6.125   4.972  11.147 -0.2723 -0.1895 -0.9971
 9846TIP3    H251030   6.031   4.902  11.243  0.1388  0.0099 -0.4424
 9847TIP3   OH251031   5.163   2.725  16.712  0.1755  0.1205 -0.5156
 9847TIP3    H151032   5.086   2.703  16.659  0.1561 -0.0259 -0.4301
 9847TIP3    H251033   5.238   2.700  16.658  0.1922  1.1970 -1.0065
 9848TIP3   OH251034   4.639   6.807   2.383  0.4029  0.4330  0.1057
 9848TIP3    H151035   4.566   6.773   2.332 -0.0603  0.9402  0.4109
 9848TIP3    H251036   4.645   6.899   2.359  1.1910  0.3171 -0.1928
 9849TIP3   OH251037   0.767   4.080  15.734  0.2692 -0.1089 -0.3303
 9849TIP3    H151038   0.773   4.092  15.829  1.0747  0.4902 -0.4408
 9849TIP3    H251039   0.724   3.995  15.723  0.9177 -0.5786  0.5782
 9850TIP3   OH251040   5.389   0.409  14.233  0.4807  0.8716  0.1621
 9850TIP3    H151041   5.391   0.477  14.165 -1.7036  0.3823 -0.4816
 9850TIP3    H251042   5.468   0.425  14.285  1.2575  2.4254 -1.3640
 9851TIP3   OH251043   1.959   2.987   6.134 -0.5406 -0.0109 -0.0461
 9851TIP3    H151044   2.027   2.967   6.198 -0.7031  0.9353  0.4283
 9851TIP3    H251045   1.992   3.062   6.085 -0.4842 -0.6252 -0.9920
 9852TIP3   OH251046   1.767   2.370   5.344 -0.7035 -0.6240 -0.2902
 9852TIP3    H151047   1.814   2.339   5.266  1.3516  0.7941  0.3039
 9852TIP3    H251048   1.708   2.438   5.311 -0.5689 -0.7200 -0.7370
 9853TIP3   OH251049   5.049   3.148   5.360 -0.4246 -0.4468 -0.1072
 9853TIP3    H151050   4.995   3.081   5.317 -0.6126  0.1674 -0.8540
 9853TIP3    H251051   5.035   3.134   5.454 -0.6839 -1.2639 -0.2558
 9854TIP3   OH251052   6.818   0.099   0.614 -0.1752  0.2468 -0.4345
 9854TIP3    H151053   6.909   0.112   0.585 -0.2016  3.7170  0.6440
 9854TIP3    H251054   6.826   0.063   0.702  0.1103  0.0367 -0.5413
 9855TIP3   OH251055   2.201   6.116   2.785 -0.1774  0.1579  0.9053
 9855TIP3    H151056   2.141   6.122   2.711 -0.2445  1.6234  1.0648
 9855TIP3    H251057   2.152   6.148   2.860  0.3095 -0.1055  1.3474
 9856TIP3   OH251058   3.914   6.535   3.559  0.2884  0.0786  0.2828
 9856TIP3    H151059   3.979   6.464   3.557  1.1640  0.8827 -0.4999
 9856TIP3    H251060   3.926   6.576   3.645 -1.0746 -1.4438  1.2783
 9857TIP3   OH251061   6.235   6.052   0.359 -0.0733  0.1578  0.2172
 9857TIP3    H151062   6.272   6.010   0.282 -1.8021 -1.5762  0.2665
 9857TIP3    H251063   6.168   5.992   0.390 -2.9213  3.0113  0.1590
 9858TIP3   OH251064   4.838   1.834  16.976 -0.2804  0.6336 -0.4424
 9858TIP3    H151065   4.778   1.772  16.934  0.8150  0.6834 -2.1810
 9858TIP3    H251066   4.815   1.831  17.069 -0.8426 -1.7200 -0.6007
 9859TIP3   OH251067   0.904   2.722   4.784 -0.2354 -0.2340  0.2984
 9859TIP3    H151068   0.905   2.629   4.763 -0.7982 -1.1146  3.5953
 9859TIP3    H251069   0.816   2.737   4.820 -0.0334  1.5156  0.1436
 9860TIP3   OH251070   2.419   3.621   4.884  0.1905 -0.0953  0.0903
 9860TIP3    H151071   2.335   3.632   4.840 -0.3463 -2.2047  0.4724
 9860TIP3    H251072   2.484   3.626   4.813 -0.2600  1.1515 -0.2556
 9861TIP3   OH251073   1.060   2.307  17.052 -0.3764  0.1768 -0.0355
 9861TIP3    H151074   1.109   2.389  17.065 -0.4687  0.6701 -2.3424
 9861TIP3    H251075   1.125   2.245  17.019 -0.7460 -0.0149 -0.4080
 9862TIP3   OH251076   5.929   5.045  10.976  0.7027 -0.1206  0.5082
 9862TIP3    H151077   6.024   5.034  10.970  0.5157 -1.6621 -0.1450
 9862TIP3    H251078   5.917   5.119  11.036  2.3053  0.1677  0.5221
 9863TIP3   OH251079   6.580   5.404   4.045  0.0152 -0.5182 -0.1756
 9863TIP3    H151080   6.601   5.479   4.100 -2.5102  0.0629  0.0899
 9863TIP3    H251081   6.507   5.361   4.089  0.0588 -1.9167 -1.4038
 9864TIP3   OH251082   3.952   5.391  11.939  0.1622 -0.3794  0.1214
 9864TIP3    H151083   4.015   5.321  11.958  1.5813  0.8146  0.0350
 9864TIP3    H251084   4.006   5.469  11.930 -1.2581  0.5306 -0.9138
 9865TIP3   OH251085   5.716   2.032  14.860 -0.0354  0.4341  0.6295
 9865TIP3    H151086   5.622   2.012  14.863  0.1725 -1.0200 -0.9166
 9865TIP3    H251087   5.752   1.990  14.938 -0.7442  1.6408  1.6360
 9866TIP3   OH251088   5.003   6.102   4.745  0.9443 -0.5981 -0.3227
 9866TIP3    H151089   5.031   6.117   4.655  1.1646  0.0208 -0.1541
 9866TIP3    H251090   4.959   6.017   4.743  2.5939 -1.4896 -0.6411
 9867TIP3   OH251091   5.680   3.164  11.805 -0.3684 -0.1213 -0.6580
 9867TIP3    H151092   5.717   3.246  11.835 -0.9128  0.0828 -0.5234
 9867TIP3    H251093   5.683   3.169  11.709  0.6154 -0.4225 -0.6493
 9868TIP3   OH251094   3.364   1.283  17.074  0.5942 -0.0887 -0.0869
 9868TIP3    H151095   3.284   1.315  17.115 -0.1112  0.9184 -2.1310
 9868TIP3    H251096   3.360   1.188  17.086 -0.4939  0.0143  0.5292
 9869TIP3   OH251097   2.907   1.985  12.189  0.2342 -0.8115  0.4662
 9869TIP3    H151098   2.989   1.960  12.146  1.1136  0.8196  1.1240
 9869TIP3    H251099   2.890   2.075  12.160 -0.6748 -0.6918  1.2852
 9870TIP3   OH251100   5.550   6.795   4.749  0.5390  0.5537  0.0345
 9870TIP3    H151101   5.459   6.798   4.779  0.0430  1.1148 -1.4324
 9870TIP3    H251102   5.594   6.863   4.799  0.0110  0.6998  0.3125
 9871TIP3   OH251103   3.886   1.074   3.197  0.0163 -0.0651 -0.1171
 9871TIP3    H151104   3.868   0.982   3.177 -0.5789  0.2480 -1.1316
 9871TIP3    H251105   3.979   1.085   3.177 -0.2677 -0.0842 -1.6208
 9872TIP3   OH251106   2.857   0.699  12.249 -0.4469 -0.4559 -0.3113
 9872TIP3    H151107   2.776   0.683  12.201 -2.0012 -0.2692  2.0543
 9872TIP3    H251108   2.871   0.793  12.243  0.6363 -0.7036 -2.2045
 9873TIP3   OH251109   6.392   0.425  16.995 -0.0742 -0.1757 -0.3501
 9873TIP3    H151110   6.415   0.458  16.908  2.7736 -0.2937  0.2779
 9873TIP3    H251111   6.309   0.468  17.016  0.4861  1.8804 -2.0420
 9874TIP3   OH251112   0.518   3.839   1.754 -0.2682 -0.7190 -0.1966
 9874TIP3    H151113   0.516   3.931   1.729  0.2677 -0.3837  0.9314
 9874TIP3    H251114   0.569   3.797   1.685  0.5462  0.0513 -0.0859
 9875TIP3   OH251115   4.768   1.631  16.113  0.0293  0.3667  0.2365
 9875TIP3    H151116   4.751   1.715  16.070  0.8192  0.6571  0.4863
 9875TIP3    H251117   4.863   1.621  16.111  0.2366  0.9425  2.9086
 9876TIP3   OH251118   2.144   4.136  11.871  0.5165  0.1323 -0.5789
 9876TIP3    H151119   2.068   4.078  11.864  0.1173  0.5430  0.1742
 9876TIP3    H251120   2.172   4.151  11.781 -1.3795  1.3671 -1.0166
 9877TIP3   OH251121   2.547   0.110   2.651 -0.1157 -0.8066  0.1722
 9877TIP3    H151122   2.604   0.174   2.609 -0.4393  0.3541  1.4138
 9877TIP3    H251123   2.501   0.160   2.719  0.9327 -2.6964  2.4237
 9878TIP3   OH251124   5.027   5.086  15.451  0.1560  0.8302 -0.6286
 9878TIP3    H151125   4.966   5.017  15.476 -1.2141  1.8278 -1.0670
 9878TIP3    H251126   5.096   5.041  15.401 -0.2882 -0.3055 -0.2541
 9879TIP3   OH251127   6.015   6.267   2.319 -0.7342 -0.0566 -0.1969
 9879TIP3    H151128   5.958   6.266   2.396  0.0785 -0.2480  0.4193
 9879TIP3    H251129   6.072   6.343   2.332 -0.9732  0.2505 -0.9036
 9880TIP3   OH251130   2.784   4.026   3.263  0.2152  0.2475 -0.2167
 9880TIP3    H151131   2.733   3.973   3.202 -0.4108  0.3044  0.2558
 9880TIP3    H251132   2.800   3.968   3.338 -1.8599  1.1861  1.0295
 9881TIP3   OH251133   2.048   4.774   3.218 -0.5491 -0.0752  0.1221
 9881TIP3    H151134   2.026   4.866   3.206 -0.0362  0.5226  2.9091
 9881TIP3    H251135   1.997   4.728   3.151 -0.4206  2.2343 -1.6852
 9882TIP3   OH251136   4.924   1.052   2.738  0.4816 -0.1442 -0.2670
 9882TIP3    H151137   4.885   1.068   2.652  0.8109 -0.4708 -0.4809
 9882TIP3    H251138   4.976   1.130   2.756  1.5041 -0.6405 -0.9830
 9883TIP3   OH251139   5.071   3.087   1.394  0.5786  0.2858 -0.2183
 9883TIP3    H151140   5.065   3.163   1.452  1.2397  0.1545  0.0359
 9883TIP3    H251141   5.025   3.017   1.441  0.4676  0.3748 -0.1935
 9884TIP3   OH251142   5.089   0.351   1.635 -0.2927  0.4283 -0.3601
 9884TIP3    H151143   5.173   0.377   1.597  0.6781 -0.5110  1.0127
 9884TIP3    H251144   5.112   0.316   1.721 -2.0653 -0.2343 -0.1128
 9885TIP3   OH251145   3.778   6.761   1.442 -0.0966  1.2419  0.4582
 9885TIP3    H151146   3.743   6.711   1.368  1.8195  0.7192 -0.1520
 9885TIP3    H251147   3.825   6.834   1.401  1.6105  0.5383  1.0883
 9886TIP3   OH251148   6.097   6.539  13.594  0.0440 -0.4357 -0.1640
 9886TIP3    H151149   6.174   6.583  13.557  0.8110 -1.1319  0.5519
 9886TIP3    H251150   6.024   6.597  13.572  0.8503  0.5723 -0.3077
 9887TIP3   OH251151   4.575   4.705   5.558  0.1754  0.2581  0.2053
 9887TIP3    H151152   4.606   4.639   5.497 -0.9947  1.0374 -1.2976
 9887TIP3    H251153   4.616   4.682   5.642  2.2654 -0.5155 -0.9635
 9888TIP3   OH251154   2.886   4.888  15.059  0.5915  0.5317  0.5765
 9888TIP3    H151155   2.844   4.905  14.975 -0.2262  2.7532  1.3489
 9888TIP3    H251156   2.978   4.872  15.038 -0.1291 -2.2989 -0.9604
 9889TIP3   OH251157   0.738   0.921  12.909 -0.0593  0.2762 -0.2365
 9889TIP3    H151158   0.791   0.879  12.977 -0.0489  0.6043 -0.0343
 9889TIP3    H251159   0.721   0.853  12.845  0.2272  0.0516 -0.0750
 9890TIP3   OH251160   1.685   5.710  16.087 -0.4605  0.0787  0.3357
 9890TIP3    H151161   1.728   5.632  16.122  2.9063  1.1374 -0.9520
 9890TIP3    H251162   1.730   5.727  16.004 -1.0604  3.3217  0.5133
 9891TIP3   OH251163   1.341   0.162   3.008  0.4977  0.0166  0.3762
 9891TIP3    H151164   1.251   0.165   3.042  0.9450  0.2445  1.6125
 9891TIP3    H251165   1.365   0.070   3.012  0.0802 -0.1525 -0.6655
 9892TIP3   OH251166   1.740   3.544   2.786 -0.4380 -0.4727 -0.1526
 9892TIP3    H151167   1.771   3.487   2.855  1.9698 -0.0597 -0.8080
 9892TIP3    H251168   1.813   3.549   2.724 -1.6738  0.9479 -1.5816
 9893TIP3   OH251169   1.379   0.448   0.225 -0.6542 -0.2378  0.2291
 9893TIP3    H151170   1.452   0.451   0.162  0.9026  0.7349  1.9728
 9893TIP3    H251171   1.353   0.356   0.226  0.8920 -0.7137 -0.0839
 9894TIP3   OH251172   3.303   2.852  13.402  0.5108 -0.4515  0.7353
 9894TIP3    H151173   3.281   2.811  13.485  1.8236  1.2435  1.9766
 9894TIP3    H251174   3.357   2.788  13.357  1.6351 -0.5503  2.1691
 9895TIP3   OH251175   1.616   3.876   2.514 -0.7165 -0.2381  0.8431
 9895TIP3    H151176   1.556   3.949   2.523 -1.1535 -0.2916 -1.1447
 9895TIP3    H251177   1.618   3.858   2.420 -0.4684 -2.6390  1.2433
 9896TIP3   OH251178   1.304   0.799  11.671 -0.4909  0.3936  0.1007
 9896TIP3    H151179   1.390   0.786  11.629  0.3378  0.9115  1.5692
 9896TIP3    H251180   1.246   0.822  11.598  0.5422 -0.2168 -0.9652
 9897TIP3   OH251181   5.788   2.595  13.996 -0.2945  0.6141  0.3362
 9897TIP3    H151182   5.737   2.555  13.926 -2.2411  1.3304  1.2798
 9897TIP3    H251183   5.790   2.688  13.975  0.2202  0.6644  0.5828
 9898TIP3   OH251184   1.642   6.313  15.716  0.0975 -0.0359 -0.1602
 9898TIP3    H151185   1.620   6.250  15.784  1.7481  0.0009  0.4637
 9898TIP3    H251186   1.616   6.398  15.752  1.2597  0.0197  0.5882
 9899TIP3   OH251187   5.167   2.389   3.033  0.4261 -0.4683 -0.2464
 9899TIP3    H151188   5.233   2.331   3.070  1.0953  1.1436  1.2013
 9899TIP3    H251189   5.091   2.378   3.091  0.4571 -0.0979 -0.1390
 9900TIP3   OH251190   1.333   3.106  12.929 -0.0377 -0.3332 -0.4764
 9900TIP3    H151191   1.394   3.062  12.989 -1.0776 -1.8029 -0.4289
 9900TIP3    H251192   1.253   3.054  12.935 -1.5442  1.9193 -0.0382
 9901TIP3   OH251193   0.144   1.918   4.702  0.3822 -0.5191  0.2478
 9901TIP3    H151194   0.162   1.909   4.796 -1.4391  0.4666  0.7513
 9901TIP3    H251195   0.177   2.006   4.680  0.8545 -0.7699 -0.0639
 9902TIP3   OH251196   1.508   6.103  14.965 -0.4697 -0.0239  0.6543
 9902TIP3    H151197   1.482   6.189  14.932  1.3680 -0.4280 -2.2271
 9902TIP3    H251198   1.562   6.122  15.042  1.4647  1.6264 -0.9736
 9903TIP3   OH251199   4.903   4.616   5.681 -0.3979  0.3006  0.7483
 9903TIP3    H151200   4.866   4.698   5.649 -0.7647  0.1993  0.9050
 9903TIP3    H251201   4.854   4.598   5.762  0.3536  0.4344  1.2400
 9904TIP3   OH251202   6.538   3.313  16.890 -0.5845  0.2722 -0.1407
 9904TIP3    H151203   6.614   3.371  16.895 -1.2872  1.1772  0.1473
 9904TIP3    H251204   6.565   3.245  16.827  0.7544  0.1115  0.5494
 9905TIP3   OH251205   5.685   1.498  14.964  0.4225  0.0457 -0.2957
 9905TIP3    H151206   5.768   1.473  14.923  0.5907 -1.2613  0.7838
 9905TIP3    H251207   5.641   1.552  14.898  1.3283 -0.7489 -1.5901
 9906TIP3   OH251208   0.482   1.115  17.223 -0.5708 -0.3184 -1.0294
 9906TIP3    H151209   0.514   1.196  17.183  0.6297 -0.3896 -0.2829
 9906TIP3    H251210   0.444   1.065  17.151 -0.0599  0.3163 -1.7540
 9907TIP3   OH251211   1.266   5.169   5.214 -0.5445  0.3171 -0.1371
 9907TIP3    H151212   1.292   5.227   5.285 -1.1732 -0.0297  0.3929
 9907TIP3    H251213   1.275   5.081   5.251 -0.1121  0.1022 -0.7527
 9908TIP3   OH251214   2.154   2.338  10.876  0.6208  0.0926  0.4723
 9908TIP3    H151215   2.228   2.384  10.837 -0.3322  1.5234  0.2721
 9908TIP3    H251216   2.133   2.269  10.813 -0.5389  2.0064 -1.4007
 9909TIP3   OH251217   3.073   1.209   4.156 -0.2477  0.6501 -0.1305
 9909TIP3    H151218   3.007   1.274   4.178 -0.4259  0.0436  1.2675
 9909TIP3    H251219   3.124   1.249   4.086 -0.8584  1.9436  0.1328
 9910TIP3   OH251220   1.428   2.194   1.284 -0.1476  0.3004 -0.5996
 9910TIP3    H151221   1.371   2.124   1.252  0.4885 -0.6443  0.2637
 9910TIP3    H251222   1.512   2.151   1.300 -0.2517  0.8165  1.6931
 9911TIP3   OH251223   1.185   3.393   1.298 -0.2373 -0.9164  0.1958
 9911TIP3    H151224   1.138   3.321   1.257 -1.0647 -0.3502  0.1126
 9911TIP3    H251225   1.116   3.452   1.328  0.4175 -0.1706  0.2671
 9912TIP3   OH251226   4.732   3.587   5.371  0.4805  0.2596  0.4065
 9912TIP3    H151227   4.794   3.634   5.427  0.4247 -0.3040  0.9601
 9912TIP3    H251228   4.719   3.503   5.415 -2.8485  1.3539  1.9211
 9913TIP3   OH251229   2.756   4.465   0.344  0.3474 -0.1378  0.1625
 9913TIP3    H151230   2.784   4.457   0.435  0.8737 -1.7588 -0.1077
 9913TIP3    H251231   2.663   4.443   0.346  0.5631 -1.0760  0.1950
 9914TIP3   OH251232   5.152   5.789  15.281  0.0766 -0.1102  0.0043
 9914TIP3    H151233   5.155   5.709  15.333  0.1326 -0.8037 -1.0625
 9914TIP3    H251234   5.060   5.799  15.257 -0.2580  1.1038  1.5584
 9915TIP3   OH251235   0.959   2.503  12.330 -0.3012  0.4527  0.0763
 9915TIP3    H151236   0.942   2.484  12.423  0.8780 -2.9955 -0.2662
 9915TIP3    H251237   1.033   2.564  12.331 -1.1909  1.5747  1.3503
 9916TIP3   OH251238   5.906   2.959   1.030  0.1073 -0.0455  0.0332
 9916TIP3    H151239   5.939   3.015   1.100 -0.1275 -0.2683  0.3292
 9916TIP3    H251240   5.981   2.907   1.002  0.6752  1.3828 -1.2080
 9917TIP3   OH251241   2.947   3.879   2.799  0.1154 -0.5274  0.3643
 9917TIP3    H151242   2.864   3.874   2.751 -0.0308 -1.7477  0.7002
 9917TIP3    H251243   2.983   3.790   2.794  2.4468  0.4283 -1.5298
 9918TIP3   OH251244   0.791   4.207   0.228  0.1183  0.0296 -0.4263
 9918TIP3    H151245   0.883   4.235   0.221  0.8549 -1.5127  2.0075
 9918TIP3    H251246   0.790   4.119   0.191 -0.2495 -0.1924  0.1036
 9919TIP3   OH251247   0.944   6.639  11.572 -0.3344 -0.1210  0.6988
 9919TIP3    H151248   0.965   6.561  11.622  1.1838 -1.6356 -2.0604
 9919TIP3    H251249   1.027   6.687  11.565 -1.0019  1.1909  1.4192
 9920TIP3   OH251250   6.805   2.474   4.376  1.1298 -1.0611  0.4742
 9920TIP3    H151251   6.867   2.405   4.352  1.0852 -0.1634 -2.5626
 9920TIP3    H251252   6.859   2.552   4.388  0.7228  0.5230 -5.2123
 9921TIP3   OH251253   5.502   0.601   0.038  0.0403 -0.0463  0.4170
 9921TIP3    H151254   5.407   0.609   0.039  0.0040 -0.3243 -0.2640
 9921TIP3    H251255   5.528   0.607   0.130 -0.4802  1.7377  0.4819
 9922TIP3   OH251256   6.252   2.558   3.645 -0.3709  0.4592 -0.4658
 9922TIP3    H151257   6.292   2.622   3.586 -1.0032  0.7862 -0.5414
 9922TIP3    H251258   6.166   2.593   3.665 -0.4028  0.0435  0.1664
 9923TIP3   OH251259   5.783   3.464   3.391  0.2764  0.3923 -0.3906
 9923TIP3    H151260   5.762   3.384   3.343 -1.8898 -0.4091  1.7014
 9923TIP3    H251261   5.698   3.503   3.412  1.0885  1.0037  2.1699
 9924TIP3   OH251262   6.241   5.418   4.293 -0.0769  0.2992 -0.1544
 9924TIP3    H151263   6.218   5.472   4.217 -2.5650 -0.8369 -0.3122
 9924TIP3    H251264   6.226   5.475   4.368 -1.2468  0.3069 -0.3797
 9925TIP3   OH251265   2.483   5.677  13.934 -0.0444 -0.2744 -0.0027
 9925TIP3    H151266   2.388   5.672  13.938 -0.1479 -1.4516 -2.0750
 9925TIP3    H251267   2.501   5.747  13.872  0.3652 -0.9592 -0.6854
 9926TIP3   OH251268   1.237   0.527  16.318 -0.1050 -0.3210 -0.1655
 9926TIP3    H151269   1.285   0.608  16.303  0.2517 -0.4399  0.2937
 9926TIP3    H251270   1.298   0.458  16.292 -0.5200 -0.4371 -0.8508
 9927TIP3   OH251271   1.840   5.702   4.615  0.6717  0.4192  0.0470
 9927TIP3    H151272   1.867   5.709   4.707  0.3882 -0.1672  0.1778
 9927TIP3    H251273   1.809   5.612   4.606 -1.0804  1.0062 -0.1440
 9928TIP3   OH251274   4.719   6.715   3.308  0.2357  0.2401 -0.2042
 9928TIP3    H151275   4.739   6.622   3.296 -0.5850  0.1184 -0.7629
 9928TIP3    H251276   4.628   6.715   3.338  0.2625  0.8668 -0.1205
 9929TIP3   OH251277   1.366   4.305   4.684 -0.5028  0.0984 -0.2860
 9929TIP3    H151278   1.341   4.236   4.745 -0.1334  0.4163  0.2272
 9929TIP3    H251279   1.284   4.353   4.669 -0.8836 -0.7514 -1.0590
 9930TIP3   OH251280   6.578   0.330   3.552 -0.0726 -0.3738  0.1383
 9930TIP3    H151281   6.640   0.262   3.577 -0.2696 -0.5372  0.1916
 9930TIP3    H251282   6.631   0.406   3.534  0.0200  0.2236  2.5120
 9931TIP3   OH251283   5.250   0.914  16.139  0.1868  0.3143  0.2579
 9931TIP3    H151284   5.301   0.935  16.217 -2.5521  2.4093  1.6770
 9931TIP3    H251285   5.275   0.981  16.076  0.4986  0.2279  0.2865
 9932TIP3   OH251286   6.455   6.573   1.147  0.3383 -0.1062 -0.3077
 9932TIP3    H151287   6.516   6.614   1.207 -2.2835  0.7710  1.9672
 9932TIP3    H251288   6.463   6.479   1.165 -0.5148  0.1503  1.6442
 9933TIP3   OH251289   6.352   3.011  14.244  0.3920  0.8472  0.2749
 9933TIP3    H151290   6.284   2.948  14.271  0.7466 -0.3407 -1.4555
 9933TIP3    H251291   6.341   3.085  14.304 -0.9122 -0.2968  1.5296
 9934TIP3   OH251292   2.209   1.277  13.474 -0.1012 -0.1797  0.2123
 9934TIP3    H151293   2.195   1.272  13.380 -0.0019 -0.6159  0.2189
 9934TIP3    H251294   2.300   1.251  13.487 -0.5150 -1.5201  0.5537
 9935TIP3   OH251295   2.723   5.616  13.263 -0.3459  0.1020 -0.3018
 9935TIP3    H151296   2.811   5.650  13.252  0.3123 -1.0654  0.9765
 9935TIP3    H251297   2.735   5.532  13.308 -2.0378 -0.6405 -1.1193
 9936TIP3   OH251298   3.994   0.169  12.346 -0.0575  0.3396 -0.2724
 9936TIP3    H151299   4.043   0.088  12.363 -0.6850  0.2910  1.5594
 9936TIP3    H251300   3.963   0.196  12.432 -0.0723  2.4182 -0.8845
 9937TIP3   OH251301   5.280   1.333   0.721 -0.5054  0.2746 -0.4258
 9937TIP3    H151302   5.306   1.267   0.657  1.7644 -1.9203  2.4500
 9937TIP3    H251303   5.298   1.416   0.679  2.3334 -1.0720 -2.1624
 9938TIP3   OH251304   1.256   1.457  10.817  0.3511  0.1714  0.0710
 9938TIP3    H151305   1.343   1.444  10.856  0.9285  0.7512 -0.9969
 9938TIP3    H251306   1.206   1.501  10.886  1.1041  0.4461  0.4622
 9939TIP3   OH251307   4.834   1.046  11.159  0.1666 -0.1507  0.1423
 9939TIP3    H151308   4.757   1.076  11.207  0.0534 -0.7379  0.3403
 9939TIP3    H251309   4.802   1.029  11.070 -1.0580 -4.5423  1.1653
 9940TIP3   OH251310   2.249   2.197  12.119 -0.0115  0.1611 -0.2830
 9940TIP3    H151311   2.200   2.122  12.085  0.0532 -0.8444  1.6939
 9940TIP3    H251312   2.341   2.170  12.112  0.0639  0.4345 -0.3658
 9941TIP3   OH251313   0.397   2.800   4.956  0.5726 -0.4586 -0.1602
 9941TIP3    H151314   0.353   2.881   4.979 -1.4738 -1.6520  0.4216
 9941TIP3    H251315   0.408   2.754   5.039 -0.6270 -1.8379 -0.7118
 9942TIP3   OH251316   3.714   1.075   4.197  0.6135 -0.0289 -0.3962
 9942TIP3    H151317   3.731   1.125   4.118  0.4047 -0.1598 -0.5241
 9942TIP3    H251318   3.619   1.079   4.209  0.5249 -0.8578 -0.7222
 9943TIP3   OH251319   1.861   6.512   4.640  0.2447 -0.4237 -0.6222
 9943TIP3    H151320   1.940   6.473   4.602  1.4514  0.5373  0.7698
 9943TIP3    H251321   1.847   6.463   4.721 -0.1807 -0.1290 -0.5150
 9944TIP3   OH251322   1.111   3.257   5.543  0.0766 -0.3953 -0.0365
 9944TIP3    H151323   1.029   3.304   5.528 -0.1275 -0.5822  0.4630
 9944TIP3    H251324   1.123   3.258   5.638  1.4976  1.0224 -0.1874
 9945TIP3   OH251325   1.705   3.634  16.202 -0.2746  0.0528 -0.0849
 9945TIP3    H151326   1.794   3.661  16.228  0.3033 -0.5320 -1.3710
 9945TIP3    H251327   1.687   3.687  16.125 -0.7565 -0.3522 -0.2512
 9946TIP3   OH251328   3.506   1.984   6.307  0.5712 -0.2177 -0.1468
 9946TIP3    H151329   3.548   2.060   6.347 -0.5504  1.4984 -2.0251
 9946TIP3    H251330   3.415   2.011   6.293  0.8254 -0.6781 -3.6065
 9947TIP3   OH251331   2.708   3.298  15.269 -0.6151  0.2014 -0.4358
 9947TIP3    H151332   2.757   3.275  15.347 -0.7474 -1.0461 -0.7042
 9947TIP3    H251333   2.625   3.333  15.302 -0.8827 -0.7960 -0.0037
 9948TIP3   OH251334   1.417   4.627  13.628  0.0415  0.0804  0.6388
 9948TIP3    H151335   1.483   4.644  13.696 -0.1244  0.6877  0.6600
 9948TIP3    H251336   1.337   4.665  13.663 -0.3456 -0.7376  0.6508
 9949TIP3   OH251337   4.119   5.491   3.328 -0.3054  0.1604  0.1945
 9949TIP3    H151338   4.071   5.420   3.369 -2.7043  2.4324  1.6328
 9949TIP3    H251339   4.177   5.524   3.397  0.4851 -0.0802 -0.3345
 9950TIP3   OH251340   5.208   4.471  13.234 -0.6991 -0.4261  0.7201
 9950TIP3    H151341   5.291   4.440  13.198 -0.8786 -1.1200  0.8895
 9950TIP3    H251342   5.183   4.545  13.178 -0.4433 -0.8137  0.0918
 9951TIP3   OH251343   5.763   1.182  12.966  0.3518 -0.2226  0.6811
 9951TIP3    H151344   5.848   1.150  12.934  0.2405 -1.0033  1.1436
 9951TIP3    H251345   5.774   1.276  12.972  1.0108 -0.2583  0.2080
 9952TIP3   OH251346   0.766   1.172   1.204  0.5324 -0.6737 -0.1332
 9952TIP3    H151347   0.791   1.200   1.292 -2.0509  0.2606  0.3843
 9952TIP3    H251348   0.794   1.243   1.147 -1.4956  0.7313  0.5328
 9953TIP3   OH251349   0.882   2.519   4.349 -0.4031 -0.1955 -0.1903
 9953TIP3    H151350   0.966   2.494   4.387  0.7975  0.8773 -1.9722
 9953TIP3    H251351   0.850   2.589   4.405  0.5940  0.3442 -0.2754
 9954TIP3   OH251352   1.147   5.656  11.217 -0.0910 -0.6262  0.3422
 9954TIP3    H151353   1.059   5.693  11.217 -0.4598 -1.4786  0.1340
 9954TIP3    H251354   1.133   5.563  11.230  0.9033 -0.5364  2.3374
 9955TIP3   OH251355   2.093   3.764  11.577 -0.1482  0.2679 -0.6227
 9955TIP3    H151356   2.123   3.673  11.573 -1.0607 -0.0483 -0.6244
 9955TIP3    H251357   2.121   3.795  11.664 -2.7635 -1.1310  0.8657
 9956TIP3   OH251358   5.126   2.942  13.568  0.3054  0.0433  0.3161
 9956TIP3    H151359   5.070   3.001  13.517 -0.7341 -1.4673 -0.3575
 9956TIP3    H251360   5.070   2.914  13.641  0.7383 -0.2225  0.5465
 9957TIP3   OH251361   5.596   6.332  12.868  0.0631 -0.2394  0.1437
 9957TIP3    H151362   5.547   6.412  12.846 -1.5991 -1.1815  0.2507
 9957TIP3    H251363   5.669   6.330  12.805  0.4064  1.5723  0.4370
 9958TIP3   OH251364   2.623   2.360  13.957  0.6114  0.9743 -0.1136
 9958TIP3    H151365   2.529   2.365  13.975  0.5543  1.5717 -0.5501
 9958TIP3    H251366   2.643   2.441  13.910  0.7998 -0.3554 -2.4915
 9959TIP3   OH251367   3.992   0.128   0.999  0.8650  1.0747  0.1170
 9959TIP3    H151368   3.958   0.137   1.088 -0.3976  0.6407 -0.2924
 9959TIP3    H251369   3.931   0.068   0.957  2.4348 -0.1257 -0.5420
 9960TIP3   OH251370   5.490   1.638  11.665  0.1324  0.0474 -0.1122
 9960TIP3    H151371   5.524   1.581  11.734  0.1227  0.6866  0.4239
 9960TIP3    H251372   5.546   1.620  11.590 -0.1317 -0.9829 -0.0820
 9961TIP3   OH251373   5.724   2.485   0.738  0.0090 -0.3763  0.0105
 9961TIP3    H151374   5.808   2.476   0.784 -0.0599  0.4939  0.3191
 9961TIP3    H251375   5.664   2.430   0.787  0.0407  0.2023  0.7183
 9962TIP3   OH251376   1.720   0.048   0.737  0.2144 -0.2162  0.5068
 9962TIP3    H151377   1.738   0.102   0.814  1.4610  0.3004 -0.1196
 9962TIP3    H251378   1.777  -0.029   0.749  0.0375 -0.3708  0.3491
 9963TIP3   OH251379   4.411   2.138   4.567  0.1009  0.2475  0.4677
 9963TIP3    H151380   4.432   2.199   4.637  0.3807  2.4050 -1.3678
 9963TIP3    H251381   4.321   2.159   4.543  0.7182  1.1752 -1.2603
 9964TIP3   OH251382   5.949   0.604   3.774  0.0746 -0.0641 -0.1921
 9964TIP3    H151383   5.918   0.685   3.815 -1.3622 -0.3263 -0.7252
 9964TIP3    H251384   6.038   0.593   3.808 -1.3234 -0.8063  3.6681
 9965TIP3   OH251385   0.839   0.219  11.725 -0.2134 -0.4129 -0.1233
 9965TIP3    H151386   0.873   0.263  11.803  0.4974  0.6002 -0.9676
 9965TIP3    H251387   0.768   0.165  11.757  0.9643 -1.1120  1.4426
 9966TIP3   OH251388   1.003   3.199  13.420 -1.2421 -0.2817  0.5996
 9966TIP3    H151389   1.094   3.169  13.414 -1.4348 -0.6916 -0.6668
 9966TIP3    H251390   0.981   3.224  13.330 -3.0809 -2.2663  0.4274
 9967TIP3   OH251391   2.684   3.062  15.885  0.0975  0.0963  0.0255
 9967TIP3    H151392   2.729   3.064  15.800 -0.1813  0.0235 -0.1264
 9967TIP3    H251393   2.712   3.141  15.929 -0.8938  0.9006 -0.7287
 9968TIP3   OH251394   5.851   3.380   5.133  0.4279  0.3281 -0.4871
 9968TIP3    H151395   5.876   3.288   5.144  1.5618  0.8509  1.7253
 9968TIP3    H251396   5.934   3.427   5.126 -0.1279  1.2926 -0.7751
 9969TIP3   OH251397   2.378   5.070  14.488  0.1934  0.0984 -0.4192
 9969TIP3    H151398   2.408   5.134  14.553  0.2232 -0.5830  0.2572
 9969TIP3    H251399   2.299   5.109  14.451  0.4938  0.7535 -0.3826
 9970TIP3   OH251400   1.338   0.509   1.295  0.5442  0.4839 -0.4187
 9970TIP3    H151401   1.351   0.603   1.283  1.0446  0.2701 -1.6732
 9970TIP3    H251402   1.402   0.468   1.238 -0.3186 -0.6229 -0.6321
 9971TIP3   OH251403   3.293   2.376   2.166  0.0552  0.0635  0.3895
 9971TIP3    H151404   3.348   2.352   2.092 -0.4886 -0.1409  0.0482
 9971TIP3    H251405   3.224   2.431   2.129  0.1433  0.4878  0.8457
 9972TIP3   OH251406   5.607   0.450   3.422 -0.1109 -0.0160 -0.2629
 9972TIP3    H151407   5.555   0.467   3.500 -3.1197  0.8439 -2.2639
 9972TIP3    H251408   5.689   0.497   3.436 -1.1961  1.4277  1.7287
 9973TIP3   OH251409   5.450   4.299  15.330  0.0172  0.4033  1.4190
 9973TIP3    H151410   5.513   4.338  15.390 -1.1690  0.6925  2.5158
 9973TIP3    H251411   5.383   4.260  15.387  0.7823 -2.7475  0.3975
 9974TIP3   OH251412   0.135   3.234   0.317  0.6278  0.1249 -0.2991
 9974TIP3    H151413   0.178   3.265   0.237  0.5526 -0.6381 -0.6433
 9974TIP3    H251414   0.190   3.162   0.347  0.3601  0.0649  0.0523
 9975TIP3   OH251415   5.069   3.275  12.512 -0.2492 -0.1532 -0.2924
 9975TIP3    H151416   5.001   3.325  12.556 -0.2875 -0.8603  0.4875
 9975TIP3    H251417   5.104   3.217  12.580 -0.3828 -1.3644 -1.2199
 9976TIP3   OH251418   4.662   2.666  13.128 -0.3158  0.8516 -0.3424
 9976TIP3    H151419   4.669   2.753  13.167 -1.2300  0.3124  1.1162
 9976TIP3    H251420   4.574   2.664  13.089 -0.1210  0.7361 -0.7847
 9977TIP3   OH251421   5.845   4.718  13.399  0.5068  0.6802  0.5820
 9977TIP3    H151422   5.800   4.697  13.481  2.2042 -0.5593  1.2605
 9977TIP3    H251423   5.897   4.795  13.420  1.3575  0.0443  0.8557
 9978TIP3   OH251424   6.303   0.766   0.726 -0.2203 -0.3973 -0.1822
 9978TIP3    H151425   6.322   0.815   0.806 -2.0773  0.0130  0.0475
 9978TIP3    H251426   6.341   0.820   0.656 -0.6592  0.4591  0.2270
 9979TIP3   OH251427   3.613   3.267   4.380 -0.0536 -0.0026 -0.0234
 9979TIP3    H151428   3.699   3.258   4.339  0.3201  1.3855  0.3966
 9979TIP3    H251429   3.555   3.214   4.326  0.9848 -0.6444 -0.5445
 9980TIP3   OH251430   0.337   6.398  11.496  0.7238 -0.1272  0.6630
 9980TIP3    H151431   0.303   6.309  11.511 -1.7347  0.3420 -1.4568
 9980TIP3    H251432   0.368   6.397  11.406 -0.7680  1.5017  0.0614
 9981TIP3   OH251433   6.134   2.074  12.792 -0.2699 -0.1973  0.9936
 9981TIP3    H151434   6.202   2.029  12.841  1.5308 -0.4996 -1.5618
 9981TIP3    H251435   6.143   2.166  12.815  0.2007 -0.3921  1.5873
 9982TIP3   OH251436   0.116   1.868   3.477  0.6665  0.1551  0.4201
 9982TIP3    H151437   0.167   1.825   3.545 -2.6618 -0.3937  2.7885
 9982TIP3    H251438   0.114   1.804   3.405  3.1002  0.1682  0.2743
 9983TIP3   OH251439   1.279   3.151  14.575 -0.1455  0.0754 -0.0615
 9983TIP3    H151440   1.251   3.224  14.630  0.8481 -0.3654  1.0615
 9983TIP3    H251441   1.283   3.188  14.487  1.4802  1.7299  0.6339
 9984TIP3   OH251442   5.805   1.906  15.084 -0.6021  0.4596  0.5661
 9984TIP3    H151443   5.796   1.811  15.073  1.2189  0.4052 -0.9158
 9984TIP3    H251444   5.847   1.917  15.169  0.9692 -0.2158 -0.0875
 9985TIP3   OH251445   4.969   5.269  11.572  0.3895  0.2783 -0.5974
 9985TIP3    H151446   5.021   5.191  11.553  1.1023  0.5867  0.0028
 9985TIP3    H251447   5.015   5.340  11.527  0.9049  0.6662  0.4893
 9986TIP3   OH251448   5.161   4.787  12.542 -0.0696  0.3130  0.1037
 9986TIP3    H151449   5.099   4.851  12.506 -0.0892  1.1152  1.5069
 9986TIP3    H251450   5.119   4.755  12.622  0.7471 -0.1325  0.3643
 9987TIP3   OH251451   2.504   0.566   3.391 -0.2334 -0.4346  0.0266
 9987TIP3    H151452   2.489   0.660   3.395  1.5384 -0.1632  1.3750
 9987TIP3    H251453   2.456   0.530   3.465  0.8053 -0.3090  0.7749
 9988TIP3   OH251454   1.749   6.542  15.418 -0.1043  0.3697  0.4911
 9988TIP3    H151455   1.840   6.532  15.445 -0.5462 -4.9637  1.2048
 9988TIP3    H251456   1.754   6.568  15.326  1.9481  2.3017  1.0533
 9989TIP3   OH251457   4.037   1.772  15.298  0.1943  0.0853  0.1767
 9989TIP3    H151458   3.949   1.755  15.262 -1.1543  0.2454  3.0822
 9989TIP3    H251459   4.077   1.685  15.304  0.7634  0.1244 -2.2303
 9990TIP3   OH251460   1.663   6.147   0.201  0.1822  0.1558  0.0900
 9990TIP3    H151461   1.632   6.177   0.115  0.8617 -2.6128 -1.2286
 9990TIP3    H251462   1.595   6.174   0.262 -1.1719  0.6939 -1.5749
 9991TIP3   OH251463   5.124   4.973  13.660 -0.6795 -0.2517  0.4952
 9991TIP3    H151464   5.144   4.883  13.684  0.9373 -0.9356 -2.8297
 9991TIP3    H251465   5.029   4.977  13.655 -0.7732 -1.8283  0.5793
 9992TIP3   OH251466   5.276   0.877   2.001 -0.0422  0.1288  0.0132
 9992TIP3    H151467   5.305   0.963   2.030  1.4674 -0.2932 -0.1724
 9992TIP3    H251468   5.196   0.894   1.951 -0.4067  1.2828  0.9558
 9993TIP3   OH251469   5.410   0.318   1.198  0.0432 -0.2404 -0.2783
 9993TIP3    H151470   5.501   0.344   1.211 -0.4131  1.7646 -0.7895
 9993TIP3    H251471   5.415   0.240   1.142  1.4336 -0.3006 -0.1029
 9994TIP3   OH251472   3.235   5.467  15.607  0.2574 -0.3586 -0.1215
 9994TIP3    H151473   3.281   5.520  15.673 -0.0334  1.0583 -1.0256
 9994TIP3    H251474   3.292   5.471  15.530 -0.4528 -0.1869 -0.6423
 9995TIP3   OH251475   5.739   2.394  17.137 -0.0384 -0.0601 -0.6444
 9995TIP3    H151476   5.754   2.488  17.146  0.5345 -0.2605  0.8680
 9995TIP3    H251477   5.697   2.384  17.052  1.3510  1.3776 -1.5356
 9996TIP3   OH251478   6.677   3.861   3.007  0.6556 -0.1724 -0.6274
 9996TIP3    H151479   6.742   3.929   3.027  0.8809 -0.3545 -0.7461
 9996TIP3    H251480   6.682   3.801   3.082 -0.3234  0.5235  0.0280
 9997TIP3   OH251481   4.860   3.090   2.363 -0.1091 -0.3803  0.0674
 9997TIP3    H151482   4.845   3.184   2.371  0.2979 -0.3960  1.1925
 9997TIP3    H251483   4.778   3.050   2.391  0.2943 -0.3759  1.3138
 9998TIP3   OH251484   0.033   4.147  12.651 -0.1778 -0.3055 -0.7326
 9998TIP3    H151485   0.122   4.114  12.638  0.0240 -0.0683 -0.0023
 9998TIP3    H251486   0.044   4.241  12.669 -0.5448 -0.3401 -0.3067
 9999TIP3   OH251487   3.914   4.674  15.040 -0.0867 -0.3538 -0.1731
 9999TIP3    H151488   3.920   4.634  15.127 -1.6434 -0.4149 -0.0812
 9999TIP3    H251489   3.998   4.654  14.999  1.1099  0.5448  1.6763
10000TIP3   OH251490   6.728   4.841   4.140 -0.1242  0.1621  0.0008
10000TIP3    H151491   6.697   4.930   4.158 -3.1951 -0.1525 -2.6705
10000TIP3    H251492   6.752   4.842   4.047 -0.6772 -1.8520 -0.2267
10001TIP3   OH251493   1.637   0.742   5.456 -0.3133  0.3909 -0.2451
10001TIP3    H151494   1.707   0.762   5.393 -0.5650  2.7927  0.1669
10001TIP3    H251495   1.560   0.727   5.402 -0.3708  1.7424 -0.5613
10002TIP3   OH251496   1.285   4.406   2.700  0.1903  0.1374 -0.1851
10002TIP3    H151497   1.230   4.483   2.717  0.6112  0.6930 -1.1892
10002TIP3    H251498   1.224   4.336   2.680 -0.2229  0.0188  1.3976
10003TIP3   OH251499   1.032   4.829  12.047  0.3321  0.1135  0.0984
10003TIP3    H151500   1.079   4.912  12.041 -0.8014  0.7307 -0.6112
10003TIP3    H251501   0.941   4.852  12.029 -0.0005 -1.2934 -0.1009
10004TIP3   OH251502   4.438   0.525   5.269  0.0777 -0.3859 -0.2101
10004TIP3    H151503   4.359   0.567   5.304  0.3222  0.1015 -0.2310
10004TIP3    H251504   4.495   0.512   5.346 -0.0514 -0.8071 -0.1825
10005TIP3   OH251505   2.326   5.581  17.261  0.2447  0.7477  0.6890
10005TIP3    H151506   2.390   5.643  17.227 -0.0579  1.2774  1.0622
10005TIP3    H251507   2.245   5.632  17.268 -0.5395 -0.2264 -0.9333
10006TIP3   OH251508   6.049   0.762   4.327 -0.2330  0.3889  0.1094
10006TIP3    H151509   6.075   0.702   4.397  2.6482  2.4895  0.9952
10006TIP3    H251510   5.980   0.816   4.366  1.6712  1.8605  1.6402
10007TIP3   OH251511   1.942   4.010  14.363 -0.2797 -0.2912 -0.1226
10007TIP3    H151512   1.873   4.077  14.367 -0.5903 -0.5626 -0.7405
10007TIP3    H251513   2.003   4.035  14.432 -1.5947 -0.6962  1.2549
10008TIP3   OH251514   4.884   3.677   0.011  0.0376  0.2852  0.2511
10008TIP3    H151515   4.864   3.587  -0.012 -0.1384  0.6773 -1.2749
10008TIP3    H251516   4.934   3.671   0.092 -0.7885 -1.1072  0.6846
10009TIP3   OH251517   1.881   2.474   5.875  0.3052  0.4367  0.4891
10009TIP3    H151518   1.938   2.403   5.905 -0.0671 -0.7888 -1.5103
10009TIP3    H251519   1.794   2.435   5.873 -0.3346  1.7204  1.6858
10010TIP3   OH251520   3.002   1.694  12.312 -0.3079 -0.0247 -0.0713
10010TIP3    H151521   2.920   1.740  12.327  0.5973  1.6630 -0.0848
10010TIP3    H251522   3.051   1.703  12.394  0.3038 -0.0454 -0.4235
10011TIP3   OH251523   0.047   0.278  16.413 -0.3894  0.3489  0.4221
10011TIP3    H151524   0.140   0.301  16.409 -0.5255  1.0494  1.1873
10011TIP3    H251525   0.004   0.339  16.353 -0.1786 -1.0443 -1.2241
10012TIP3   OH251526   3.094   1.931  14.283 -0.4208  0.6837 -0.0149
10012TIP3    H151527   3.047   1.849  14.271 -1.3322  1.2557 -0.4718
10012TIP3    H251528   3.170   1.907  14.335  0.1032 -0.7094 -1.3333
10013TIP3   OH251529   4.691   5.353   5.932 -0.1615 -0.4571 -0.3777
10013TIP3    H151530   4.741   5.307   5.999 -0.9369 -2.4068 -1.0497
10013TIP3    H251531   4.687   5.444   5.962  3.2104 -0.3146 -0.0216
10014TIP3   OH251532   1.564   3.288   2.603 -0.2323 -0.0789  0.0884
10014TIP3    H151533   1.642   3.338   2.623 -1.0687  0.3923  2.5362
10014TIP3    H251534   1.556   3.226   2.675 -2.9134  0.9556  0.8076
10015TIP3   OH251535   4.199   1.560  12.769 -0.5710 -0.2110 -0.0012
10015TIP3    H151536   4.208   1.465  12.759  0.1258 -0.1866  0.3586
10015TIP3    H251537   4.287   1.595  12.752 -0.1712  0.1419  2.4745
10016TIP3   OH251538   5.968   0.199  16.049  0.3266 -0.0843 -0.2813
10016TIP3    H151539   6.005   0.282  16.078  1.5653 -0.6825 -0.0685
10016TIP3    H251540   5.908   0.173  16.120  0.1566  0.4764 -0.2142
10017TIP3   OH251541   4.207   4.980   3.427 -0.1796  0.0285 -0.5243
10017TIP3    H151542   4.211   5.056   3.368  0.0440 -0.4831 -1.1778
10017TIP3    H251543   4.237   5.014   3.511 -0.9388  0.8779 -0.5867
10018TIP3   OH251544   6.059   5.839  11.989  0.7284  0.3124 -0.7415
10018TIP3    H151545   6.016   5.893  11.924  2.5194  1.4163 -1.0470
10018TIP3    H251546   6.011   5.857  12.071  0.0897  0.8382 -1.2246
10019TIP3   OH251547   5.360   1.073   0.969 -0.3725  0.2455 -0.8907
10019TIP3    H151548   5.440   1.040   1.009 -1.3571 -0.9794  0.1797
10019TIP3    H251549   5.354   1.026   0.885  0.3522  0.8541 -1.2982
10020TIP3   OH251550   3.903   2.608  12.304 -0.2010  0.4206  0.5141
10020TIP3    H151551   3.853   2.690  12.294 -0.5290 -0.0274 -2.5026
10020TIP3    H251552   3.838   2.539  12.291  0.7184 -0.2084 -1.0591
10021TIP3   OH251553   2.942   0.119  12.066 -0.3914 -0.4268  0.2775
10021TIP3    H151554   3.015   0.108  12.006  0.0519 -2.5789  1.1094
10021TIP3    H251555   2.979   0.168  12.140 -0.5314  0.8320 -0.4554
10022TIP3   OH251556   5.258   3.185  10.916 -0.0877  0.6276 -0.2570
10022TIP3    H151557   5.253   3.214  10.825 -0.1836  1.1979 -0.0743
10022TIP3    H251558   5.350   3.196  10.940 -0.2918  1.6898  0.0969
10023TIP3   OH251559   2.511   5.691   2.297 -0.0610 -0.2516 -0.5675
10023TIP3    H151560   2.459   5.765   2.331 -1.7521 -2.0727  1.0852
10023TIP3    H251561   2.452   5.648   2.235 -0.6060 -2.2988  1.2630
10024TIP3   OH251562   3.486   6.639  15.941  0.2095  0.2936 -0.0961
10024TIP3    H151563   3.419   6.581  15.903  0.2594 -0.2177  0.5759
10024TIP3    H251564   3.498   6.708  15.876  0.4042 -0.6496 -1.0924
10025TIP3   OH251565   3.404   2.129   4.166 -0.1142 -0.0117  0.1849
10025TIP3    H151566   3.326   2.181   4.148 -1.9820 -1.8587  2.2271
10025TIP3    H251567   3.397   2.054   4.107  0.1568 -0.1123  0.2783
10026TIP3   OH251568   5.481   3.328   5.827  0.0058  0.6001 -0.0846
10026TIP3    H151569   5.432   3.307   5.907  0.6021 -0.6149 -0.0067
10026TIP3    H251570   5.415   3.342   5.760 -0.4994  1.4440  0.5728
10027TIP3   OH251571   3.743   3.121   4.627 -0.4890  0.0513  0.4041
10027TIP3    H151572   3.709   3.168   4.551  0.7280 -0.0759 -0.2402
10027TIP3    H251573   3.674   3.130   4.693 -0.1872  3.0528  0.4372
10028TIP3   OH251574   3.322   3.351   6.121  0.2900  0.1918  0.1522
10028TIP3    H151575   3.326   3.398   6.204 -1.3290 -0.1414  0.4565
10028TIP3    H251576   3.236   3.372   6.086 -1.0993 -3.4128  0.9008
10029TIP3   OH251577   6.142   6.016  14.685  0.2349  0.1944 -0.4613
10029TIP3    H151578   6.067   6.075  14.676 -0.1184 -0.0515  0.6915
10029TIP3    H251579   6.104   5.930  14.701  0.7204  0.2473  1.2431
10030TIP3   OH251580   3.367   5.678   6.837  0.6448  0.2187 -0.1016
10030TIP3    H151581   3.385   5.710   6.748  4.1971 -2.5659 -0.6245
10030TIP3    H251582   3.412   5.740   6.894 -0.0228  0.9574 -0.3594
10031TIP3   OH251583   2.370   2.408   0.778 -0.5587  0.7505  1.0443
10031TIP3    H151584   2.292   2.367   0.741 -0.5124  1.3409  0.2436
10031TIP3    H251585   2.438   2.341   0.772 -1.5357 -0.6639  4.0615
10032TIP3   OH251586   0.299   4.607   0.831  0.6692 -0.0058 -0.1827
10032TIP3    H151587   0.352   4.676   0.871  0.0339  0.0601  0.5764
10032TIP3    H251588   0.324   4.608   0.739  1.1131  0.8255 -0.0671
10033TIP3   OH251589   5.695   4.922   4.094 -0.0903  0.3557 -0.1492
10033TIP3    H151590   5.774   4.947   4.045  0.1298 -0.5756 -0.3031
10033TIP3    H251591   5.644   4.871   4.031 -1.9161  2.7975 -0.7744
10034TIP3   OH251592   2.596   4.640   2.105  0.1851 -0.2384  0.4652
10034TIP3    H151593   2.631   4.720   2.144  1.3348 -0.9054  0.8351
10034TIP3    H251594   2.501   4.650   2.112  0.3383  0.3527  2.0220
10035TIP3   OH251595   1.520   5.058   5.130  0.4143  0.0245 -0.2274
10035TIP3    H151596   1.440   5.107   5.145 -1.2574 -2.5921  0.1255
10035TIP3    H251597   1.591   5.119   5.151 -1.4304  2.5497 -0.9248
10036TIP3   OH251598   1.071   0.388   4.594  0.2795 -0.2302 -0.3623
10036TIP3    H151599   1.035   0.469   4.630 -1.2149 -0.0866 -2.0355
10036TIP3    H251600   1.080   0.330   4.669 -0.7944  0.7093  0.5295
10037TIP3   OH251601   1.079   4.767   0.083  0.3937 -0.8270 -0.2313
10037TIP3    H151602   1.027   4.844   0.060 -0.2691 -1.0966  0.3166
10037TIP3    H251603   1.041   4.695   0.032  0.9520 -0.8194 -0.6722
10038TIP3   OH251604   6.785   5.595  12.940  0.5324  0.2787 -0.0367
10038TIP3    H151605   6.822   5.650  12.871 -2.5119  0.1418 -1.9612
10038TIP3    H251606   6.703   5.638  12.963 -0.3221 -1.6905  0.8048
10039TIP3   OH251607   0.022   4.852   5.574  0.0087 -0.0294  0.1823
10039TIP3    H151608   0.012   4.834   5.668  0.7505 -1.8028 -0.0327
10039TIP3    H251609   0.062   4.773   5.539 -1.1528  0.1951 -1.8206
10040TIP3   OH251610   0.341   1.008   0.660  0.0832  0.0309 -0.3285
10040TIP3    H151611   0.341   1.080   0.597 -0.7122 -0.6806 -1.1865
10040TIP3    H251612   0.250   1.003   0.691  0.4066  0.1966  0.6844
10041TIP3   OH251613   0.311   2.903  16.314  0.5875 -1.0257 -0.5326
10041TIP3    H151614   0.322   2.813  16.285  0.9524 -0.9005 -0.7914
10041TIP3    H251615   0.220   2.924  16.296  0.4681 -1.3854 -0.3495
10042TIP3   OH251616   5.156   3.193  12.743  0.0946  0.2711 -0.1855
10042TIP3    H151617   5.142   3.155  12.829  2.7623 -0.9221 -0.1654
10042TIP3    H251618   5.242   3.235  12.749 -0.4470  1.7460 -1.7734
10043TIP3   OH251619   3.139   5.128   3.429  0.1782  0.4667  0.3632
10043TIP3    H151620   3.066   5.189   3.433 -0.6209 -0.4371  0.0852
10043TIP3    H251621   3.140   5.086   3.516 -0.5040 -0.4657 -0.0555
10044TIP3   OH251622   2.111   5.333   2.549  0.4466  0.3314 -0.2394
10044TIP3    H151623   2.171   5.346   2.623  1.0762  1.8018 -0.9710
10044TIP3    H251624   2.162   5.281   2.486  1.2087  2.0100 -1.0798
10045TIP3   OH251625   4.739   5.185  16.048 -0.9612 -0.2361  0.4469
10045TIP3    H151626   4.714   5.272  16.017  0.8137  0.1196 -0.1155
10045TIP3    H251627   4.697   5.176  16.133  0.2006  1.9050  1.3148
10046TIP3   OH251628   1.711   3.375  16.251  0.0217  0.8654 -0.3837
10046TIP3    H151629   1.692   3.466  16.229  2.3362  1.8983  1.3708
10046TIP3    H251630   1.751   3.380  16.338  0.6909 -1.7661 -0.4657
10047TIP3   OH251631   5.184   2.909   4.201 -0.3707 -0.0590  0.7922
10047TIP3    H151632   5.186   2.892   4.107 -1.4626  1.3712  0.4766
10047TIP3    H251633   5.182   2.822   4.241 -1.5936 -0.6925 -0.5613
10048TIP3   OH251634   1.859   3.200  15.416  0.2147  0.3918  0.1471
10048TIP3    H151635   1.797   3.259  15.459  0.3968  1.2313 -0.7055
10048TIP3    H251636   1.945   3.238  15.437  0.2620  1.6795 -2.1123
10049TIP3   OH251637   2.457   0.124   5.063  0.2778 -0.5539  0.3430
10049TIP3    H151638   2.428   0.186   5.130  1.6379 -0.6593  1.0478
10049TIP3    H251639   2.451   0.173   4.981  1.4980  0.5981  0.9092
10050TIP3   OH251640   0.321   5.296   3.177 -0.4715 -0.3425 -0.5669
10050TIP3    H151641   0.351   5.292   3.087 -2.0652  0.2711 -1.1592
10050TIP3    H251642   0.379   5.361   3.218 -2.0378  2.2327 -2.1617
10051TIP3   OH251643   2.918   0.902  17.205  0.4325  0.3433 -0.3143
10051TIP3    H151644   2.840   0.889  17.150  1.2422  0.7303 -1.5962
10051TIP3    H251645   2.899   0.982  17.254 -1.4506 -1.4101  2.1142
10052TIP3   OH251646   5.260   0.677  14.353 -0.7389  0.4192 -0.0498
10052TIP3    H151647   5.230   0.738  14.421  0.5648  1.4368 -0.3478
10052TIP3    H251648   5.282   0.734  14.279  0.6166 -0.4062 -0.2980
10053TIP3   OH251649   2.125   1.929  14.567  0.0426 -0.6297  0.1067
10053TIP3    H151650   2.056   1.870  14.598  1.3272 -1.7163  1.0268
10053TIP3    H251651   2.172   1.879  14.501 -0.1313  0.1547 -0.6209
10054TIP3   OH251652   0.560   3.843  12.816 -0.1376 -0.4054  0.2659
10054TIP3    H151653   0.493   3.798  12.868  0.1374 -1.4020 -0.2231
10054TIP3    H251654   0.602   3.773  12.765  0.0741  0.4508 -0.7675
10055TIP3   OH251655   4.926   3.266  11.490 -0.4756  0.3959  0.5843
10055TIP3    H151656   5.005   3.285  11.540 -0.1776 -0.4065  0.4349
10055TIP3    H251657   4.855   3.272  11.554 -0.1729  0.0488  0.9577
10056TIP3   OH251658   3.996   5.729   5.254 -0.1361  0.0011  0.7610
10056TIP3    H151659   4.074   5.677   5.274  0.1824  0.7042  1.3828
10056TIP3    H251660   4.013   5.814   5.295 -0.3487  0.8370 -0.8232
10057TIP3   OH251661   4.770   1.843  13.717 -0.0476 -0.3070  0.6916
10057TIP3    H151662   4.716   1.910  13.758 -0.5888  0.9367 -1.8610
10057TIP3    H251663   4.788   1.877  13.630  3.6176 -1.3756  0.8823
10058TIP3   OH251664   3.060   1.189  15.579 -0.2647  0.7541  0.9531
10058TIP3    H151665   3.107   1.203  15.661 -1.6173  2.3570  1.4964
10058TIP3    H251666   3.077   1.268  15.527  0.2485 -0.0648 -0.1780
10059TIP3   OH251667   6.695   0.028   5.033  0.0779 -0.0593 -0.2057
10059TIP3    H151668   6.599   0.025   5.034  0.1004 -0.8651 -0.0204
10059TIP3    H251669   6.716   0.114   4.996 -0.7172 -0.1990 -1.0182
10060TIP3   OH251670   0.564   4.818   3.762 -0.1921 -0.2613 -0.0852
10060TIP3    H151671   0.624   4.759   3.718 -0.3176 -0.6126  0.2089
10060TIP3    H251672   0.571   4.901   3.714 -1.9926 -1.2360 -2.2148
10061TIP3   OH251673   4.311   5.273   6.104 -0.3917  0.4380  0.2988
10061TIP3    H151674   4.317   5.319   6.020 -0.3015 -0.5853 -0.2747
10061TIP3    H251675   4.334   5.339   6.169 -2.3418  1.8015 -0.2930
10062TIP3   OH251676   5.798   6.503   3.992  0.4152  0.1302 -0.2304
10062TIP3    H151677   5.765   6.542   4.073 -0.1036 -0.1887 -0.2850
10062TIP3    H251678   5.720   6.470   3.948  0.6928  0.3394 -0.8814
10063TIP3   OH251679   1.510   1.069  12.359 -0.1672 -0.2010 -0.4967
10063TIP3    H151680   1.417   1.091  12.354 -0.5210 -1.7833 -2.0825
10063TIP3    H251681   1.520   1.025  12.443 -0.9586 -0.3760 -0.4810
10064TIP3   OH251682   1.078   3.696   2.449 -0.1398  0.5057  0.4459
10064TIP3    H151683   1.134   3.645   2.508 -0.1171 -0.6051 -0.4953
10064TIP3    H251684   1.117   3.784   2.449 -0.6207  0.7833  2.6801
10065TIP3   OH251685   0.927   1.825  15.711  0.3507 -0.2509  0.5316
10065TIP3    H151686   1.011   1.798  15.674 -0.4952 -0.6809 -1.1893
10065TIP3    H251687   0.932   1.801  15.803  3.4595  2.9832  1.3991
10066TIP3   OH251688   3.987   4.164   3.636  0.1352  0.6191  0.1783
10066TIP3    H151689   3.953   4.076   3.650 -0.6103  1.1229  1.7399
10066TIP3    H251690   4.029   4.160   3.550 -0.8500 -0.9498 -0.2667
10067TIP3   OH251691   0.409   3.016  11.558  0.4018  0.0607 -0.3883
10067TIP3    H151692   0.447   3.031  11.471 -0.7097 -1.7949 -1.2606
10067TIP3    H251693   0.342   3.084  11.567  2.6544  2.3299  0.4763
10068TIP3   OH251694   6.143   3.029  16.967  0.5067  0.2702  0.4642
10068TIP3    H151695   6.150   3.001  17.058  0.9678  1.4090  0.7885
10068TIP3    H251696   6.129   3.123  16.972 -2.4327 -0.0226 -0.5491
10069TIP3   OH251697   2.832   0.707   5.935 -0.2505  0.2946 -0.6654
10069TIP3    H151698   2.822   0.673   6.024  0.5563  0.8383 -0.3504
10069TIP3    H251699   2.810   0.800   5.943 -0.8436  0.2097 -1.1852
10070TIP3   OH251700   3.167   3.255  11.293  0.2951 -0.0884  0.2379
10070TIP3    H151701   3.114   3.278  11.217 -0.8642 -0.2838  0.9612
10070TIP3    H251702   3.125   3.302  11.366  2.6948  1.9451  0.4469
10071TIP3   OH251703   0.066   3.401  11.271 -0.3732  0.3887 -0.3444
10071TIP3    H151704  -0.012   3.366  11.316 -0.8660  1.0842 -0.6378
10071TIP3    H251705   0.139   3.353  11.310 -0.8146  0.7306  0.9854
10072TIP3   OH251706   5.411   0.252  11.900  0.0675 -0.0249 -0.1511
10072TIP3    H151707   5.400   0.338  11.941  0.3166  0.0753 -0.2903
10072TIP3    H251708   5.458   0.271  11.819 -0.1404 -0.2589 -0.3271
10073TIP3   OH251709   5.304   0.851  17.299  0.4466 -0.1954  0.5870
10073TIP3    H151710   5.261   0.780  17.347  0.8776 -0.4111  0.6600
10073TIP3    H251711   5.385   0.867  17.347  0.6018 -0.0118  0.2661
10074TIP3   OH251712   0.386   2.652  15.937 -0.0632  0.1112 -0.2300
10074TIP3    H151713   0.340   2.725  15.978  0.0385  0.5584 -0.8950
10074TIP3    H251714   0.393   2.677  15.845 -0.4432 -0.9491 -0.5629
10075TIP3   OH251715   6.115   2.712  14.695  0.2464 -0.0509 -0.1393
10075TIP3    H151716   6.078   2.630  14.727  0.9394 -0.6121 -0.7236
10075TIP3    H251717   6.203   2.714  14.732  0.7602 -0.3055 -1.3088
10076TIP3   OH251718   0.324   3.605  14.429  0.2869 -0.1001 -0.5225
10076TIP3    H151719   0.411   3.591  14.467 -0.1607 -0.1857  0.4880
10076TIP3    H251720   0.263   3.586  14.500 -0.7238 -3.3319 -2.0690
10077TIP3   OH251721   1.454   3.862   1.179 -0.6124 -0.6835 -0.3046
10077TIP3    H151722   1.392   3.861   1.252 -0.7229 -2.1856 -0.3703
10077TIP3    H251723   1.411   3.911   1.110 -0.4135  0.9610  0.7038
10078TIP3   OH251724   0.042   2.266   2.125 -0.2982  0.2700  0.2232
10078TIP3    H151725   0.042   2.192   2.186  3.2570 -0.8795 -0.9247
10078TIP3    H251726   0.080   2.339   2.175 -0.1352  0.1665  0.2525
10079TIP3   OH251727   4.060   3.515  16.016 -0.1134  0.0884  0.2651
10079TIP3    H151728   4.139   3.501  16.067 -0.6064 -1.8035  0.5863
10079TIP3    H251729   3.990   3.526  16.081 -0.4216 -0.2683  0.0011
10080TIP3   OH251730   5.624   0.073  16.500 -0.3892 -0.2344  0.1812
10080TIP3    H151731   5.641   0.118  16.417 -1.2180 -0.2187  0.0157
10080TIP3    H251732   5.546   0.116  16.534  0.0082 -0.1738  1.0255
10081TIP3   OH251733   2.380   3.830   4.637  0.5489  0.3178 -0.1185
10081TIP3    H151734   2.464   3.872   4.657  1.0711 -0.5032 -0.5258
10081TIP3    H251735   2.381   3.820   4.541  0.7393 -1.2213  0.0256
10082TIP3   OH251736   5.717   2.971  15.726 -0.2423  0.2997 -0.4243
10082TIP3    H151737   5.779   2.962  15.798 -0.6224  0.3297 -0.0863
10082TIP3    H251738   5.765   3.018  15.658 -0.0393  0.7480  0.0195
10083TIP3   OH251739   0.832   1.581  13.371  0.0753 -0.6322  0.3927
10083TIP3    H151740   0.831   1.654  13.433  1.1446  1.0754 -1.4677
10083TIP3    H251741   0.924   1.560  13.360 -0.0144 -0.3591 -1.1546
10084TIP3   OH251742   2.611   5.070   4.549 -0.3117  0.4426  0.3404
10084TIP3    H151743   2.656   5.022   4.619  0.0997  0.7358  0.2852
10084TIP3    H251744   2.578   5.149   4.592  0.3412  0.8498  0.1195
10085TIP3   OH251745   3.401   0.144  16.253  0.5319  0.2827  0.2886
10085TIP3    H151746   3.487   0.178  16.277  0.2719  0.4055  1.0547
10085TIP3    H251747   3.343   0.170  16.325  0.0571 -0.6576  0.2624
10086TIP3   OH251748   0.354   1.039  14.326  0.0430  0.4834  0.3058
10086TIP3    H151749   0.279   1.001  14.373 -0.7845  1.7025  0.0254
10086TIP3    H251750   0.316   1.073  14.245  1.4566 -1.6668 -1.3597
10087TIP3   OH251751   0.864   3.222   4.218  0.3401 -0.0702  0.2521
10087TIP3    H151752   0.937   3.273   4.184  1.9131 -2.0538  0.5132
10087TIP3    H251753   0.825   3.180   4.141 -0.4719  0.8471  0.1350
10088TIP3   OH251754   1.125   1.832   1.298  0.2506 -0.0472  0.0110
10088TIP3    H151755   1.047   1.811   1.248  0.4186  0.1833 -0.3540
10088TIP3    H251756   1.097   1.827   1.390 -0.0572 -0.4746 -0.1009
10089TIP3   OH251757   2.194   0.118   3.056  0.3473  0.2074 -0.9058
10089TIP3    H151758   2.149   0.185   3.108  2.2094  0.9486 -0.1340
10089TIP3    H251759   2.287   0.132   3.076  0.7885 -3.2316  0.0510
10090TIP3   OH251760   0.757   0.277   2.181 -0.5624 -0.0294 -0.3342
10090TIP3    H151761   0.815   0.315   2.247  1.6859 -3.2341 -0.1987
10090TIP3    H251762   0.763   0.336   2.106 -0.3503  1.8175  1.0754
10091TIP3   OH251763   3.076   3.727  11.478  0.3064 -0.0979 -0.9968
10091TIP3    H151764   2.997   3.710  11.426 -0.9109 -0.2849  0.8022
10091TIP3    H251765   3.050   3.707  11.568  2.0827  0.9630 -0.1889
10092TIP3   OH251766   4.525   5.414  14.939 -0.1202  0.6465  0.3448
10092TIP3    H151767   4.521   5.504  14.974  0.5803  1.8220 -2.3389
10092TIP3    H251768   4.618   5.397  14.927 -0.3216  0.2349 -0.7427
10093TIP3   OH251769   0.083   3.055  14.799 -0.4556  0.0287  0.4621
10093TIP3    H151770   0.156   3.012  14.755  0.9482 -0.4480  3.0289
10093TIP3    H251771   0.044   3.112  14.732  1.1378 -1.0343 -1.4686
10094TIP3   OH251772   0.360   3.668   1.925  0.0207  0.1403  0.2281
10094TIP3    H151773   0.286   3.680   1.865 -1.5342  1.9835  2.3682
10094TIP3    H251774   0.433   3.712   1.882 -1.1506  1.7717 -0.1793
10095TIP3   OH251775   2.487   1.200  11.377  0.3782 -0.0297 -0.0339
10095TIP3    H151776   2.487   1.192  11.281  2.2340  1.7159 -0.2485
10095TIP3    H251777   2.415   1.260  11.395  0.0375 -0.3412 -0.3350
10096TIP3   OH251778   2.748   0.844  16.616  0.2581 -0.1891  0.1905
10096TIP3    H151779   2.697   0.853  16.536 -0.6664  0.6746  0.8465
10096TIP3    H251780   2.685   0.810  16.680  0.1072  2.0659  1.3453
10097TIP3   OH251781   4.972   2.250  14.936 -0.2568 -0.5963 -0.0131
10097TIP3    H151782   4.940   2.161  14.952 -0.5354 -0.5957 -0.5565
10097TIP3    H251783   4.895   2.305  14.949 -0.7165 -0.6667 -2.1408
10098TIP3   OH251784   0.589   6.508  11.203 -0.0177 -0.2036 -0.0519
10098TIP3    H151785   0.553   6.464  11.280  0.9236 -1.0932 -0.0905
10098TIP3    H251786   0.614   6.436  11.145  0.3110  0.4351 -0.7142
10099TIP3   OH251787   5.574   0.390   0.743  0.2366  0.3161  0.0789
10099TIP3    H151788   5.568   0.386   0.647  0.2303  0.2059  0.0829
10099TIP3    H251789   5.658   0.431   0.760  0.4125 -0.0241  0.0269
10100TIP3   OH251790   4.777   5.538   6.584  0.1345  0.2608 -0.3616
10100TIP3    H151791   4.870   5.529   6.565  0.2924  0.4754  0.2957
10100TIP3    H251792   4.743   5.449   6.579  0.4443  0.1339 -0.2493
10101TIP3   OH251793   0.129   1.573  11.433 -0.0121 -0.1393  0.7024
10101TIP3    H151794   0.200   1.531  11.384 -0.0072  1.1797 -0.4931
10101TIP3    H251795   0.114   1.516  11.508  1.9921 -0.7111  0.7286
10102TIP3   OH251796   5.267   3.233  11.975  0.2403 -0.7462  0.0304
10102TIP3    H151797   5.233   3.314  12.012 -0.1568 -1.4720  1.3300
10102TIP3    H251798   5.362   3.241  11.982  0.2144 -0.2720 -0.1311
10103TIP3   OH251799   1.144   1.077  12.131 -0.2497  0.0504  0.9085
10103TIP3    H151800   1.205   1.032  12.073  2.2079  1.0711  2.5489
10103TIP3    H251801   1.092   1.133  12.072  2.0023  0.8911 -0.4088
10104TIP3   OH251802   1.849   4.374   0.379 -0.0836  0.3033 -0.0670
10104TIP3    H151803   1.813   4.455   0.415 -2.0510 -0.6759  0.3142
10104TIP3    H251804   1.832   4.308   0.446 -0.2698 -0.7866 -1.1469
10105TIP3   OH251805   6.696   6.073  12.563  0.4735 -0.4504  0.3855
10105TIP3    H151806   6.666   6.065  12.654 -0.5280 -0.9138  0.0211
10105TIP3    H251807   6.763   6.141  12.566 -1.0022  1.0385  1.1274
10106TIP3   OH251808   3.961   1.058  14.073 -0.0254  0.2685  0.2857
10106TIP3    H151809   3.987   1.091  14.159 -2.9821  0.7185  1.1320
10106TIP3    H251810   3.938   1.136  14.023  0.9238 -0.0479 -0.6872
10107TIP3   OH251811   5.227   5.916  13.393  0.6586 -0.1360 -0.2764
10107TIP3    H151812   5.269   5.907  13.479  0.9024 -0.9236 -0.4763
10107TIP3    H251813   5.192   5.829  13.374  0.4651  0.0777 -0.9065
10108TIP3   OH251814   6.350   0.236  14.539  0.2638  0.2123 -0.1432
10108TIP3    H151815   6.412   0.308  14.525  1.4000 -0.8578 -0.9208
10108TIP3    H251816   6.282   0.250  14.473  0.3890  0.6546 -0.1862
10109TIP3   OH251817   5.728   2.505  11.995 -0.4626 -0.2958  0.0473
10109TIP3    H151818   5.816   2.539  11.974 -0.4502  0.5437  1.3410
10109TIP3    H251819   5.669   2.560  11.945 -0.2799 -0.5743 -0.4837
10110TIP3   OH251820   1.511   3.969  11.546  0.5935  0.0596  0.0908
10110TIP3    H151821   1.485   3.877  11.547 -0.6883  0.3744  2.0163
10110TIP3    H251822   1.434   4.016  11.515  1.4568  0.4646 -1.5117
10111TIP3   OH251823   5.538   4.540   4.082  0.1437 -0.0031 -0.2075
10111TIP3    H151824   5.608   4.535   4.016  0.3574 -0.9423  0.0768
10111TIP3    H251825   5.569   4.604   4.146  0.6197 -0.2156 -0.2257
10112TIP3   OH251826   2.962   3.534   6.044 -0.4040 -0.3833  0.1134
10112TIP3    H151827   3.022   3.484   5.989 -0.2572 -1.5744  1.3013
10112TIP3    H251828   2.990   3.515   6.133 -1.2252  0.7414  0.6405
10113TIP3   OH251829   3.429   4.208  12.531 -0.6281  0.6839  0.0941
10113TIP3    H151830   3.406   4.260  12.454 -0.8200  0.2203 -0.1665
10113TIP3    H251831   3.523   4.219  12.541 -0.6654  1.0688  0.0329
10114TIP3   OH251832   3.492   3.949   2.686 -0.1456  0.6280  0.4064
10114TIP3    H151833   3.526   4.017   2.627  2.4832 -0.7735  0.1283
10114TIP3    H251834   3.476   3.874   2.629  0.0268  0.0409  1.1176
10115TIP3   OH251835   2.171   0.900   1.804 -0.3963 -0.2962 -0.6208
10115TIP3    H151836   2.075   0.898   1.805 -0.4646  1.1582 -1.8423
10115TIP3    H251837   2.194   0.992   1.793  1.1202 -0.7395 -1.5330
10116TIP3   OH251838   2.003   5.004  12.965 -0.3066  0.5426  0.3984
10116TIP3    H151839   1.912   4.976  12.965 -0.4679  1.0452  0.1428
10116TIP3    H251840   2.004   5.082  13.020  0.0932  0.1658  0.9311
10117TIP3   OH251841   5.667   1.603   1.698  0.3310 -0.2695 -0.1411
10117TIP3    H151842   5.600   1.546   1.735  2.0244 -2.5085 -0.3063
10117TIP3    H251843   5.619   1.671   1.652 -1.7922 -1.2799  0.4912
10118TIP3   OH251844   4.843   5.607   0.834 -0.3368 -0.4718  0.3508
10118TIP3    H151845   4.813   5.531   0.884 -0.7770 -0.9062 -0.5470
10118TIP3    H251846   4.919   5.576   0.785 -0.4510 -0.3080  0.0641
10119TIP3   OH251847   5.018   1.455   5.887 -0.1560 -0.3346 -0.5252
10119TIP3    H151848   5.051   1.527   5.834 -0.3370  0.0570 -0.1094
10119TIP3    H251849   4.922   1.464   5.883 -0.1760 -0.4650 -0.3550
10120TIP3   OH251850   3.122   4.588  16.592 -0.4362 -0.4243  0.1301
10120TIP3    H151851   3.204   4.561  16.634 -1.7156 -5.7472 -0.1388
10120TIP3    H251852   3.140   4.586  16.498 -0.1053  1.9537  0.0734
10121TIP3   OH251853   2.302   1.541   5.910  0.2862  0.7261  0.2201
10121TIP3    H151854   2.217   1.504   5.936 -0.3582 -0.3713 -3.0050
10121TIP3    H251855   2.289   1.636   5.916 -1.6759  0.6322 -1.3627
10122TIP3   OH251856   5.518   0.736  13.678 -0.4168  0.3182 -0.4299
10122TIP3    H151857   5.609   0.765  13.677 -0.1499 -0.4789 -0.3821
10122TIP3    H251858   5.477   0.786  13.749  0.5360 -0.8807  1.0228
10123TIP3   OH251859   2.748   5.373   1.060 -0.3234 -0.2279 -0.4250
10123TIP3    H151860   2.742   5.369   1.155 -0.9326 -0.7971 -0.4806
10123TIP3    H251861   2.692   5.302   1.029 -0.5671  0.2953 -1.2202
10124TIP3   OH251862   2.185   0.787   2.667 -0.0967 -0.3070  0.2215
10124TIP3    H151863   2.253   0.729   2.702  1.4992  0.7015 -1.0327
10124TIP3    H251864   2.229   0.871   2.656 -1.1342  0.0176 -1.9446
10125TIP3   OH251865   3.101   4.616   2.874  0.1257  0.5368 -0.0362
10125TIP3    H151866   3.024   4.672   2.888  0.3168  0.6201  0.7475
10125TIP3    H251867   3.135   4.601   2.962  0.5083 -0.2087 -0.3051
10126TIP3   OH251868   4.520   2.969  11.750  0.1455 -0.0034 -0.1909
10126TIP3    H151869   4.577   2.904  11.708  0.2196  0.3937 -0.7240
10126TIP3    H251870   4.432   2.931  11.744  0.0767  0.2938 -1.2220
10127TIP3   OH251871   5.361   3.545   4.594  0.3685  1.0195  0.1825
10127TIP3    H151872   5.294   3.495   4.548  1.5784 -0.7909  0.2790
10127TIP3    H251873   5.440   3.532   4.543  1.1814  1.0681  1.3986
10128TIP3   OH251874   0.026   2.753  14.000  0.6091 -0.6626 -0.2451
10128TIP3    H151875   0.087   2.685  14.029  1.6192  0.8287  1.2688
10128TIP3    H251876  -0.056   2.733  14.046  1.3077 -0.0902  1.2862
10129TIP3   OH251877   2.722   0.871   5.240  0.0978  0.0100  0.8078
10129TIP3    H151878   2.793   0.835   5.186 -0.9124 -0.0111 -0.5710
10129TIP3    H251879   2.678   0.795   5.277 -2.0344 -0.3651 -2.0994
10130TIP3   OH251880   3.070   4.479   5.093  0.0757  0.4722 -0.0066
10130TIP3    H151881   3.120   4.403   5.124  0.3412  0.8682  0.5703
10130TIP3    H251882   2.980   4.449   5.091  0.1593  0.1780  0.3577
10131TIP3   OH251883   0.585   4.456  12.612  0.2798 -0.0665  0.2488
10131TIP3    H151884   0.514   4.518  12.599  0.2224 -0.0739  0.5304
10131TIP3    H251885   0.551   4.393  12.676  0.3886 -0.3058  0.0767
10132TIP3   OH251886   6.389   6.588   2.597 -0.3492 -0.0326 -0.1293
10132TIP3    H151887   6.305   6.608   2.639  0.2077 -0.4856  1.2767
10132TIP3    H251888   6.425   6.517   2.650  1.1740  0.5279 -0.3647
10133TIP3   OH251889   0.592   1.346   1.955  0.1162 -0.5493 -0.4217
10133TIP3    H151890   0.562   1.399   2.028  1.0637  0.4227 -0.7200
10133TIP3    H251891   0.659   1.288   1.993 -0.7238 -1.3809 -0.1544
10134TIP3   OH251892   2.533   3.283   5.479 -0.0595 -0.3747  0.6458
10134TIP3    H151893   2.584   3.362   5.462 -0.8178  0.1466  0.7193
10134TIP3    H251894   2.539   3.233   5.397  0.8385 -0.4882  0.7710
10135TIP3   OH251895   3.098   1.707  12.570  0.2014 -0.0077 -0.2298
10135TIP3    H151896   3.154   1.778  12.601 -1.1434  0.3065  1.6739
10135TIP3    H251897   3.038   1.690  12.643  0.5982 -3.2733 -0.5218
10136TIP3   OH251898   5.637   1.323  15.915  0.3114  0.2119  0.4184
10136TIP3    H151899   5.663   1.398  15.968  3.0512  0.0890 -0.5731
10136TIP3    H251900   5.644   1.354  15.824 -0.5033 -0.6734  0.0316
10137TIP3   OH251901   2.456   0.456  13.686 -0.1327  0.6180 -0.2413
10137TIP3    H151902   2.536   0.403  13.682 -0.9239 -0.6687  0.5492
10137TIP3    H251903   2.446   0.489  13.597  0.7879  0.0596 -0.5742
10138TIP3   OH251904   3.666   4.373   0.156  0.6169  0.8851 -0.1030
10138TIP3    H151905   3.742   4.341   0.205 -0.3510 -1.0384  0.1913
10138TIP3    H251906   3.595   4.375   0.220  0.3079  2.4327 -0.4408
10139TIP3   OH251907   1.849   2.040   4.158  0.6784 -0.1318 -0.3505
10139TIP3    H151908   1.775   2.087   4.119  0.0146 -0.1263  0.8331
10139TIP3    H251909   1.902   2.011   4.084 -0.2818  0.2488 -1.2119
10140TIP3   OH251910   2.765   3.126   5.496 -0.0256  0.2955 -0.2759
10140TIP3    H151911   2.745   3.074   5.418  1.2342  0.2658 -0.5953
10140TIP3    H251912   2.785   3.213   5.463 -0.4941  0.5552  0.1121
10141TIP3   OH251913   2.844   5.252   6.149 -0.1882  0.1025  1.0548
10141TIP3    H151914   2.777   5.232   6.084 -1.3915  2.4356  1.4440
10141TIP3    H251915   2.897   5.320   6.107  0.7907 -0.3848  1.4735
10142TIP3   OH251916   6.781   1.950  15.661 -0.0629 -0.2535 -0.0227
10142TIP3    H151917   6.778   2.033  15.614  1.7088 -0.4099 -0.4538
10142TIP3    H251918   6.695   1.944  15.704 -1.0531  0.7403 -1.7448
10143TIP3   OH251919   5.765   4.334   4.468 -0.1515  0.1605  0.0993
10143TIP3    H151920   5.679   4.368   4.442 -0.1916  0.4085  0.5482
10143TIP3    H251921   5.819   4.343   4.389  0.3859  3.1064  0.6747
10144TIP3   OH251922   2.165   3.553   0.200 -0.6124  0.3252 -0.1979
10144TIP3    H151923   2.200   3.569   0.112  2.0590  1.6562  1.0150
10144TIP3    H251924   2.075   3.587   0.196 -0.5368  0.4026 -2.3767
10145TIP3   OH251925   3.877   5.939   4.895  0.8416  0.5332 -0.0139
10145TIP3    H151926   3.791   5.953   4.936  0.2349 -1.1165 -0.6272
10145TIP3    H251927   3.862   5.959   4.802  1.4301  1.3125  0.0481
10146TIP3   OH251928   1.286   5.009   3.296  0.3790 -0.0322 -0.1627
10146TIP3    H151929   1.275   5.036   3.205 -0.6619  2.3985  0.5999
10146TIP3    H251930   1.205   5.036   3.339  1.8353  1.2942  1.9830
10147TIP3   OH251931   1.957   3.267   5.243  0.1365 -0.2700  0.5028
10147TIP3    H151932   2.018   3.341   5.250  0.0939 -0.2679  0.8907
10147TIP3    H251933   2.000   3.206   5.184 -1.3410  1.5485 -2.7402
10148TIP3   OH251934   5.610   6.486  11.970  0.4868  0.2332  0.4191
10148TIP3    H151935   5.621   6.578  11.993  0.6932 -0.0792  1.6526
10148TIP3    H251936   5.516   6.470  11.977  0.6344 -0.0786  2.0331
10149TIP3   OH251937   4.933   2.745   5.388 -0.2993  0.3244  0.0345
10149TIP3    H151938   4.862   2.802   5.418 -1.3227 -1.0493  0.3120
10149TIP3    H251939   4.893   2.690   5.321  0.3687 -0.7898  0.5131
10150TIP3   OH251940   2.031   1.211   4.962  0.2719  0.2425  0.0030
10150TIP3    H151941   2.010   1.283   5.022  0.5659  0.2723  0.0709
10150TIP3    H251942   2.104   1.243   4.910 -0.7610  0.6771 -1.2213
10151TIP3   OH251943   2.821   2.141   2.666 -0.2058  0.0656 -0.3195
10151TIP3    H151944   2.769   2.193   2.604 -0.8738  0.1460  0.2894
10151TIP3    H251945   2.908   2.181   2.663 -0.1396 -0.1258 -1.4234
10152TIP3   OH251946   5.305   3.831  12.584 -0.2519  0.4401  0.3082
10152TIP3    H151947   5.391   3.874  12.585 -0.3349  0.6122  1.1472
10152TIP3    H251948   5.319   3.750  12.633 -0.4926  0.3110  0.1619
10153TIP3   OH251949   3.755   4.343   2.669 -0.2726  0.2605 -0.5711
10153TIP3    H151950   3.678   4.307   2.626 -0.9460  1.5946 -0.5409
10153TIP3    H251951   3.734   4.436   2.682  0.7595  0.3383  0.7318
10154TIP3   OH251952   4.868   4.981   4.220 -0.0292  0.3172  0.1600
10154TIP3    H151953   4.805   5.053   4.210  2.5454  2.9892  1.6042
10154TIP3    H251954   4.862   4.958   4.313  0.4703 -0.0132  0.1098
10155TIP3   OH251955   0.264   6.171   5.691  0.2286 -0.0204 -0.2462
10155TIP3    H151956   0.249   6.254   5.646  1.2679 -0.4046 -1.3686
10155TIP3    H251957   0.178   6.147   5.726 -0.4534  0.6918 -1.3536
10156TIP3   OH251958   2.804   4.657   3.894 -0.1889  0.2002  0.6354
10156TIP3    H151959   2.861   4.627   3.965  0.5931  0.5517  0.1621
10156TIP3    H251960   2.847   4.736   3.860 -1.2871  0.8399  0.6869
10157TIP3   OH251961   2.937   3.233  14.300  0.1954 -0.0376 -0.0397
10157TIP3    H151962   2.851   3.216  14.263 -0.9093  1.9237  1.4100
10157TIP3    H251963   2.955   3.325  14.277  1.6883 -0.2786  0.0740
10158TIP3   OH251964   0.455   0.673  16.097 -0.4969 -0.3381 -0.1916
10158TIP3    H151965   0.393   0.700  16.029  0.4608  1.1012 -0.5322
10158TIP3    H251966   0.435   0.580  16.112 -2.1447 -0.1391 -0.8972
10159TIP3   OH251967   6.217   3.101  12.093 -0.9744 -0.2245  0.1449
10159TIP3    H151968   6.187   3.040  12.160 -0.1835  1.6971  2.3572
10159TIP3    H251969   6.139   3.151  12.068 -1.0803 -0.2819  0.3615
10160TIP3   OH251970   0.396   2.437  13.149 -0.5133 -0.6382  0.1279
10160TIP3    H151971   0.399   2.516  13.095  0.1842  0.4925  1.7584
10160TIP3    H251972   0.487   2.419  13.170 -0.5098 -2.6999 -1.2656
10161TIP3   OH251973   6.191   1.904   1.902  0.5149  0.0372  0.5625
10161TIP3    H151974   6.177   1.885   1.809 -1.2321  1.2205  0.5265
10161TIP3    H251975   6.281   1.937   1.906  1.0331 -1.1676 -0.4985
10162TIP3   OH251976   3.223   5.769  15.093  1.0074  0.0126  0.2985
10162TIP3    H151977   3.251   5.850  15.049 -0.6188  1.2955  1.4646
10162TIP3    H251978   3.303   5.721  15.109  2.2924  2.3243  1.3127
10163TIP3   OH251979   3.830   3.136   4.255 -0.1194 -0.7146 -0.2997
10163TIP3    H151980   3.856   3.044   4.247  0.2437 -1.0156  2.8942
10163TIP3    H251981   3.882   3.169   4.329 -0.9442  1.8018 -0.7440
10164TIP3   OH251982   4.587   0.778  15.810  0.2891  0.3169  0.1773
10164TIP3    H151983   4.624   0.710  15.866  1.3680 -0.0806 -0.9557
10164TIP3    H251984   4.645   0.780  15.733  1.1491  3.4790  0.7633
10165TIP3   OH251985   2.389   0.363  10.911  0.3855  0.1026  0.3173
10165TIP3    H151986   2.473   0.348  10.867 -1.4806 -0.6272 -3.4753
10165TIP3    H251987   2.334   0.290  10.883 -1.9466  1.3327  1.3847
10166TIP3   OH251988   4.472   5.314  15.901 -0.1178  0.1455  0.6232
10166TIP3    H151989   4.514   5.277  15.824  0.0934  2.1135 -0.2601
10166TIP3    H251990   4.391   5.263  15.911 -0.2192 -0.0572 -0.9742
10167TIP3   OH251991   6.514   5.617  16.988 -0.3392 -0.1652  0.2134
10167TIP3    H151992   6.524   5.633  17.082 -1.6253 -2.4311  0.8138
10167TIP3    H251993   6.602   5.593  16.958 -0.3219 -1.5925  1.3325
10168TIP3   OH251994   5.248   0.675   5.152  0.4732  0.0218  1.0202
10168TIP3    H151995   5.285   0.670   5.064 -0.6075  0.5138  0.5156
10168TIP3    H251996   5.316   0.716   5.205  1.0700 -0.1238  0.3804
10169TIP3   OH251997   3.565   0.112  15.894 -0.3351  0.9224 -0.3993
10169TIP3    H151998   3.619   0.188  15.873 -0.4303  0.6582 -1.6937
10169TIP3    H251999   3.487   0.149  15.935 -0.0424  1.4499 -0.3021
10170TIP3   OH252000   5.588   6.426   1.744  0.0281  0.1685  0.5532
10170TIP3    H152001   5.642   6.442   1.821  2.4278  1.1536 -1.2105
10170TIP3    H252002   5.572   6.332   1.745  1.8057 -0.1588  1.1623
10171TIP3   OH252003   0.339   4.950   5.123 -0.4158 -0.5510  0.0250
10171TIP3    H152004   0.308   5.039   5.109  0.1222 -0.1674  1.1768
10171TIP3    H252005   0.379   4.952   5.209 -1.1139 -2.1051  0.4157
10172TIP3   OH252006   4.055   0.204  15.363 -0.0550 -0.2062 -0.1818
10172TIP3    H152007   4.106   0.142  15.312  1.6836  0.1795  1.0220
10172TIP3    H252008   4.074   0.184  15.454 -1.1366  0.7255  0.2869
10173TIP3   OH252009   1.456   4.320   2.221 -0.2676  0.1595 -0.4885
10173TIP3    H152010   1.423   4.258   2.156 -0.4203 -0.7132  0.4059
10173TIP3    H252011   1.477   4.399   2.170 -0.3711 -0.5062 -1.5939
10174TIP3   OH252012   1.755   1.916   1.014 -0.8414  0.1078  0.0894
10174TIP3    H152013   1.845   1.943   1.031 -0.9548 -0.2973  1.5186
10174TIP3    H252014   1.717   1.989   0.965  0.9067 -0.7487 -2.8112
10175TIP3   OH252015   5.090   0.458   2.816 -0.2763  0.0174  0.5720
10175TIP3    H152016   5.014   0.493   2.771  1.3266 -0.3237 -2.7184
10175TIP3    H252017   5.104   0.371   2.777  2.9403  0.9179 -0.6789
10176TIP3   OH252018   3.564   3.227   2.289  0.4003  0.3493 -0.1041
10176TIP3    H152019   3.556   3.299   2.226  0.0379 -0.0318 -0.4930
10176TIP3    H252020   3.497   3.165   2.264  0.9346 -0.2897  0.0211
10177TIP3   OH252021   2.394   4.565   4.248  0.3787  0.1663 -0.3592
10177TIP3    H152022   2.455   4.564   4.175  1.2307  0.0064  0.3439
10177TIP3    H252023   2.421   4.491   4.302  0.6349  1.1198  0.8365
10178TIP3   OH252024   0.036   2.457   5.493 -0.4244 -0.0407 -0.2630
10178TIP3    H152025   0.090   2.533   5.513 -1.4391  0.6197  0.0700
10178TIP3    H252026   0.035   2.451   5.398 -0.5466  0.5328 -0.2990
10179TIP3   OH252027   0.545   5.560   2.607  0.0996  0.0846  0.0666
10179TIP3    H152028   0.530   5.466   2.599  0.1548  0.0478  0.3599
10179TIP3    H252029   0.559   5.574   2.701  0.5633  0.3151 -0.0334
10180TIP3   OH252030   5.512   5.709  10.856 -0.0599  0.3083 -0.4059
10180TIP3    H152031   5.433   5.758  10.879 -0.0479  0.0617  0.1703
10180TIP3    H252032   5.568   5.773  10.812  0.0639  0.8929  0.5728
10181TIP3   OH252033   0.454   4.601   4.804  0.8547  0.0808 -0.1265
10181TIP3    H152034   0.388   4.632   4.866  0.3694 -1.4549  0.1583
10181TIP3    H252035   0.537   4.630   4.842  0.4964  0.0254  0.7253
10182TIP3   OH252036   0.023   1.863  14.637 -0.0199 -0.1659  0.5151
10182TIP3    H152037   0.061   1.840  14.552  1.9570 -0.9043  1.5414
10182TIP3    H252038   0.092   1.846  14.700 -1.9932 -1.3600  2.5195
10183TIP3   OH252039   4.092   1.864  14.171  0.0228  0.0912  0.1918
10183TIP3    H152040   4.046   1.791  14.128 -1.4601  1.5613 -0.8507
10183TIP3    H252041   4.061   1.942  14.125  2.5879  1.3066  0.3931
10184TIP3   OH252042   4.909   4.065   5.684  0.0253  0.3947 -0.0864
10184TIP3    H152043   4.821   4.047   5.652  0.1207 -1.5700  0.6155
10184TIP3    H252044   4.928   4.154   5.653 -1.6910  0.3811 -1.3427
10185TIP3   OH252045   1.820   3.243   5.469 -0.4369  0.3736  0.1394
10185TIP3    H152046   1.889   3.245   5.535 -0.2472 -0.0487 -0.0429
10185TIP3    H252047   1.866   3.246   5.386 -0.6765  0.9356  0.0217
10186TIP3   OH252048   5.841   1.480   4.125 -0.2541  0.3647  0.4778
10186TIP3    H152049   5.782   1.426   4.178 -0.3573 -0.3027 -0.2917
10186TIP3    H252050   5.929   1.456   4.154 -0.2661 -0.8354 -0.4079
10187TIP3   OH252051   3.601   3.388   5.835  0.5120 -0.2606 -0.1410
10187TIP3    H152052   3.663   3.446   5.879  1.4720 -1.2345 -0.1802
10187TIP3    H252053   3.584   3.431   5.751 -2.0049  2.0700  1.3652
10188TIP3   OH252054   4.777   6.529  14.346  0.1767  0.4969  0.0522
10188TIP3    H152055   4.699   6.542  14.292 -0.7114 -0.5840  1.0278
10188TIP3    H252056   4.841   6.489  14.286  0.3641  2.3080 -1.0081
10189TIP3   OH252057   2.952   1.420   2.029  0.7219  0.5984 -0.1670
10189TIP3    H152058   2.878   1.453   2.080  0.4506 -0.4688  0.1732
10189TIP3    H252059   2.993   1.498   1.992 -1.4433  1.1657 -1.5974
10190TIP3   OH252060   3.227   5.206   6.964 -0.6352 -0.1196 -0.3410
10190TIP3    H152061   3.312   5.216   7.005 -0.2945 -1.4840 -0.6520
10190TIP3    H252062   3.217   5.285   6.910  1.1685 -0.6639 -1.5642
10191TIP3   OH252063   6.571   3.555  15.921  0.3959  0.0829 -0.4326
10191TIP3    H152064   6.530   3.494  15.982 -0.1967 -0.1004 -1.0005
10191TIP3    H252065   6.565   3.640  15.964 -1.7689  0.2785 -1.0539
10192TIP3   OH252066   1.752   1.265  15.334  0.2281 -0.3627  0.0884
10192TIP3    H152067   1.682   1.306  15.385  1.0713  0.8952  0.2747
10192TIP3    H252068   1.717   1.179  15.310 -1.7735  0.6302 -0.7028
10193TIP3   OH252069   1.687   1.689  14.645 -0.4326  0.5247 -0.7120
10193TIP3    H152070   1.607   1.645  14.614 -0.7254 -0.2788  1.0826
10193TIP3    H252071   1.757   1.625  14.629 -0.5790  0.1226  0.2066
10194TIP3   OH252072   3.085   4.107   2.516  0.3150 -0.1122 -0.0709
10194TIP3    H152073   3.104   4.175   2.451 -0.3985  0.9682  0.8103
10194TIP3    H252074   3.145   4.036   2.495 -1.2199 -0.6815 -3.1947
10195TIP3   OH252075   5.341   5.590  11.577  0.5053  0.2220 -0.0617
10195TIP3    H152076   5.408   5.604  11.511 -0.1388 -0.7444 -0.9622
10195TIP3    H252077   5.369   5.511  11.623 -0.7175 -1.0955 -1.4496
10196TIP3   OH252078   4.525   4.532  11.428 -0.3399 -0.4122  0.1567
10196TIP3    H152079   4.429   4.528  11.425 -0.4685  0.9537  1.2565
10196TIP3    H252080   4.552   4.513  11.339 -1.7236  0.8375 -0.5748
10197TIP3   OH252081   0.973   5.324  15.576 -0.3245 -0.8426  0.6387
10197TIP3    H152082   0.914   5.393  15.605  0.2166  0.1158 -0.4592
10197TIP3    H252083   1.059   5.350  15.608  0.1498 -0.1550 -1.0882
10198TIP3   OH252084   1.422   1.374  16.251  0.1312 -0.2854 -0.1080
10198TIP3    H152085   1.327   1.384  16.259 -0.2937 -2.2388 -1.7595
10198TIP3    H252086   1.453   1.462  16.231 -1.4230  0.2773 -0.2376
10199TIP3   OH252087   6.430   2.050  16.928  0.2345  0.7248  0.1005
10199TIP3    H152088   6.475   2.129  16.898  0.7705  1.1834  1.9759
10199TIP3    H252089   6.342   2.056  16.889  1.3248  0.4238 -2.6122
10200TIP3   OH252090   6.477   2.053   6.593  0.2570  0.1497  0.1635
10200TIP3    H152091   6.559   2.096   6.616  0.3026  1.8379 -2.5863
10200TIP3    H252092   6.504   1.974   6.546  0.2918  0.0646  0.3276
10201TIP3   OH252093   1.638   1.794  13.886  0.3437 -0.1329 -0.1424
10201TIP3    H152094   1.677   1.730  13.946  0.0308  0.0675  0.2773
10201TIP3    H252095   1.569   1.837  13.937 -0.7030 -0.7464 -0.9861
10202TIP3   OH252096   1.760   2.158  11.630 -0.7653  0.1181 -0.0230
10202TIP3    H152097   1.724   2.244  11.611 -0.7799  0.5912  1.9073
10202TIP3    H252098   1.846   2.159  11.587 -2.0314 -0.2118 -2.8056
10203TIP3   OH252099   6.127   4.136   0.787  0.3449 -0.2097  0.0460
10203TIP3    H152100   6.141   4.155   0.695 -0.4655 -2.2264 -0.5651
10203TIP3    H252101   6.215   4.138   0.826  0.7009  0.5997 -0.7727
10204TIP3   OH252102   5.027   1.171   2.402 -0.3351 -0.0100 -0.2061
10204TIP3    H152103   5.072   1.091   2.428  1.0774  0.3485 -1.4496
10204TIP3    H252104   4.934   1.147   2.403  0.0870 -1.8779 -1.1959
10205TIP3   OH252105   6.758   3.738  15.101  0.0828 -0.3960 -0.3201
10205TIP3    H152106   6.807   3.809  15.141 -1.3962  0.9724 -0.8178
10205TIP3    H252107   6.690   3.717  15.166  0.0343 -0.8341 -0.5057
10206TIP3   OH252108   3.370   3.169  11.899 -0.0445 -0.1260 -0.2675
10206TIP3    H152109   3.318   3.227  11.954  1.3326  1.4938 -0.5890
10206TIP3    H252110   3.344   3.190  11.809 -1.3484 -1.8469 -0.3480
10207TIP3   OH252111   3.923   3.740   3.013 -0.3597  0.6143  0.1479
10207TIP3    H152112   3.968   3.825   3.011 -0.7003  0.8656 -3.5541
10207TIP3    H252113   3.952   3.696   2.934 -4.6895 -0.2037 -1.2554
10208TIP3   OH252114   4.030   4.235  12.590 -0.3537 -0.0909 -0.1788
10208TIP3    H152115   4.052   4.296  12.660  0.5600 -0.0546 -0.4811
10208TIP3    H252116   4.000   4.156  12.635 -2.2437  0.7903  0.2095
10209TIP3   OH252117   4.617   5.947   3.721 -0.1433 -0.2872 -0.3353
10209TIP3    H152118   4.607   5.989   3.807  0.4898 -0.1082 -0.3448
10209TIP3    H252119   4.662   5.864   3.741  0.3772 -0.0550 -0.5389
10210TIP3   OH252120   2.249   0.099  16.773 -0.3397 -0.0797  0.3815
10210TIP3    H152121   2.302   0.129  16.700  0.4137 -0.1401  0.8942
10210TIP3    H252122   2.210   0.178  16.810  1.9301  0.3787  1.9612
10211TIP3   OH252123   4.150   6.560   0.398  0.4205  0.1110  0.3859
10211TIP3    H152124   4.112   6.647   0.392 -1.4443 -0.6922  0.1013
10211TIP3    H252125   4.089   6.510   0.452  1.8082 -0.8485  1.1299
10212TIP3   OH252126   2.549   6.682  16.805  0.4331 -0.5907 -0.4784
10212TIP3    H152127   2.513   6.760  16.762  1.7097  0.3099  0.0341
10212TIP3    H252128   2.474   6.623  16.814 -0.7483  0.9162 -0.0944
10213TIP3   OH252129   1.594   3.591   1.534  0.4931 -0.4028 -0.0330
10213TIP3    H152130   1.647   3.515   1.507  0.4853 -0.8619  1.1792
10213TIP3    H252131   1.522   3.593   1.470  0.3526 -1.5743  0.0566
10214TIP3   OH252132   1.590   5.441  14.659 -0.4286 -0.1626  0.2971
10214TIP3    H152133   1.658   5.504  14.638 -2.1674  1.7132 -0.0446
10214TIP3    H252134   1.544   5.479  14.735  0.3665 -2.5827  2.1257
10215TIP3   OH252135   4.653   4.778   0.827  0.5074  0.3427  0.1972
10215TIP3    H152136   4.659   4.867   0.791  1.2353 -0.2589 -1.2512
10215TIP3    H252137   4.568   4.776   0.871 -0.8263  0.9485 -2.1577
10216TIP3   OH252138   1.597   3.259   2.980 -0.6733  0.2759  0.4548
10216TIP3    H152139   1.549   3.177   2.984 -0.4199  0.0630 -0.6307
10216TIP3    H252140   1.544   3.316   2.925 -0.6877  0.7430  0.9351
10217TIP3   OH252141   4.314   2.377   3.130 -0.0122  0.0587  0.1418
10217TIP3    H152142   4.332   2.306   3.191 -0.0787  0.1864  0.3108
10217TIP3    H252143   4.279   2.448   3.184  1.9563  0.9785  0.2887
10218TIP3   OH252144   3.020   3.277   4.680  0.1422  0.2555 -0.3332
10218TIP3    H152145   3.039   3.287   4.774 -1.5507  0.5065  0.0240
10218TIP3    H252146   3.086   3.216   4.648  0.2038 -0.5314  1.2166
10219TIP3   OH252147   3.568   5.163   1.452  0.3537  0.1864  0.3407
10219TIP3    H152148   3.512   5.199   1.383 -0.3267 -1.6360 -0.1069
10219TIP3    H252149   3.531   5.077   1.470  2.2190 -0.5224  0.9927
10220TIP3   OH252150   1.848   3.811   4.365  0.2686  0.5634 -0.0409
10220TIP3    H152151   1.887   3.771   4.286 -3.0280 -1.2375 -0.9662
10220TIP3    H252152   1.771   3.857   4.333 -0.5207  0.7748  2.0058
10221TIP3   OH252153   5.236   6.507   6.373  0.1241  0.0193 -0.3661
10221TIP3    H152154   5.330   6.504   6.392  0.1811  2.7284  0.2282
10221TIP3    H252155   5.228   6.573   6.304 -1.4163  0.6634  0.3705
10222TIP3   OH252156   2.957   3.862   5.886 -0.1409  0.8743  0.5293
10222TIP3    H152157   2.895   3.932   5.905  0.0379  0.9402  0.8775
10222TIP3    H252158   2.957   3.808   5.966  0.5635  1.1121  0.6945
10223TIP3   OH252159   4.723   2.337   6.214 -0.8324 -0.1547  0.2472
10223TIP3    H152160   4.807   2.299   6.190 -0.2378  0.8505  0.6929
10223TIP3    H252161   4.740   2.388   6.293 -1.4167  1.6469 -0.7340
10224TIP3   OH252162   2.584   6.696  13.368  0.7885 -0.4293 -0.7561
10224TIP3    H152163   2.503   6.646  13.379  1.6617 -2.2030 -1.9561
10224TIP3    H252164   2.589   6.750  13.447 -0.6077 -1.6783  0.2450
10225TIP3   OH252165   1.719   0.192   5.797 -0.6414  0.2754  0.0293
10225TIP3    H152166   1.713   0.143   5.879 -1.5694 -1.0911 -0.8245
10225TIP3    H252167   1.686   0.279   5.819  1.0926  0.6050  1.5897
10226TIP3   OH252168   4.382   2.709  14.210 -0.0778 -0.3616 -0.0801
10226TIP3    H152169   4.437   2.646  14.258  0.3517 -1.2102 -1.6036
10226TIP3    H252170   4.296   2.666  14.206  0.2013 -0.8437 -1.0735
10227TIP3   OH252171   0.316   2.688  13.400 -0.3099  0.2495 -0.5554
10227TIP3    H152172   0.224   2.660  13.397  0.0097 -0.7457 -2.3407
10227TIP3    H252173   0.315   2.768  13.452 -2.6042  1.6989 -2.6129
10228TIP3   OH252174   5.503   3.296   5.088 -0.5116 -0.2869 -0.1475
10228TIP3    H152175   5.531   3.363   5.150  1.5964 -0.4041 -0.8921
10228TIP3    H252176   5.499   3.340   5.003  1.2896 -1.1205 -0.7172
10229TIP3   OH252177   0.106   3.617   5.285 -0.0547  0.3701 -0.6742
10229TIP3    H152178   0.124   3.560   5.210 -0.7849  0.3131 -0.8068
10229TIP3    H252179   0.159   3.580   5.356 -0.3496 -0.3406 -0.8187
10230TIP3   OH252180   3.635   2.607  13.455  0.2743 -0.1286  0.3311
10230TIP3    H152181   3.726   2.589  13.432  0.0053  0.4935 -1.4385
10230TIP3    H252182   3.635   2.699  13.482  0.1341 -0.0370  0.0256
10231TIP3   OH252183   4.635   6.178   3.415  0.2751 -0.3203 -0.2413
10231TIP3    H152184   4.561   6.119   3.406 -0.9371  1.1102 -0.1477
10231TIP3    H252185   4.710   6.129   3.382 -0.4135 -2.3628  1.0324
10232TIP3   OH252186   4.142   0.928   5.205  0.2352 -0.8117 -0.1118
10232TIP3    H152187   4.094   0.956   5.283  0.3497  0.6036 -0.5212
10232TIP3    H252188   4.104   0.981   5.134  0.9931 -1.1654 -0.7880
10233TIP3   OH252189   6.684   1.555   0.763 -0.3703  0.1152 -0.0701
10233TIP3    H152190   6.767   1.580   0.723 -0.8373  0.0311 -1.1127
10233TIP3    H252191   6.654   1.479   0.712 -1.1660  0.2490  0.1792
10234TIP3   OH252192   0.524   0.643  13.516 -0.4216 -0.3188  0.4988
10234TIP3    H152193   0.541   0.704  13.445 -0.2880 -1.4704 -0.4815
10234TIP3    H252194   0.428   0.638  13.521 -0.4320 -0.4977  0.1570
10235TIP3   OH252195   0.993   4.689  14.561 -0.0680 -0.3753  0.7686
10235TIP3    H152196   0.960   4.600  14.549  0.7267 -0.4921 -0.9060
10235TIP3    H252197   1.003   4.699  14.655 -1.7532 -1.4577  1.1039
10236TIP3   OH252198   2.221   2.729  11.941  0.1533 -0.0333 -0.1234
10236TIP3    H152199   2.265   2.658  11.894 -0.3255  0.0412 -0.6991
10236TIP3    H252200   2.129   2.704  11.940  0.0600  0.3012  0.1965
10237TIP3   OH252201   4.007   1.083  11.196  0.5022 -0.2114 -0.3010
10237TIP3    H152202   3.948   1.101  11.123 -1.8721  0.4791  1.6678
10237TIP3    H252203   4.029   0.990  11.186 -0.2858 -0.2884 -1.5349
10238TIP3   OH252204   4.865   5.698   3.424  0.4742  0.0646  0.1991
10238TIP3    H152205   4.846   5.626   3.364 -0.4616 -1.0108  1.7291
10238TIP3    H252206   4.781   5.743   3.437  0.5558 -0.0059  1.0529
10239TIP3   OH252207   4.740   3.284  16.263 -0.4064  0.0975  0.3033
10239TIP3    H152208   4.760   3.288  16.170 -0.0426 -0.1224  0.3687
10239TIP3    H252209   4.685   3.360  16.280 -1.4908 -0.5162 -0.3344
10240TIP3   OH252210   6.702   0.795  11.514 -0.1833 -0.0678  0.7136
10240TIP3    H152211   6.790   0.763  11.535 -0.0862 -1.3463 -1.4150
10240TIP3    H252212   6.716   0.864  11.450 -0.7290 -0.1358  0.5167
10241TIP3   OH252213   5.352   5.847   2.583 -0.3940 -0.1961  0.7750
10241TIP3    H152214   5.316   5.831   2.496 -0.8208 -0.7793  1.0510
10241TIP3    H252215   5.305   5.786   2.640  0.4712 -0.4081  1.2777
10242TIP3   OH252216   3.279   1.317   4.346  0.0995  0.3568 -0.1269
10242TIP3    H152217   3.264   1.407   4.375 -2.6965  0.0837 -0.4032
10242TIP3    H252218   3.202   1.296   4.293  0.7167 -2.1829 -0.1466
10243TIP3   OH252219   4.351   1.460  13.445 -0.2479 -0.0176  0.0534
10243TIP3    H152220   4.296   1.538  13.446  0.8894  0.8123  0.4821
10243TIP3    H252221   4.405   1.470  13.366 -0.1459 -0.3992  0.0733
10244TIP3   OH252222   3.888   2.497   4.010 -0.6075 -0.4039  0.1849
10244TIP3    H152223   3.936   2.515   3.930 -1.2251 -0.8102 -0.2851
10244TIP3    H252224   3.956   2.491   4.078 -0.0276 -0.6214 -0.4041
10245TIP3   OH252225   6.044   1.402  10.996  0.7193 -0.1272  0.0341
10245TIP3    H152226   6.133   1.422  10.964 -0.0016  0.6048 -1.6503
10245TIP3    H252227   5.997   1.374  10.917 -0.6868  0.0049  0.8067
10246TIP3   OH252228   0.242   6.222   3.846  0.4922 -0.3647 -0.1021
10246TIP3    H152229   0.335   6.203   3.844  0.4722 -0.4769  0.0055
10246TIP3    H252230   0.233   6.307   3.802  0.7261 -0.0256  0.4840
10247TIP3   OH252231   6.714   3.664  11.336  0.4378  0.2651 -0.1267
10247TIP3    H152232   6.797   3.662  11.384  0.1701  0.8102  0.3745
10247TIP3    H252233   6.733   3.618  11.254  1.0465 -0.2212  0.2715
10248TIP3   OH252234   4.370   5.570   2.430  0.1121 -0.0968  0.2710
10248TIP3    H152235   4.323   5.541   2.352  0.7229  0.1576 -0.1923
10248TIP3    H252236   4.329   5.520   2.502  0.7123 -1.6594 -0.4235
10249TIP3   OH252237   2.813   1.015  10.502 -0.1262  0.5970 -0.4811
10249TIP3    H152238   2.835   0.922  10.508 -0.8616  0.3503 -1.3609
10249TIP3    H252239   2.887   1.053  10.454  0.2553  0.5060  0.0248
10250TIP3   OH252240   1.687   4.065   2.947  0.3734 -0.7815 -0.3260
10250TIP3    H152241   1.611   4.123   2.938 -0.0992 -1.1587  1.0885
10250TIP3    H252242   1.713   4.047   2.856 -2.0569 -1.7229 -0.9346
10251TIP3   OH252243   3.275   0.431   1.928  0.5274 -0.0266  0.9208
10251TIP3    H152244   3.187   0.463   1.908  1.2833  1.1443 -0.7443
10251TIP3    H252245   3.324   0.509   1.953  2.1181  0.1478 -2.1642
10252TIP3   OH252246   4.215   1.569   0.202 -0.0829 -0.4365 -0.1156
10252TIP3    H152247   4.200   1.646   0.258 -0.3721 -0.2415 -0.4604
10252TIP3    H252248   4.185   1.495   0.255  1.6210 -0.5048  0.8405
10253TIP3   OH252249   0.235   0.213   0.654 -0.4569 -0.2133 -0.2999
10253TIP3    H152250   0.204   0.296   0.689  0.9222  0.1649  0.0723
10253TIP3    H252251   0.277   0.236   0.572 -0.1633 -0.5535 -0.2467
10254TIP3   OH252252   2.207   0.196   5.462 -0.2637 -0.1117 -0.1354
10254TIP3    H152253   2.122   0.226   5.492 -0.9932  0.4359 -2.5343
10254TIP3    H252254   2.194   0.104   5.439 -0.1641 -0.0951 -0.2635
10255TIP3   OH252255   4.193   4.289   1.241  0.3553 -0.2431 -0.1872
10255TIP3    H152256   4.281   4.253   1.255  0.2197 -0.1120  1.1093
10255TIP3    H252257   4.203   4.348   1.166  1.2416 -0.6733 -0.4233
10256TIP3   OH252258   4.187   0.508  14.733 -0.1465 -0.4730 -0.1382
10256TIP3    H152259   4.228   0.489  14.817 -1.3337 -0.8682  0.3815
10256TIP3    H252260   4.220   0.594  14.708  2.2583 -1.4510 -0.5702
10257TIP3   OH252261   1.194   6.704  15.110 -0.0117  0.1634  0.6976
10257TIP3    H152262   1.158   6.653  15.182  0.6719  1.6047  2.1173
10257TIP3    H252263   1.179   6.795  15.135 -0.2838  0.7191 -1.2685
10258TIP3   OH252264   6.684   6.543  13.981 -0.5738 -0.2788 -0.3393
10258TIP3    H152265   6.674   6.588  13.898  1.0535  0.9671  0.0892
10258TIP3    H252266   6.633   6.595  14.043  0.2746  0.2761 -0.0903
10259TIP3   OH252267   5.986   0.796   1.922  0.2917 -0.0764 -0.4201
10259TIP3    H152268   5.951   0.803   1.833 -0.9853  0.0514  0.0717
10259TIP3    H252269   5.910   0.772   1.976  1.5913 -3.2927  0.2135
10260TIP3   OH252270   0.381   4.361  11.360 -0.1484  0.5608 -0.1392
10260TIP3    H152271   0.436   4.283  11.362 -1.3495 -0.3108  0.2739
10260TIP3    H252272   0.319   4.348  11.433 -1.2419  1.2363 -0.9184
10261TIP3   OH252273   0.201   6.043  16.491 -0.6707  0.5261 -0.0366
10261TIP3    H152274   0.208   5.949  16.507 -0.6431  0.5339  0.0001
10261TIP3    H252275   0.156   6.051  16.407 -2.9768  0.5005  1.1070
10262TIP3   OH252276   0.912   1.641   0.917  0.2441  0.0457 -0.3563
10262TIP3    H152277   0.996   1.610   0.884  0.4324 -2.2035  1.9424
10262TIP3    H252278   0.934   1.692   0.995 -0.4890 -0.7967  0.4279
10263TIP3   OH252279   1.963   5.350  14.625 -0.5047  0.2591  0.0563
10263TIP3    H152280   1.907   5.332  14.701 -2.2738  0.6967 -1.0610
10263TIP3    H252281   1.926   5.430  14.587 -0.3062 -0.4573 -1.7811
10264TIP3   OH252282   2.391   4.458   2.318  0.3079  0.0440 -0.0105
10264TIP3    H152283   2.406   4.390   2.384  0.8598  0.4454  0.2806
10264TIP3    H252284   2.406   4.414   2.235 -0.4553 -0.4824  0.1178
10265TIP3   OH252285   1.812   3.559  13.924 -0.5467 -0.5983  0.3166
10265TIP3    H152286   1.906   3.541  13.917 -0.4129  0.4646 -0.9217
10265TIP3    H252287   1.773   3.473  13.938  0.4374 -1.3367 -1.1981
10266TIP3   OH252288   1.147   5.612  15.576  0.1615  0.8170  0.7459
10266TIP3    H152289   1.233   5.570  15.572 -0.4734 -0.7231  2.0981
10266TIP3    H252290   1.130   5.626  15.669 -1.1326  0.8877  0.5264
10267TIP3   OH252291   4.528   2.081  16.413  0.0717 -0.5359  0.0877
10267TIP3    H152292   4.503   2.174  16.415 -0.4866 -0.6869  1.2582
10267TIP3    H252293   4.534   2.059  16.320 -2.7795 -0.1014 -0.2906
10268TIP3   OH252294   1.945   6.440  12.516  0.3095  0.3287  0.2599
10268TIP3    H152295   1.880   6.375  12.543  1.4642 -1.2356 -0.5675
10268TIP3    H252296   2.025   6.415  12.563  0.7401  1.2479  0.0368
10269TIP3   OH252297   6.039   1.356  14.399  0.0069  0.2169  0.3050
10269TIP3    H152298   5.995   1.298  14.461 -0.3868  0.0195 -0.1498
10269TIP3    H252299   6.111   1.304  14.364  1.0491  0.7709  1.5603
10270TIP3   OH252300   4.943   1.071  12.022 -0.2565  0.2279 -0.3878
10270TIP3    H152301   4.910   1.029  11.943 -0.5552  0.2391 -0.2682
10270TIP3    H252302   4.893   1.152  12.029 -0.7487 -0.1272  0.2159
10271TIP3   OH252303   3.069   3.184   5.576 -0.4821 -0.4716 -0.1281
10271TIP3    H152304   3.051   3.105   5.525 -0.6044 -1.2069  1.0077
10271TIP3    H252305   2.984   3.228   5.582 -0.0861  0.6549 -2.1893
10272TIP3   OH252306   2.536   5.242  17.115  0.0512  0.5274 -0.0544
10272TIP3    H152307   2.552   5.252  17.209  2.6236  2.3056 -0.5760
10272TIP3    H252308   2.493   5.324  17.089  0.1233  0.4022 -0.5764
10273TIP3   OH252309   5.534   4.024   0.877 -0.0970  0.5879 -0.2155
10273TIP3    H152310   5.611   4.012   0.822  0.4062  1.5726  0.2620
10273TIP3    H252311   5.540   3.955   0.943 -0.5993 -0.4748 -1.2471
10274TIP3   OH252312   3.785   6.815   4.872  0.2712 -0.3619 -0.3034
10274TIP3    H152313   3.800   6.775   4.957 -1.5056  0.7805  0.6365
10274TIP3    H252314   3.691   6.801   4.856  0.4947 -0.1964 -1.8809
10275TIP3   OH252315   4.698   1.050   3.216  0.1990 -0.5967 -0.3582
10275TIP3    H152316   4.653   0.971   3.249 -1.1545  0.5225  0.6194
10275TIP3    H252317   4.631   1.095   3.165 -0.6664  2.2270  2.9203
10276TIP3   OH252318   5.346   2.263   1.072 -0.1089  0.0017 -0.0246
10276TIP3    H152319   5.273   2.317   1.041 -1.3357 -1.8781 -0.6422
10276TIP3    H252320   5.342   2.269   1.167 -1.2574 -0.2482 -0.0390
10277TIP3   OH252321   3.740   3.069  15.866  0.1385 -0.2087 -0.0070
10277TIP3    H152322   3.675   3.126  15.825  0.5491  0.8469  0.7753
10277TIP3    H252323   3.766   3.115  15.945  2.4111 -0.2427 -0.6683
10278TIP3   OH252324   5.028   2.862   4.518 -0.0327  1.2678  0.7576
10278TIP3    H152325   4.992   2.773   4.516  0.5292  1.0355  0.7257
10278TIP3    H252326   4.976   2.908   4.583  0.5680  0.5126  1.8045
10279TIP3   OH252327   1.906   6.017  11.205  0.4267  0.3043 -0.1488
10279TIP3    H152328   1.857   5.977  11.133 -0.8887  1.2224  0.1960
10279TIP3    H252329   1.967   5.950  11.233  0.4391 -0.3336 -1.6291
10280TIP3   OH252330   3.091   5.103   3.691 -0.1841 -0.1747  0.4904
10280TIP3    H152331   3.034   5.179   3.698 -0.5558 -0.5393  1.5504
10280TIP3    H252332   3.144   5.104   3.770 -0.2527 -1.0623  0.5631
10281TIP3   OH252333   3.575   1.945   6.040 -0.5065  0.3640 -0.7693
10281TIP3    H152334   3.525   1.984   6.111 -0.5979 -0.2435 -0.4879
10281TIP3    H252335   3.621   2.018   5.999  1.8546  0.4374  1.7172
10282TIP3   OH252336   0.434   4.773  16.222 -0.0717  0.0382  0.1017
10282TIP3    H152337   0.434   4.801  16.313 -0.1913 -0.3625  0.2280
10282TIP3    H252338   0.365   4.707  16.217 -0.9790  1.0111 -0.5784
10283TIP3   OH252339   5.029   1.121   0.680 -0.0392  0.2240 -0.0937
10283TIP3    H152340   5.037   1.025   0.680  0.3548  0.2572 -0.1709
10283TIP3    H252341   5.067   1.148   0.764  1.8229  0.4708 -0.9655
10284TIP3   OH252342   1.764   1.776   3.424 -0.8926 -0.7993 -0.3290
10284TIP3    H152343   1.780   1.823   3.342 -0.1961 -0.3752  0.0412
10284TIP3    H252344   1.805   1.690   3.411 -0.9248 -0.7891 -0.4903
10285TIP3   OH252345   0.535   4.168   6.135  0.3919  0.2714  0.1119
10285TIP3    H152346   0.582   4.164   6.218 -0.0475 -0.1304  0.3372
10285TIP3    H252347   0.446   4.139   6.155  0.5012 -0.6359 -0.6603
10286TIP3   OH252348   3.664   4.791  14.222 -0.7585  0.4191  0.8025
10286TIP3    H152349   3.696   4.752  14.304 -2.1984  0.6569  1.5148
10286TIP3    H252350   3.618   4.719  14.179 -0.7555  0.5283  0.6174
10287TIP3   OH252351   4.142   5.474   6.246  0.5842  0.3106  0.0941
10287TIP3    H152352   4.073   5.540   6.247 -0.3735 -0.6510 -0.3704
10287TIP3    H252353   4.214   5.516   6.199  0.1553  1.1738  0.1825
10288TIP3   OH252354   2.912   4.760   4.676 -0.6313  1.0193 -0.4024
10288TIP3    H152355   2.990   4.809   4.652 -0.4056  1.2661  0.7828
10288TIP3    H252356   2.937   4.713   4.756 -1.2906  0.0813 -0.7307
10289TIP3   OH252357   0.247   3.573   0.346  0.4795 -0.0253 -0.2359
10289TIP3    H152358   0.318   3.523   0.307  1.3106  1.8136 -1.1863
10289TIP3    H252359   0.239   3.538   0.435  1.2711 -1.5412 -0.7235
10290TIP3   OH252360   4.533   6.295   5.713  0.1392  0.8113  0.3521
10290TIP3    H152361   4.624   6.287   5.742  1.1484  2.2055 -2.1545
10290TIP3    H252362   4.520   6.222   5.653 -0.9823 -0.3210  1.8836
10291TIP3   OH252363   1.759   0.434   5.228 -0.2050 -0.0635  0.0228
10291TIP3    H152364   1.779   0.513   5.178 -1.0880 -0.6336 -1.2744
10291TIP3    H252365   1.832   0.375   5.210  0.1175  0.1980  0.4531
10292TIP3   OH252366   3.228   1.396   1.371  0.2076  0.0864 -0.0100
10292TIP3    H152367   3.235   1.305   1.342 -0.5602  0.5189 -1.6918
10292TIP3    H252368   3.135   1.409   1.387  0.2297  0.7214 -0.3458
10293TIP3   OH252369   6.742   3.791  14.459  0.0298  0.0417  0.0387
10293TIP3    H152370   6.674   3.738  14.501 -0.8041  1.3026  0.3285
10293TIP3    H252371   6.821   3.772  14.510 -0.5475  0.0944  0.9859
10294TIP3   OH252372   3.995   6.798  11.852  0.4392  0.0477 -0.3182
10294TIP3    H152373   4.043   6.789  11.934  3.0992 -0.5888 -1.8185
10294TIP3    H252374   3.993   6.893  11.836  0.6991  0.1156  0.0424
10295TIP3   OH252375   3.287   5.399   1.475  0.0635 -0.4872  0.7657
10295TIP3    H152376   3.286   5.462   1.402  2.1149  0.5358  1.5379
10295TIP3    H252377   3.256   5.317   1.436 -0.6011  0.4638 -0.8136
10296TIP3   OH252378   4.186   1.535  15.688 -0.0360  0.3384 -0.0012
10296TIP3    H152379   4.155   1.533  15.779 -1.4810  0.1358 -0.4773
10296TIP3    H252380   4.253   1.466  15.685  0.4781  0.7641  1.0511
10297TIP3   OH252381   1.461   1.547   0.129 -0.2161  0.4443  0.2342
10297TIP3    H152382   1.548   1.541   0.169  0.2401  0.8084 -0.6665
10297TIP3    H252383   1.400   1.534   0.201  0.5903 -0.1061  0.8327
10298TIP3   OH252384   5.461   5.316  13.752 -0.2974  0.0677 -0.2117
10298TIP3    H152385   5.497   5.354  13.832 -1.2072 -0.3220  0.4083
10298TIP3    H252386   5.479   5.222  13.761 -0.5432  0.0052 -0.3854
10299TIP3   OH252387   3.824   0.663   3.723 -0.6043  0.9211 -0.0829
10299TIP3    H152388   3.894   0.727   3.738 -0.4258  0.3687  1.6162
10299TIP3    H252389   3.768   0.670   3.800 -0.1647 -1.4464  0.5389
10300TIP3   OH252390   6.686   6.457   4.471  0.4880 -0.1705 -0.4488
10300TIP3    H152391   6.695   6.523   4.539  1.2932 -0.4647 -0.2561
10300TIP3    H252392   6.748   6.483   4.403 -2.2834  1.7560 -2.5001
10301TIP3   OH252393   6.454   4.583   3.137 -0.1352 -0.1159  0.1494
10301TIP3    H152394   6.497   4.662   3.105 -0.5959  0.3097  0.5603
10301TIP3    H252395   6.415   4.610   3.220 -3.4225  0.2543 -1.3730
10302TIP3   OH252396   3.187   4.393   3.707  0.2096  0.7317  0.6098
10302TIP3    H152397   3.175   4.478   3.750  0.8390  0.5346  1.1932
10302TIP3    H252398   3.115   4.387   3.644 -0.7427  1.0074  1.6570
10303TIP3   OH252399   1.735   5.395  11.257 -0.3325 -0.1082 -0.1731
10303TIP3    H152400   1.678   5.458  11.214 -1.2731  0.5191  1.8505
10303TIP3    H252401   1.675   5.333  11.298  0.4242  0.0760  1.2878
10304TIP3   OH252402   6.199   4.225  12.589 -0.8729 -0.3080  0.2781
10304TIP3    H152403   6.209   4.181  12.504 -1.9471  1.6477 -0.9194
10304TIP3    H252404   6.106   4.249  12.593 -0.1558  2.9028  0.2678
10305TIP3   OH252405   6.063   5.130   4.100  0.5640 -0.6266  0.0318
10305TIP3    H152406   6.008   5.118   4.023 -0.2417  0.4050  0.4176
10305TIP3    H252407   6.139   5.179   4.069  0.1679 -0.0795 -0.0920
10306TIP3   OH252408   5.997   2.206  16.418  0.0878  0.2723 -0.3860
10306TIP3    H152409   5.910   2.208  16.460  0.3830  0.8740  0.2203
10306TIP3    H252410   5.979   2.189  16.326 -0.5803 -1.3112 -0.0016
10307TIP3   OH252411   0.754   0.587   5.336 -0.4754  0.0922  0.2161
10307TIP3    H152412   0.775   0.508   5.286 -0.9252  0.2965 -0.3076
10307TIP3    H252413   0.662   0.576   5.361 -1.1498  1.2994 -1.5218
10308TIP3   OH252414   5.214   1.880   3.031  0.3997  0.0012  0.1380
10308TIP3    H152415   5.176   1.920   3.109  1.9351 -1.6744  1.8860
10308TIP3    H252416   5.255   1.800   3.064  0.1970 -1.3455 -2.6129
10309TIP3   OH252417   5.773   1.757  10.689  0.2288  0.0616  0.1680
10309TIP3    H152418   5.821   1.748  10.607  1.9324  2.0967  0.8544
10309TIP3    H252419   5.698   1.813  10.667  1.8081  2.3905  0.2886
10310TIP3   OH252420   0.918   4.322   0.956 -0.1703 -0.2034  0.1614
10310TIP3    H152421   0.880   4.389   1.013 -0.4414  0.0186 -0.2734
10310TIP3    H252422   1.003   4.358   0.932 -0.0698 -0.2819  0.3964
10311TIP3   OH252423   6.173   5.785   5.925 -0.5266  0.3554  0.0517
10311TIP3    H152424   6.231   5.715   5.954 -0.0735  0.9331  0.5564
10311TIP3    H252425   6.103   5.786   5.991 -1.3879 -0.6417 -0.7974
10312TIP3   OH252426   4.351   2.327  15.477  0.2926 -0.4732  0.0617
10312TIP3    H152427   4.268   2.309  15.521 -0.3276 -1.5303 -1.4762
10312TIP3    H252428   4.359   2.258  15.411 -0.1155  2.4010 -3.2680
10313TIP3   OH252429   6.038   5.017   0.679  0.4114 -0.8945  0.3980
10313TIP3    H152430   6.038   5.062   0.595  1.4616  0.0099  0.8603
10313TIP3    H252431   5.947   5.021   0.708  0.4114  0.6234  0.2503
10314TIP3   OH252432   4.072   3.489   0.972  0.4026 -0.0538  0.2662
10314TIP3    H152433   3.994   3.434   0.966  0.0578  0.5833 -1.9104
10314TIP3    H252434   4.135   3.447   0.914 -0.1619  2.1863 -2.1539
10315TIP3   OH252435   4.515   1.736   3.234  0.6054  0.0760 -0.4182
10315TIP3    H152436   4.483   1.794   3.303  1.4275  0.4894 -0.3710
10315TIP3    H252437   4.451   1.664   3.232 -0.1117  0.6816 -0.0852
10316TIP3   OH252438   6.293   0.424  15.243  0.1532 -0.0988  0.1551
10316TIP3    H152439   6.323   0.337  15.270 -0.3663 -0.7796 -1.4079
10316TIP3    H252440   6.346   0.446  15.167 -0.5880  0.3897 -0.2394
10317TIP3   OH252441   5.180   4.373   0.684  0.2596  0.1782  0.0239
10317TIP3    H152442   5.221   4.458   0.701  0.3504  0.1838 -0.2136
10317TIP3    H252443   5.251   4.310   0.698  0.7694  0.2915 -1.8506
10318TIP3   OH252444   6.074   3.690   0.433 -0.7040  0.2828 -0.2020
10318TIP3    H152445   6.031   3.614   0.393  1.4575 -1.9495  1.3802
10318TIP3    H252446   6.048   3.687   0.525 -0.6139  1.5334 -0.1170
10319TIP3   OH252447   0.725   3.519  17.167  0.1711 -0.2442  0.4794
10319TIP3    H152448   0.684   3.435  17.182  0.7389 -0.5596  0.2956
10319TIP3    H252449   0.783   3.505  17.092 -0.0480  0.4187  0.1758
10320TIP3   OH252450   6.176   3.157  15.999 -0.2311  0.2449  0.0853
10320TIP3    H152451   6.129   3.159  16.082  1.3188 -1.3129  1.0840
10320TIP3    H252452   6.237   3.083  16.008  0.7856  0.7457 -2.0012
10321TIP3   OH252453   6.167   3.783  16.026  0.1838  0.5430 -0.1624
10321TIP3    H152454   6.251   3.812  15.989  0.8153 -1.9848 -0.9824
10321TIP3    H252455   6.131   3.725  15.959 -3.0171  2.6338 -0.4633
10322TIP3   OH252456   5.082   2.674  11.606  0.3509  0.5595 -0.3815
10322TIP3    H152457   5.119   2.710  11.526  1.2126 -0.0538 -0.2617
10322TIP3    H252458   4.990   2.656  11.583  0.3755  1.1464 -0.9768
10323TIP3   OH252459   6.776   4.340   5.911  0.2565  0.6899 -0.5296
10323TIP3    H152460   6.706   4.317   5.850  0.0764 -1.1272  0.3014
10323TIP3    H252461   6.742   4.315   5.997  1.5422  0.6854 -0.0057
10324TIP3   OH252462   3.839   5.849  14.249 -0.3736 -0.2277 -0.1742
10324TIP3    H152463   3.850   5.781  14.315 -0.9001 -1.9292 -1.7417
10324TIP3    H252464   3.926   5.859  14.210 -0.8893 -2.4478 -2.1223
10325TIP3   OH252465   5.991   2.812   4.322 -0.4778  0.5350  0.0261
10325TIP3    H152466   6.026   2.730   4.358 -1.3593  0.5996  1.0589
10325TIP3    H252467   6.063   2.875   4.331 -0.3922  0.3261  0.8886
10326TIP3   OH252468   2.509   1.527  13.224  0.0713 -0.0184 -0.1152
10326TIP3    H152469   2.527   1.545  13.316  1.4911  1.1296 -0.5790
10326TIP3    H252470   2.440   1.589  13.200 -0.3485 -0.3661  0.1857
10327TIP3   OH252471   0.732   5.839   4.551  1.0657 -0.2943 -0.1803
10327TIP3    H152472   0.774   5.918   4.587  0.0467 -0.2046  0.8693
10327TIP3    H252473   0.781   5.767   4.590  1.2387 -0.1857 -0.1937
10328TIP3   OH252474   3.750   0.235  12.991  0.0636 -0.3040 -0.4548
10328TIP3    H152475   3.810   0.309  12.980 -0.9380  0.5638 -0.2631
10328TIP3    H252476   3.665   0.275  13.004 -0.7364 -1.5223 -1.6452
10329TIP3   OH252477   4.750   4.338   3.823  0.6455  0.1343  0.6691
10329TIP3    H152478   4.698   4.289   3.759  0.8436 -1.0478  1.3724
10329TIP3    H252479   4.774   4.419   3.778 -0.4399 -0.0150 -0.2245
10330TIP3   OH252480   4.738   6.535  11.345  0.2911  0.3009 -0.1897
10330TIP3    H152481   4.719   6.445  11.317  1.4792 -0.3310  0.8949
10330TIP3    H252482   4.689   6.590  11.284  1.3771 -1.0086 -2.3998
10331TIP3   OH252483   4.141   6.471   1.555  0.0206 -0.0081 -0.3017
10331TIP3    H152484   4.205   6.537   1.528  0.9075 -0.6649  0.1607
10331TIP3    H252485   4.059   6.520   1.565  0.1126  0.6091 -2.2035
10332TIP3   OH252486   1.532   4.771   1.888 -0.1621  0.7971 -0.1977
10332TIP3    H152487   1.525   4.814   1.803 -0.5192  0.2526 -0.4499
10332TIP3    H252488   1.608   4.713   1.880 -0.5491  0.3034 -0.3499
10333TIP3   OH252489   4.006   6.035   1.092 -0.1797 -0.0127  0.4837
10333TIP3    H152490   4.032   6.040   1.185 -2.3629  0.6148  1.1140
10333TIP3    H252491   4.028   5.945   1.067  1.7570  0.2115  1.1523
10334TIP3   OH252492   1.457   1.595  10.591 -0.1818 -0.0714  0.3928
10334TIP3    H152493   1.508   1.550  10.659  0.2624  3.3479  2.5627
10334TIP3    H252494   1.394   1.530  10.562  1.0598 -2.3957  2.4753
10335TIP3   OH252495   4.402   1.552   4.151  0.2125  0.8261  0.8796
10335TIP3    H152496   4.322   1.574   4.199 -1.0701 -1.7137  0.0961
10335TIP3    H252497   4.388   1.587   4.063 -0.3417 -0.0554  0.5928
10336TIP3   OH252498   1.348   6.782  10.764  0.2515 -0.0685  0.5326
10336TIP3    H152499   1.426   6.727  10.761  1.1466  1.1789  0.3531
10336TIP3    H252500   1.377   6.864  10.804 -0.5670  1.0113 -0.9888
10337TIP3   OH252501   0.275   5.167  11.661  0.0329 -0.2158  0.2743
10337TIP3    H152502   0.207   5.234  11.660  0.2839  0.1586  2.3747
10337TIP3    H252503   0.290   5.145  11.569 -2.7210 -0.1328 -0.2676
10338TIP3   OH252504   5.532   3.298  16.740  0.1541  0.4210 -0.0565
10338TIP3    H152505   5.482   3.272  16.818 -0.8431  0.3001 -0.7252
10338TIP3    H252506   5.545   3.392  16.751 -0.6059  0.5349 -0.0827
10339TIP3   OH252507   2.383   1.234   0.813 -0.4592  0.2089 -0.6160
10339TIP3    H152508   2.317   1.178   0.855  0.2663  0.9910  1.7427
10339TIP3    H252509   2.455   1.174   0.792  0.2003  0.0926  1.6432
10340TIP3   OH252510   6.256   2.819   2.692 -0.6057 -0.0138 -0.0165
10340TIP3    H152511   6.350   2.815   2.673 -1.0895 -0.8265 -2.6317
10340TIP3    H252512   6.229   2.728   2.698 -1.5429  0.1642 -1.2272
10341TIP3   OH252513   6.728   0.587   5.575 -0.3463  0.0643 -0.4828
10341TIP3    H152514   6.650   0.544   5.611  0.0469 -1.6924 -1.5777
10341TIP3    H252515   6.760   0.526   5.508  1.8923  0.8067 -0.1615
10342TIP3   OH252516   3.024   0.269  15.582 -0.0822  0.1154  0.2516
10342TIP3    H152517   2.945   0.281  15.529  1.0625 -2.2608 -2.2221
10342TIP3    H252518   3.095   0.296  15.524  1.0464  0.9280  1.9517
10343TIP3   OH252519   0.595   6.368  14.556  0.2112  0.0504  0.3189
10343TIP3    H152520   0.680   6.398  14.587  0.3646 -0.0161 -0.0269
10343TIP3    H252521   0.608   6.353  14.462  0.3260 -1.7292  0.5880
10344TIP3   OH252522   3.097   0.693  13.196  0.1732  0.7752 -0.1684
10344TIP3    H152523   3.112   0.680  13.290  1.3833  0.2342 -0.4108
10344TIP3    H252524   3.013   0.738  13.191  0.6053  1.7989  1.2249
10345TIP3   OH252525   1.422   4.882   1.324 -0.4630 -0.1057  0.4053
10345TIP3    H152526   1.380   4.942   1.263  1.1776  2.1626  1.3494
10345TIP3    H252527   1.490   4.839   1.271  0.4016  1.2326  0.3598
10346TIP3   OH252528   1.563   3.830  15.992 -0.1099  0.0356 -0.0103
10346TIP3    H152529   1.530   3.753  15.946 -0.6517  0.7209 -0.7980
10346TIP3    H252530   1.485   3.870  16.030  0.2107  0.0226  0.6687
10347TIP3   OH252531   0.978   5.008  11.439  0.0363 -0.1077 -0.2865
10347TIP3    H152532   0.940   4.921  11.447  2.0169 -1.0371 -0.2637
10347TIP3    H252533   0.912   5.060  11.393 -1.7594 -1.2150  0.9549
10348TIP3   OH252534   5.044   5.318   4.100  0.0324  0.7998 -0.7139
10348TIP3    H152535   5.111   5.274   4.048  0.2724 -0.9675  0.9697
10348TIP3    H252536   5.092   5.376   4.158 -0.1440  1.7931 -1.5355
10349TIP3   OH252537   1.978   0.793   5.809  0.3997 -0.3657 -0.1701
10349TIP3    H152538   2.019   0.808   5.724  0.1427 -2.1918 -0.6707
10349TIP3    H252539   1.912   0.725   5.792 -0.1907 -0.2177  1.3435
10350TIP3   OH252540   1.685   5.604   4.170 -0.2137  0.0889  0.5442
10350TIP3    H152541   1.724   5.683   4.208  0.4967  1.2660 -2.3180
10350TIP3    H252542   1.759   5.548   4.149 -0.6873 -1.1960  2.1399
10351TIP3   OH252543   3.167   2.353  15.235 -0.0954 -0.1899 -0.4997
10351TIP3    H152544   3.138   2.434  15.277  0.4253 -0.2700  0.0262
10351TIP3    H252545   3.183   2.378  15.144  0.3612  0.3701 -0.2707
10352TIP3   OH252546   2.198   4.489   0.343 -0.4836 -0.3214 -0.0349
10352TIP3    H152547   2.143   4.563   0.315  0.2555  0.6629  1.0038
10352TIP3    H252548   2.238   4.457   0.263 -1.8106 -0.4350 -0.6812
10353TIP3   OH252549   5.250   5.350  16.206  0.2842 -0.6758  0.1579
10353TIP3    H152550   5.312   5.317  16.270  2.7174 -0.0626 -1.7313
10353TIP3    H252551   5.221   5.272  16.159 -0.6045 -0.9934  1.2094
10354TIP3   OH252552   5.372   6.244   4.690  0.1118  0.2806 -0.0317
10354TIP3    H152553   5.466   6.261   4.687  0.2978  0.3418  2.9077
10354TIP3    H252554   5.364   6.167   4.747 -1.5732 -0.5355 -1.2990
10355TIP3   OH252555   4.035   0.152   4.267 -0.1122 -0.4551  0.1036
10355TIP3    H152556   4.073   0.225   4.219 -2.0813  2.1704  2.2451
10355TIP3    H252557   3.957   0.127   4.216 -0.2242 -0.0900  0.0957
10356TIP3   OH252558   6.143   1.247   5.028  0.1953  0.0845  0.5801
10356TIP3    H152559   6.225   1.200   5.041  0.0565 -0.2793  0.1800
10356TIP3    H252560   6.081   1.204   5.087 -0.2637 -1.1192 -0.7268
10357TIP3   OH252561   4.499   1.114   0.830 -0.1680 -0.1454  0.0255
10357TIP3    H152562   4.510   1.185   0.894  1.4456  0.3139 -0.7226
10357TIP3    H252563   4.461   1.042   0.880 -0.3231  0.7078  1.1620
10358TIP3   OH252564   2.979   3.790   2.453 -0.2824 -0.0521  0.8594
10358TIP3    H152565   2.984   3.694   2.455  1.3440  0.0214  1.2097
10358TIP3    H252566   2.908   3.812   2.514 -0.1730 -0.9982  1.3387
10359TIP3   OH252567   0.338   0.034  12.891  0.6847  0.3422  0.0974
10359TIP3    H152568   0.357   0.126  12.910 -0.6878  1.0478 -1.6971
10359TIP3    H252569   0.364  -0.012  12.971  0.0197  2.4416  1.6282
10360TIP3   OH252570   6.035   4.103   4.089 -0.1780 -0.3709 -0.6512
10360TIP3    H152571   6.102   4.144   4.033 -0.0411 -0.1474 -0.3292
10360TIP3    H252572   5.958   4.095   4.032 -0.7269  1.7825 -0.2933
10361TIP3   OH252573   1.497   1.179  16.574  0.4261 -0.2847 -0.6842
10361TIP3    H152574   1.482   1.243  16.644  2.4069 -0.4977 -0.0133
10361TIP3    H252575   1.412   1.136  16.563 -0.2239  0.5207  0.8262
10362TIP3   OH252576   3.571   3.676   1.850 -0.0024 -0.5382 -0.1384
10362TIP3    H152577   3.565   3.756   1.797  0.2708  0.1408  0.8155
10362TIP3    H252578   3.618   3.613   1.795 -1.4653 -0.5190 -1.4430
10363TIP3   OH252579   1.435   4.236   3.424  1.0237  0.5505  0.4200
10363TIP3    H152580   1.508   4.283   3.384 -0.4909  1.9469 -0.8855
10363TIP3    H252581   1.402   4.296   3.492  1.2439 -0.1772  1.1790
10364TIP3   OH252582   5.261   6.749   0.292  0.4096 -0.1891  0.9979
10364TIP3    H152583   5.213   6.687   0.347  1.2833  0.0116  2.0286
10364TIP3    H252584   5.340   6.770   0.342  0.7551  0.7816  0.1029
10365TIP3   OH252585   3.056   5.828   5.958  0.5361 -0.0200 -0.4885
10365TIP3    H152586   3.119   5.867   6.018  1.0744  1.4732 -1.9511
10365TIP3    H252587   3.107   5.799   5.883 -0.1059 -1.9766 -0.2208
10366TIP3   OH252588   2.853   1.084   5.773 -0.7525 -0.1956 -0.1342
10366TIP3    H152589   2.933   1.080   5.826 -0.8025 -4.0183 -0.1055
10366TIP3    H252590   2.803   1.155   5.812  3.4104  4.0618 -1.5642
10367TIP3   OH252591   3.279   1.245   2.897  0.0019 -0.0115 -0.4768
10367TIP3    H152592   3.346   1.193   2.940 -0.7148  0.2305  0.9987
10367TIP3    H252593   3.294   1.334   2.929 -1.1735 -0.0036  0.1108
10368TIP3   OH252594   4.561   3.822   0.304 -0.0309 -0.5601 -0.1242
10368TIP3    H152595   4.555   3.729   0.281  1.1536 -1.1844  1.8681
10368TIP3    H252596   4.507   3.866   0.238 -0.2825 -2.5987 -1.3777
10369TIP3   OH252597   1.292   3.400  15.392  0.1394  0.1221 -0.0705
10369TIP3    H152598   1.250   3.355  15.466 -0.9223  2.3605  0.7784
10369TIP3    H252599   1.260   3.353  15.315 -0.2808 -1.0584  0.7858
10370TIP3   OH252600   6.595   1.662   3.562 -0.0202  0.4550 -0.2160
10370TIP3    H152601   6.618   1.591   3.622  0.4134 -0.6670 -1.6530
10370TIP3    H252602   6.576   1.618   3.479 -1.2721  1.9011 -0.7440
10371TIP3   OH252603   3.406   1.566   3.436 -0.0190 -0.0642  0.1720
10371TIP3    H152604   3.486   1.521   3.463  1.0124  1.2566 -0.5378
10371TIP3    H252605   3.418   1.582   3.343 -1.3044 -0.1975 -0.0324
10372TIP3   OH252606   0.852   1.872  17.154  0.6750  0.1563 -0.0966
10372TIP3    H152607   0.802   1.951  17.177  0.1945 -0.1583 -0.0578
10372TIP3    H252608   0.837   1.812  17.226  1.2708  0.1292  0.0080
10373TIP3   OH252609   1.394   4.946   0.102  0.0550 -0.2857  0.4929
10373TIP3    H152610   1.452   4.985   0.167 -2.7741  3.2286  1.2239
10373TIP3    H252611   1.379   5.016   0.038 -1.4213 -1.8702 -1.0138
10374TIP3   OH252612   1.936   0.978   5.080  0.9441  0.3873  0.2332
10374TIP3    H152613   1.949   1.052   5.021  0.5182  0.3741  0.1155
10374TIP3    H252614   2.021   0.935   5.084  0.6773 -0.3840 -1.4291
10375TIP3   OH252615   2.535   5.858  13.744 -0.3004  0.0618 -0.3129
10375TIP3    H152616   2.454   5.900  13.716 -1.4633 -2.4065 -0.9752
10375TIP3    H252617   2.563   5.807  13.667  0.7628 -0.7164  0.5554
10376TIP3   OH252618   5.271   0.378   0.461  0.0509 -0.2964 -0.6275
10376TIP3    H152619   5.343   0.318   0.480  0.3478  0.2577  0.0822
10376TIP3    H252620   5.195   0.322   0.445  0.3882 -0.8597 -0.2516
10377TIP3   OH252621   2.617   4.471   3.742  0.1050 -0.1745  0.1223
10377TIP3    H152622   2.634   4.561   3.717 -2.3585  0.1795 -0.6199
10377TIP3    H252623   2.656   4.418   3.672 -0.0971  0.4389 -0.4650
10378TIP3   OH252624   3.424   5.914  11.699 -0.6194  0.3580 -0.1001
10378TIP3    H152625   3.445   5.820  11.698  3.1268  1.0054  1.1033
10378TIP3    H252626   3.359   5.923  11.768  0.2873 -1.2018  1.0441
10379TIP3   OH252627   4.606   3.511  11.303 -0.1142 -0.1098  0.5096
10379TIP3    H152628   4.574   3.426  11.333 -1.0878 -0.3698 -1.1133
10379TIP3    H252629   4.701   3.507  11.313 -0.0797 -1.6770 -0.2100
10380TIP3   OH252630   1.099   6.014   4.942 -0.2457  0.1108 -0.4261
10380TIP3    H152631   1.118   6.107   4.947 -0.0256 -0.0076  1.9142
10380TIP3    H252632   1.177   5.976   4.901  0.2550  0.7925 -0.1209
10381TIP3   OH252633   3.122   5.407   1.924  0.0809  0.6102 -0.1839
10381TIP3    H152634   3.048   5.404   1.864 -0.6473  1.8247  0.6163
10381TIP3    H252635   3.082   5.415   2.011  1.1545  1.2968  0.2665
10382TIP3   OH252636   4.718   1.108  10.606 -0.0901  0.4723 -0.4470
10382TIP3    H152637   4.640   1.119  10.553 -0.4355  0.6228  0.0840
10382TIP3    H252638   4.765   1.035  10.566 -1.0778 -0.3680 -0.0900
10383TIP3   OH252639   2.714   1.664   5.011  0.2403 -0.0868 -0.1400
10383TIP3    H152640   2.757   1.616   5.081 -1.5927 -2.1918 -0.3483
10383TIP3    H252641   2.666   1.734   5.055  1.5351  0.5224  0.3540
10384TIP3   OH252642   2.234   6.595  10.409  0.3532  0.4535  0.1468
10384TIP3    H152643   2.301   6.527  10.402  0.4228  0.4224  0.9314
10384TIP3    H252644   2.185   6.571  10.488 -1.1518 -0.0283 -0.9001
10385TIP3   OH252645   2.159   3.088   5.148 -0.1937  0.2082 -0.3829
10385TIP3    H152646   2.193   3.084   5.238  2.0872  1.1393 -1.1248
10385TIP3    H252647   2.231   3.058   5.094 -1.7263 -0.8884 -1.9159
10386TIP3   OH252648   1.764   1.383  11.334 -0.1874 -0.4791 -0.3173
10386TIP3    H152649   1.796   1.442  11.403 -1.0819  1.5665 -1.5612
10386TIP3    H252650   1.806   1.299  11.353  2.6989  1.0063  0.4406
10387TIP3   OH252651   3.717   4.009   2.354  0.0224 -0.3220 -0.0193
10387TIP3    H152652   3.642   4.047   2.308 -0.9486 -1.0027  0.9507
10387TIP3    H252653   3.735   4.071   2.425  0.3720 -0.1800 -0.2252
10388TIP3   OH252654   3.730   5.154  12.613  0.1541  0.0645 -0.2516
10388TIP3    H152655   3.664   5.150  12.682 -0.4195  0.7880 -0.7440
10388TIP3    H252656   3.735   5.247  12.590  0.0826 -0.2101 -1.4228
10389TIP3   OH252657   1.321   3.393  13.377  0.1950 -0.1189 -0.0145
10389TIP3    H152658   1.313   3.298  13.384  0.2675 -0.4044 -2.7724
10389TIP3    H252659   1.414   3.408  13.360  0.5678  0.6778  2.3437
10390TIP3   OH252660   1.956   3.464   2.289 -0.3497  0.0402 -0.3094
10390TIP3    H152661   2.028   3.519   2.319 -1.2731  1.0927  0.0342
10390TIP3    H252662   1.995   3.377   2.280  0.5932  0.2283  1.4771
10391TIP3   OH252663   5.578   1.107  11.351  0.4787  0.0376 -0.1265
10391TIP3    H152664   5.606   1.170  11.285 -1.0747  0.2255 -0.6269
10391TIP3    H252665   5.594   1.021  11.311 -1.5292  0.1439 -1.2652
10392TIP3   OH252666   1.163   2.899  14.659 -0.3774  0.1447  0.2738
10392TIP3    H152667   1.177   2.899  14.754 -2.6700  2.3409  0.7295
10392TIP3    H252668   1.189   2.987  14.632  1.9870 -1.0105 -1.5375
10393TIP3   OH252669   4.965   4.797   4.852 -0.3671  0.4216  0.5962
10393TIP3    H152670   4.969   4.702   4.866 -1.2759  0.5463  1.8893
10393TIP3    H252671   5.028   4.833   4.914  0.3547  0.6617 -0.2524
10394TIP3   OH252672   3.351   0.107  11.348  0.1744  0.0643  0.3425
10394TIP3    H152673   3.431   0.068  11.312  1.1914  1.3674  1.0616
10394TIP3    H252674   3.307   0.146  11.273  1.1470  0.8685  0.1709
10395TIP3   OH252675   3.020   3.055  16.538 -0.1941 -0.0939 -0.4899
10395TIP3    H152676   3.045   2.980  16.484  1.9125  0.0057  0.2805
10395TIP3    H252677   3.028   3.130  16.480  0.1143 -0.2052 -0.5939
10396TIP3   OH252678   5.200   6.739  15.129 -0.5816  0.4420 -0.9733
10396TIP3    H152679   5.291   6.735  15.160 -0.0274  0.5971 -2.5013
10396TIP3    H252680   5.190   6.828  15.096 -0.4863 -0.2812 -3.0744
10397TIP3   OH252681   5.915   1.946  13.188  0.0696 -0.2390 -0.2143
10397TIP3    H152682   6.010   1.947  13.198 -0.0390  2.2831  1.2918
10397TIP3    H252683   5.881   1.939  13.277 -1.1791 -0.6745 -0.6938
10398TIP3   OH252684   6.628   4.312   6.197  0.2711  0.1028 -0.0168
10398TIP3    H152685   6.714   4.269   6.193  0.5798  0.1029  3.4165
10398TIP3    H252686   6.649   4.405   6.212 -0.3289  0.2568 -0.1186
10399TIP3   OH252687   0.945   4.191  11.910  0.2965  0.0411  0.3269
10399TIP3    H152688   0.948   4.115  11.968 -1.1193  1.2250  2.0474
10399TIP3    H252689   1.037   4.214  11.896  0.7374 -1.7264  0.0723
10400TIP3   OH252690   0.555   2.817   0.707  0.5909  0.6318  0.7138
10400TIP3    H152691   0.493   2.758   0.664  0.6807  0.8680  0.2580
10400TIP3    H252692   0.641   2.776   0.693  0.8893  1.8035 -1.2580
10401TIP3   OH252693   3.725   6.131  14.714  0.1058 -0.0717  0.4119
10401TIP3    H152694   3.820   6.139  14.715  0.2537 -1.2563 -0.7355
10401TIP3    H252695   3.707   6.052  14.766 -0.0953 -0.7869 -0.7039
10402TIP3   OH252696   3.060   5.969  17.112  0.5221 -0.6255 -0.2982
10402TIP3    H152697   3.049   5.990  17.205 -1.3067  1.3103 -0.8702
10402TIP3    H252698   3.154   5.964  17.100  0.8871  1.2188  1.2634
10403TIP3   OH252699   2.646   0.517  16.040  0.5521 -0.6632 -0.4293
10403TIP3    H152700   2.724   0.509  16.095 -0.5254 -1.3102  1.0752
10403TIP3    H252701   2.608   0.429  16.041 -0.2505 -0.3249 -1.0416
10404TIP3   OH252702   2.731   4.845   0.591  0.1778  0.4956  0.5882
10404TIP3    H152703   2.759   4.936   0.581  0.9668  0.1470 -0.6516
10404TIP3    H252704   2.809   4.799   0.622  0.7307 -0.2686 -1.7175
10405TIP3   OH252705   3.604   6.527  14.927  0.4609  0.5589  0.3256
10405TIP3    H152706   3.626   6.615  14.956 -0.2824  0.2899  1.8175
10405TIP3    H252707   3.513   6.534  14.897  0.0648  0.1118  1.3881
10406TIP3   OH252708   4.585   0.976  12.598 -0.3628 -0.7041  0.5377
10406TIP3    H152709   4.628   1.013  12.674 -2.1441 -0.1042  1.3122
10406TIP3    H252710   4.597   1.041  12.529  0.2446 -0.7123  0.6318
10407TIP3   OH252711   3.912   2.178  16.131 -0.0377  0.7054 -0.2020
10407TIP3    H152712   3.977   2.114  16.103  0.1740  1.1246 -0.6882
10407TIP3    H252713   3.910   2.242  16.060  1.5484  2.5689  1.3277
10408TIP3   OH252714   6.416   0.687   2.780 -0.2329 -0.1516  0.2260
10408TIP3    H152715   6.363   0.640   2.845  0.7881 -1.3713  0.2307
10408TIP3    H252716   6.488   0.726   2.831  0.1869 -0.5291 -0.0672
10409TIP3   OH252717   4.358   6.671  16.760  0.4823  0.2134 -0.0622
10409TIP3    H152718   4.450   6.696  16.757  0.1213  1.6212 -2.7401
10409TIP3    H252719   4.338   6.664  16.854  2.8040  1.8167  0.6371
10410TIP3   OH252720   4.411   2.051  13.227  0.2435  0.3222  0.4941
10410TIP3    H152721   4.497   2.086  13.252 -0.3242  1.0900  1.3940
10410TIP3    H252722   4.417   1.958  13.249  1.4325 -0.0276 -1.0636
10411TIP3   OH252723   0.313   2.895  13.577  0.4137  0.3358 -0.4065
10411TIP3    H152724   0.387   2.903  13.638 -0.1755 -0.4971  0.4406
10411TIP3    H252725   0.235   2.903  13.632 -0.1385  0.3302 -1.1692
10412TIP3   OH252726   1.652   1.219   0.880  0.1362 -0.0307 -0.3519
10412TIP3    H152727   1.628   1.295   0.934 -0.6974 -0.1690 -0.5212
10412TIP3    H252728   1.655   1.146   0.942 -3.9006 -0.8366 -0.8721
10413TIP3   OH252729   0.281   4.965   0.585 -0.0816 -0.0387  0.3252
10413TIP3    H152730   0.252   4.960   0.494 -0.1001 -0.4645  0.3502
10413TIP3    H252731   0.342   5.038   0.587  0.1216 -0.1924 -0.0916
10414TIP3   OH252732   1.703   5.253   6.436  0.3090  0.2019  0.8368
10414TIP3    H152733   1.664   5.341   6.433  0.2465  0.1589  0.0098
10414TIP3    H252734   1.631   5.196   6.463  0.2509  0.3536  1.0036
10415TIP3   OH252735   2.603   2.821  11.821 -0.4617  0.8461  0.2605
10415TIP3    H152736   2.676   2.882  11.828 -0.6653  1.5808 -2.7294
10415TIP3    H252737   2.527   2.871  11.850 -0.1992  1.0001  0.6932
10416TIP3   OH252738   1.726   3.203  12.070  0.2899  0.3388  0.4066
10416TIP3    H152739   1.736   3.231  12.161 -1.5746 -0.4088  0.8824
10416TIP3    H252740   1.696   3.281  12.024 -2.0385 -0.0382  1.1505
10417TIP3   OH252741   0.035   5.309   6.441 -0.3717 -0.3061 -0.2110
10417TIP3    H152742   0.021   5.277   6.530  0.5521  3.1856  1.3671
10417TIP3    H252743   0.123   5.278   6.417  0.5088  0.9811  1.2477
10418TIP3   OH252744   1.947   1.591   0.354 -0.4781 -0.5054 -0.0160
10418TIP3    H152745   2.013   1.528   0.325 -1.6283 -1.0643 -1.5161
10418TIP3    H252746   1.932   1.569   0.446  0.1022 -1.5540 -0.1594
10419TIP3   OH252747   1.083   6.020  15.968  0.2811 -0.4167 -0.1623
10419TIP3    H152748   1.075   6.014  16.063 -0.7309 -1.0296 -0.2680
10419TIP3    H252749   1.001   5.984  15.935  0.3430  0.3938 -1.2616
10420TIP3   OH252750   6.371   6.274   5.222 -0.3894  0.0543  0.2551
10420TIP3    H152751   6.329   6.194   5.192  1.2702 -1.1864  1.1157
10420TIP3    H252752   6.420   6.248   5.300 -0.6846  2.1509  1.2045
10421TIP3   OH252753   0.905   1.464  11.183  0.2363  0.3229  0.2993
10421TIP3    H152754   0.906   1.506  11.097 -0.2438  1.2841  0.7463
10421TIP3    H252755   0.924   1.372  11.165 -0.8042  0.3200 -0.9327
10422TIP3   OH252756   3.377   4.689   1.183  0.0320  0.5344 -0.3500
10422TIP3    H152757   3.310   4.724   1.242 -1.7580 -1.6938 -0.8677
10422TIP3    H252758   3.429   4.764   1.157 -0.6832  1.9745  2.0855
10423TIP3   OH252759   2.219   1.929  13.566 -0.7166 -0.2257  0.1473
10423TIP3    H152760   2.191   2.012  13.606 -0.2897  0.8093 -1.5907
10423TIP3    H252761   2.305   1.948  13.530 -0.5172 -1.5122 -0.0792
10424TIP3   OH252762   2.056   0.585   5.351 -0.7961  0.1599 -0.5574
10424TIP3    H152763   2.005   0.530   5.409  1.1914 -0.5303  0.6434
10424TIP3    H252764   2.147   0.558   5.365  0.0405  2.0802 -1.7327
10425TIP3   OH252765   2.716   5.062  13.865 -0.2127  0.1558  0.1525
10425TIP3    H152766   2.788   5.007  13.896 -0.0480  0.1953 -0.1551
10425TIP3    H252767   2.753   5.112  13.792 -0.7059 -0.2281 -0.3677
10426TIP3   OH252768   6.741   4.871   0.088 -0.1753  0.2908  0.7670
10426TIP3    H152769   6.720   4.797   0.144  1.0904 -1.8088 -1.3555
10426TIP3    H252770   6.658   4.916   0.074 -1.4803 -2.1523  0.2268
10427TIP3   OH252771   6.709   5.828  16.959  0.4415 -0.7042 -0.2961
10427TIP3    H152772   6.757   5.911  16.958 -2.5597  1.2149 -2.2766
10427TIP3    H252773   6.716   5.794  16.870 -4.1245  1.3444 -1.7430
10428TIP3   OH252774   3.489   2.788   3.849  0.3136  0.3385  0.2055
10428TIP3    H152775   3.501   2.840   3.928  0.8008 -1.2359  1.2192
10428TIP3    H252776   3.578   2.771   3.819  0.2003 -0.5309  0.3338
10429TIP3   OH252777   6.737   3.949  11.923 -0.5441 -0.1972 -0.0624
10429TIP3    H152778   6.796   3.967  11.997 -1.8898  0.7785  0.8188
10429TIP3    H252779   6.732   3.853  11.920  0.5760 -0.2801  0.2436
10430TIP3   OH252780   0.539   4.334   4.897  0.0123  0.3262  0.4268
10430TIP3    H152781   0.556   4.428   4.897 -1.0778  0.5679 -1.3563
10430TIP3    H252782   0.618   4.296   4.936  1.3565  1.8486 -0.6312
10431TIP3   OH252783   0.398   1.386  14.039  0.4663  0.1804  0.4060
10431TIP3    H152784   0.377   1.474  14.071 -2.6859  0.1956 -1.3191
10431TIP3    H252785   0.435   1.400  13.952 -1.1131 -0.1876 -0.3525
10432TIP3   OH252786   5.638   5.105  13.980  0.4711  0.1514  0.0520
10432TIP3    H152787   5.624   5.198  13.995  1.3054  0.1391  0.9928
10432TIP3    H252788   5.707   5.102  13.914  0.5381  0.1967  0.1201
10433TIP3   OH252789   4.792   2.079   6.057  0.1686 -0.0125 -0.0457
10433TIP3    H152790   4.877   2.119   6.070  0.6597 -1.4752  1.8123
10433TIP3    H252791   4.779   2.024   6.135 -0.7508 -2.8102 -1.9825
10434TIP3   OH252792   1.950   0.811  15.907  0.1346  0.3377 -0.1712
10434TIP3    H152793   1.983   0.732  15.950  2.0805  0.4609 -1.3393
10434TIP3    H252794   2.026   0.870  15.902 -0.7428  1.4461 -1.2152
10435TIP3   OH252795   6.267   4.276   1.956  0.1667  0.2352  0.0132
10435TIP3    H152796   6.254   4.182   1.964  1.3847 -0.1673 -2.1211
10435TIP3    H252797   6.219   4.313   2.031  0.8281 -2.1261  1.7242
10436TIP3   OH252798   2.734   6.502   5.966 -0.1268 -0.3394  0.0749
10436TIP3    H152799   2.650   6.508   5.920  0.4116 -0.5629 -0.9548
10436TIP3    H252800   2.758   6.593   5.985 -1.0057 -0.3090  1.1565
10437TIP3   OH252801   6.302   2.246  11.531  0.2859  0.3550 -0.1214
10437TIP3    H152802   6.297   2.183  11.459  2.4640  0.7013 -0.6347
10437TIP3    H252803   6.387   2.230  11.571 -0.1984  1.2753  1.3785
10438TIP3   OH252804   2.290   5.732  13.344  0.1738 -0.1402  0.2699
10438TIP3    H152805   2.216   5.671  13.348  0.6346 -0.8478 -1.4237
10438TIP3    H252806   2.354   5.690  13.287  0.3885  2.0084 -1.2128
10439TIP3   OH252807   3.361   4.378   1.469  0.3106  0.1147  0.2083
10439TIP3    H152808   3.415   4.299   1.464  0.8836  0.5402 -0.7664
10439TIP3    H252809   3.332   4.392   1.378  0.5568  1.2426  0.2948
10440TIP3   OH252810   6.210   6.004  12.941  0.2354 -0.3069 -0.4121
10440TIP3    H152811   6.159   5.959  13.009 -1.2304 -0.7345 -1.7376
10440TIP3    H252812   6.172   6.091  12.936 -0.8012 -0.7906 -1.7668
10441TIP3   OH252813   2.130   6.601   1.826  0.4328  0.4582 -0.2505
10441TIP3    H152814   2.110   6.514   1.791  0.6362  0.3401 -0.0735
10441TIP3    H252815   2.077   6.608   1.906  1.2164  0.0781  0.3106
10442TIP3   OH252816   2.060   4.628  14.062  0.3944 -0.4200  0.1835
10442TIP3    H152817   2.143   4.675  14.067  0.6019 -0.6836 -0.7813
10442TIP3    H252818   2.071   4.553  14.120  0.7958 -0.4051  0.1250
10443TIP3   OH252819   4.542   3.918  15.692 -0.3992 -0.1079  0.4379
10443TIP3    H152820   4.586   3.844  15.734 -0.3892 -0.2515  0.1762
10443TIP3    H252821   4.475   3.878  15.636 -0.4100  0.0803  0.3135
10444TIP3   OH252822   1.941   3.241   1.324  0.2873  0.1162  0.6451
10444TIP3    H152823   2.034   3.242   1.301  0.4141 -0.3821  1.1211
10444TIP3    H252824   1.897   3.211   1.244  0.4325  1.2869  0.1011
10445TIP3   OH252825   0.660   0.262   0.537  0.1496  1.0449  0.4370
10445TIP3    H152826   0.755   0.274   0.539  0.4118 -0.8431  1.0865
10445TIP3    H252827   0.638   0.231   0.624 -0.7637 -0.4339 -0.2790
10446TIP3   OH252828   0.088   2.651  13.700  0.1509 -0.2486  0.2702
10446TIP3    H152829   0.141   2.630  13.777 -2.4076 -0.6966  2.0383
10446TIP3    H252830   0.062   2.742  13.712 -1.7881 -0.8438  1.0089
10447TIP3   OH252831   2.765   5.652   1.573  0.3353 -0.3605 -0.1204
10447TIP3    H152832   2.825   5.653   1.499  0.1059 -0.6767 -0.3118
10447TIP3    H252833   2.821   5.662   1.650  0.4354  2.1247 -0.4223
10448TIP3   OH252834   4.673   0.775  13.542 -0.8589 -0.4731  0.4604
10448TIP3    H152835   4.636   0.853  13.583  0.4374 -0.3625  1.4965
10448TIP3    H252836   4.610   0.705  13.563 -1.3378  0.0247  0.7037
10449TIP3   OH252837   0.503   6.122   0.302 -0.2240  0.6168  0.2980
10449TIP3    H152838   0.451   6.139   0.223 -0.2816 -1.1692 -0.0877
10449TIP3    H252839   0.594   6.124   0.271 -0.2780 -1.0466 -0.0601
10450TIP3   OH252840   5.350   6.506   2.014  0.1894  0.3827 -0.1665
10450TIP3    H152841   5.343   6.476   2.105 -1.5253  1.2471  0.0268
10450TIP3    H252842   5.288   6.451   1.966  1.0049  0.0079 -0.8086
10451TIP3   OH252843   6.432   1.129   4.989 -0.6728  0.0704 -0.9036
10451TIP3    H152844   6.516   1.127   5.034 -1.1987  0.2473  0.1533
10451TIP3    H252845   6.424   1.219   4.957 -0.3883  0.0107 -1.1354
10452TIP3   OH252846   6.505   6.697   4.770 -0.2863  0.1816 -0.0422
10452TIP3    H152847   6.490   6.740   4.854  0.5311 -1.8061  1.1989
10452TIP3    H252848   6.424   6.709   4.722 -1.1646  0.4512  1.4514
10453TIP3   OH252849   4.234   6.090   3.340  0.1509 -0.3426  0.1621
10453TIP3    H152850   4.180   6.167   3.324  0.2798  0.2820  2.4136
10453TIP3    H252851   4.178   6.016   3.316 -0.6265  0.3891 -0.3420
10454TIP3   OH252852   1.304   5.340  11.640  0.1721 -0.2945 -0.3408
10454TIP3    H152853   1.276   5.410  11.582  0.7885 -0.6638 -1.1070
10454TIP3    H252854   1.331   5.269  11.581 -0.5135 -1.2077  0.4191
10455TIP3   OH252855   4.799   5.993  11.748 -0.1443 -0.1659  0.3541
10455TIP3    H152856   4.710   5.961  11.762  0.9291 -3.4649  0.2828
10455TIP3    H252857   4.827   6.023  11.834 -1.0104  0.1109  0.5533
10456TIP3   OH252858   5.369   6.618  13.845  0.4270 -0.0479 -0.1799
10456TIP3    H152859   5.449   6.566  13.852  0.2458 -0.7646 -2.4190
10456TIP3    H252860   5.298   6.554  13.848  0.0504  0.3656 -0.1208
10457TIP3   OH252861   1.356   1.767   3.678  0.6655  1.0706 -0.4077
10457TIP3    H152862   1.272   1.782   3.634 -2.5100 -1.4205  3.9933
10457TIP3    H252863   1.380   1.677   3.653 -0.4029  0.1764  1.5773
10458TIP3   OH252864   4.938   5.314  13.819  0.4542 -0.2879 -0.3323
10458TIP3    H152865   4.889   5.356  13.890  0.8848 -1.1652  0.5041
10458TIP3    H252866   4.927   5.373  13.744  0.7105  1.1117  0.6892
10459TIP3   OH252867   5.090   4.506   4.136  0.1665 -0.5679  0.5347
10459TIP3    H152868   5.143   4.540   4.208  0.1486 -1.7374  1.1206
10459TIP3    H252869   5.138   4.431   4.103  0.1482 -0.0805 -0.6689
10460TIP3   OH252870   1.858   3.300  17.306 -0.3026 -0.0796 -0.1654
10460TIP3    H152871   1.866   3.211  17.273 -0.4067 -0.2123  0.1607
10460TIP3    H252872   1.817   3.290  17.392 -1.1689  0.3459 -0.5187
10461TIP3   OH252873   3.461   5.530   1.654 -0.3737  0.4255  0.1958
10461TIP3    H152874   3.433   5.465   1.589 -0.5155 -0.1802  0.8498
10461TIP3    H252875   3.439   5.491   1.738  3.0906 -0.4772  0.8353
10462TIP3   OH252876   3.945   1.143  11.480 -0.3620 -0.1901 -0.3965
10462TIP3    H152877   3.877   1.198  11.443 -0.2470 -0.1616 -0.5671
10462TIP3    H252878   3.990   1.106  11.404 -1.4416 -1.7769 -0.3024
10463TIP3   OH252879   4.052   1.782  15.582 -0.8240  0.5890 -0.0717
10463TIP3    H152880   4.023   1.773  15.491  0.8974 -1.4687 -0.4851
10463TIP3    H252881   4.061   1.693  15.613  2.2338  1.0983  0.8758
10464TIP3   OH252882   5.108   3.607  15.995 -0.0742  0.2636  0.5157
10464TIP3    H152883   5.081   3.549  16.066 -2.2183 -1.8084 -1.8000
10464TIP3    H252884   5.040   3.674  15.992 -0.6627 -0.3528 -0.2943
10465TIP3   OH252885   6.310   0.002   0.798  0.1213  0.1098 -0.1697
10465TIP3    H152886   6.249  -0.001   0.872 -1.4347  4.1717 -1.0447
10465TIP3    H252887   6.293  -0.079   0.750 -4.1871  0.6562  0.0526
10466TIP3   OH252888   0.720   2.744  14.592 -0.3532  0.2451 -0.0321
10466TIP3    H152889   0.718   2.814  14.527 -1.6477  0.7840  0.5583
10466TIP3    H252890   0.762   2.783  14.668  1.3441 -0.4447 -0.5615
10467TIP3   OH252891   1.147   1.487   0.107  0.6366 -0.2597 -0.2676
10467TIP3    H152892   1.169   1.575   0.075  0.2196 -0.3986 -0.9354
10467TIP3    H252893   1.200   1.478   0.187  0.3763  0.7564  0.0385
10468TIP3   OH252894   6.080   3.376  12.460  0.1159 -0.7163 -0.1334
10468TIP3    H152895   5.999   3.349  12.503 -0.3392  0.8433  0.0544
10468TIP3    H252896   6.133   3.297  12.458 -1.9408 -2.1636 -1.5371
10469TIP3   OH252897   0.289   4.870  13.025  0.0655  0.4786 -0.5351
10469TIP3    H152898   0.196   4.853  13.012  0.6773 -2.6404 -1.7458
10469TIP3    H252899   0.324   4.882  12.937  0.7886  1.9391 -0.0708
10470TIP3   OH252900   3.737   2.857  14.321 -0.4854  0.1488 -0.2897
10470TIP3    H152901   3.796   2.932  14.324 -0.7593  0.3702  3.0059
10470TIP3    H252902   3.793   2.781  14.340 -0.9776  0.2071  1.5577
10471TIP3   OH252903   0.244   0.420  12.548  0.3164  0.4050 -0.4337
10471TIP3    H152904   0.229   0.399  12.456 -0.3605 -2.2047  0.1638
10471TIP3    H252905   0.331   0.386  12.567 -0.4377 -1.1883  0.3721
10472TIP3   OH252906   1.480   4.928   2.376  0.1949  0.8469  0.3741
10472TIP3    H152907   1.463   4.886   2.292  0.3698  0.7974  0.3627
10472TIP3    H252908   1.571   4.906   2.396  0.2278  1.0573  0.4619
10473TIP3   OH252909   2.915   1.988   5.296 -0.3186 -0.2046  0.3773
10473TIP3    H152910   3.008   1.984   5.277 -0.3292  0.1705  0.2306
10473TIP3    H252911   2.898   1.912   5.351  0.0228 -0.4205  0.1867
10474TIP3   OH252912   1.120   4.204   2.746 -0.2002  0.1153 -0.1986
10474TIP3    H152913   1.027   4.192   2.727 -0.3750 -0.0899  0.7452
10474TIP3    H252914   1.130   4.175   2.837  1.2471 -2.2137 -1.0228
10475TIP3   OH252915   6.597   1.854   1.121  0.0587  0.2261 -0.0061
10475TIP3    H152916   6.560   1.877   1.036 -1.4501  1.5229  0.9489
10475TIP3    H252917   6.634   1.767   1.108 -0.9240  0.0196 -1.7413
10476TIP3   OH252918   5.400   1.947  11.401 -0.2458 -0.4020  0.2263
10476TIP3    H152919   5.434   1.881  11.341 -1.4630  1.5165 -2.8166
10476TIP3    H252920   5.413   2.030  11.355 -4.4579  0.8912  0.9760
10477TIP3   OH252921   4.455   0.116   4.303 -0.5667  0.2143  0.2678
10477TIP3    H152922   4.550   0.104   4.310 -0.2883  2.2475  0.6045
10477TIP3    H252923   4.418   0.032   4.331  1.1202 -0.6067  0.1644
10478TIP3   OH252924   5.377   5.636   3.172 -0.0830 -0.3910  0.3410
10478TIP3    H152925   5.455   5.586   3.147  0.0209  0.6162 -1.4877
10478TIP3    H252926   5.316   5.569   3.203  0.7939 -1.4165 -0.0591
10479TIP3   OH252927   5.280   2.131  11.813  0.1042 -0.1584  0.6790
10479TIP3    H152928   5.353   2.183  11.780 -1.1472  1.0801 -0.2335
10479TIP3    H252929   5.245   2.087  11.735 -2.1227  1.8330  0.4664
10480TIP3   OH252930   4.469   2.378  11.593  1.8960  0.0934  0.1833
10480TIP3    H152931   4.505   2.292  11.574  0.6560 -0.0804 -1.6420
10480TIP3    H252932   4.484   2.428  11.512  0.8737  0.9656  0.5211
10481TIP3   OH252933   0.537   1.046  14.722 -0.2412  0.0031 -0.0088
10481TIP3    H152934   0.501   1.087  14.644 -2.3376 -2.6228 -0.5873
10481TIP3    H252935   0.572   0.963  14.691  0.3344 -0.3952  1.6160
10482TIP3   OH252936   1.517   4.174   5.653  0.6948  0.3476 -0.4962
10482TIP3    H152937   1.471   4.237   5.598  0.9542  0.7447 -0.2665
10482TIP3    H252938   1.608   4.205   5.653  0.2385  2.0843  2.4668
10483TIP3   OH252939   4.544   1.365   5.640 -0.1241 -0.2795  0.3043
10483TIP3    H152940   4.589   1.355   5.556  2.7094 -0.0274  1.6697
10483TIP3    H252941   4.505   1.280   5.657 -0.0590 -0.5681 -0.9067
10484TIP3   OH252942   5.647   1.458   3.714 -0.0654 -0.0734  0.6707
10484TIP3    H152943   5.697   1.400   3.655  1.5791  2.1156 -0.2312
10484TIP3    H252944   5.714   1.502   3.766 -1.3856 -0.3441  2.6966
10485TIP3   OH252945   5.005   1.254   6.211 -0.0131 -0.5547 -0.4624
10485TIP3    H152946   4.926   1.210   6.244  1.3026 -3.7713 -1.2388
10485TIP3    H252947   5.068   1.183   6.197  2.3796  1.6609 -1.7277
10486TIP3   OH252948   3.535   6.041  15.131  0.0463  0.6841  0.1942
10486TIP3    H152949   3.459   6.070  15.182 -0.9219 -0.9269 -0.2614
10486TIP3    H252950   3.587   5.989  15.192  0.7926  1.7437  0.4919
10487TIP3   OH252951   5.524   2.211  16.125  0.7272  0.0279 -0.3714
10487TIP3    H152952   5.477   2.271  16.068  0.9428 -0.2757 -0.8820
10487TIP3    H252953   5.607   2.194  16.079  0.2744 -1.3989 -0.7236
10488TIP3   OH252954   1.658   1.413   1.107 -0.3236 -0.4418  0.1150
10488TIP3    H152955   1.620   1.399   1.194 -0.1324  2.2965  0.7212
10488TIP3    H252956   1.616   1.493   1.075  1.3266 -0.0889 -1.3222
10489TIP3   OH252957   1.882   3.169  11.668 -0.4079 -0.0199 -0.0777
10489TIP3    H152958   1.923   3.112  11.603 -0.5313  1.2838 -1.3459
10489TIP3    H252959   1.791   3.176  11.640 -0.7531 -0.3419  0.9048
10490TIP3   OH252960   4.993   2.561   1.452  0.0952 -0.2159 -0.5294
10490TIP3    H152961   5.034   2.488   1.497 -0.3140 -0.3604 -0.3820
10490TIP3    H252962   4.963   2.525   1.369 -1.3632 -0.5920  0.1231
10491TIP3   OH252963   1.406   6.421  16.287  0.2896  0.4673  0.1242
10491TIP3    H152964   1.347   6.479  16.239  1.3016  2.0568  0.7454
10491TIP3    H252965   1.350   6.347  16.313 -1.6243  2.1753  1.1975
10492TIP3   OH252966   1.994   1.048  13.489 -0.6044  0.0254  0.1440
10492TIP3    H152967   2.075   1.098  13.505 -0.1206 -0.7848  0.2589
10492TIP3    H252968   2.016   0.958  13.513 -1.6047 -0.1712  0.3559
10493TIP3   OH252969   1.772   2.593  13.944  0.2372 -0.0389 -0.3169
10493TIP3    H152970   1.850   2.558  13.901  0.2108  0.9526 -1.2300
10493TIP3    H252971   1.713   2.613  13.871 -0.9095 -0.8329  0.3621
10494TIP3   OH252972   6.568   5.044  16.955 -0.0633  0.7590  0.3188
10494TIP3    H152973   6.502   5.015  17.018  0.0762 -0.3641 -0.0188
10494TIP3    H252974   6.523   5.106  16.898 -0.0508  2.1984  1.8264
10495TIP3   OH252975   1.665   3.665  12.360  0.1532  0.0413  0.8379
10495TIP3    H152976   1.629   3.747  12.327  0.3701 -0.2128 -0.0359
10495TIP3    H252977   1.605   3.597  12.329  1.1484 -0.3447 -0.3210
10496TIP3   OH252978   4.721   3.925   2.964 -0.1644 -0.1774 -0.3020
10496TIP3    H152979   4.772   3.844   2.965  0.7739  0.3849 -0.8062
10496TIP3    H252980   4.717   3.952   3.056 -0.1207 -0.5763 -0.1804
10497TIP3   OH252981   0.824   4.476   5.510  0.5520 -0.8483 -0.2259
10497TIP3    H152982   0.750   4.536   5.503  0.8389 -0.3284  1.0397
10497TIP3    H252983   0.789   4.392   5.482 -0.2124 -0.3770 -0.7192
10498TIP3   OH252984   4.097   3.733   0.018 -0.7282 -0.0221  0.1440
10498TIP3    H152985   4.087   3.827   0.030  0.5622 -0.0251  1.5196
10498TIP3    H252986   4.190   3.716   0.034 -0.5518 -1.3081 -1.8303
10499TIP3   OH252987   2.305   2.737   4.410 -0.0858  0.8146  0.2633
10499TIP3    H152988   2.252   2.809   4.446 -0.1661  0.9262 -0.0810
10499TIP3    H252989   2.334   2.768   4.325 -2.7336 -0.7568 -1.3517
10500TIP3   OH252990   1.461   6.051  13.079 -0.1852 -0.6330 -0.1399
10500TIP3    H152991   1.430   6.139  13.101  1.4976 -0.2529  0.9220
10500TIP3    H252992   1.545   6.065  13.036  0.6054 -1.7297  0.9712
10501TIP3   OH252993   3.302   4.498   3.092  0.3228 -0.2351  0.1019
10501TIP3    H152994   3.330   4.438   3.024  1.9792 -0.7817  1.2072
10501TIP3    H252995   3.320   4.452   3.174  1.3923  1.6242  0.9777
10502TIP3   OH252996   5.276   5.332  13.351 -0.3875 -0.3770 -0.4977
10502TIP3    H152997   5.242   5.312  13.438  0.3841 -0.8463 -0.2943
10502TIP3    H252998   5.291   5.426  13.352  0.1734 -0.4655  0.0895
10503TIP3   OH252999   6.288   0.996  14.207 -0.0448  0.2669 -0.4967
10503TIP3    H153000   6.218   1.060  14.211 -0.2904 -0.0332  0.2087
10503TIP3    H253001   6.347   1.028  14.138 -0.5148  0.8778 -0.6180
10504TIP3   OH253002   0.937   2.377  11.484 -0.0363  0.3016  0.1317
10504TIP3    H153003   0.888   2.425  11.417 -0.8584 -0.3307  0.2710
10504TIP3    H253004   0.957   2.293  11.444 -2.1214 -0.8117  1.2757
10505TIP3   OH253005   1.511   4.761  16.791  0.4943 -0.3744  0.3067
10505TIP3    H153006   1.572   4.782  16.720 -0.9466 -2.7677 -1.8082
10505TIP3    H253007   1.523   4.667  16.807 -3.3421 -1.3054 -1.1327
10506TIP3   OH253008   0.378   3.883  14.452  0.1425 -0.0369 -0.1619
10506TIP3    H153009   0.466   3.869  14.488  0.3421 -0.8602 -0.9219
10506TIP3    H253010   0.337   3.796  14.455 -0.7902  0.4049  0.5255
10507TIP3   OH253011   1.642   5.982   1.950  0.0752  0.2429 -0.5349
10507TIP3    H153012   1.569   5.922   1.938  1.1347 -1.1591 -0.2875
10507TIP3    H253013   1.603   6.070   1.947 -1.5010 -0.4464 -1.0135
10508TIP3   OH253014   1.503   1.590  16.105 -0.3683 -0.1451  0.2254
10508TIP3    H153015   1.578   1.593  16.045  0.3803  0.5068  1.1716
10508TIP3    H253016   1.465   1.678  16.099 -0.1129  0.0197  0.9123
10509TIP3   OH253017   1.173   3.538  14.183  0.0098 -0.3604  0.1466
10509TIP3    H153018   1.170   3.480  14.107  0.9623 -1.9511  1.2695
10509TIP3    H253019   1.090   3.586  14.180 -1.5093 -2.8164 -0.0553
10510TIP3   OH253020   6.495   2.635   5.788  0.1862 -0.2248  0.7131
10510TIP3    H153021   6.515   2.589   5.707 -1.7438 -1.5574  0.9590
10510TIP3    H253022   6.547   2.590   5.855  1.8237  0.9112  0.2690
10511TIP3   OH253023   3.177   3.064  13.286  0.4686  0.2554  0.0499
10511TIP3    H153024   3.220   3.135  13.333  1.5508 -0.8599  0.8174
10511TIP3    H253025   3.231   2.987  13.304 -0.9725 -0.8887 -0.2783
10512TIP3   OH253026   4.068   3.624   6.617  0.2320  0.7429  0.4634
10512TIP3    H153027   4.065   3.697   6.556 -3.0731  0.2993 -0.0788
10512TIP3    H253028   4.057   3.546   6.562  1.4898 -0.0292  1.2518
10513TIP3   OH253029   6.026   2.510   0.210 -0.0763 -0.2673 -0.1488
10513TIP3    H153030   6.034   2.466   0.294  0.9212 -0.2115 -0.2060
10513TIP3    H253031   5.955   2.573   0.222 -1.2255 -1.5441  0.0727
10514TIP3   OH253032   0.975   6.235   4.791  0.0102 -0.2522  0.2970
10514TIP3    H153033   1.067   6.258   4.787  0.0273 -0.1635  1.0443
10514TIP3    H253034   0.932   6.313   4.825 -0.4603 -0.0018 -0.8326
10515TIP3   OH253035   6.304   3.325   1.659  0.3658  0.2399 -0.1733
10515TIP3    H153036   6.211   3.304   1.651  0.7006 -1.6391  0.2449
10515TIP3    H253037   6.338   3.260   1.720  1.7704  1.5443  0.5096
10516TIP3   OH253038   4.880   5.414   1.110 -0.1111 -0.7421 -0.1689
10516TIP3    H153039   4.800   5.450   1.073  0.5485  1.3833  0.2846
10516TIP3    H253040   4.851   5.344   1.168 -1.9239  1.4050  1.7334
10517TIP3   OH253041   0.952   2.255  15.754 -0.0306 -0.4268  0.3827
10517TIP3    H153042   1.027   2.198  15.736  0.5135 -0.5867  2.8123
10517TIP3    H253043   0.880   2.216  15.705  0.8991 -1.7907  0.0471
10518TIP3   OH253044   5.157   2.163  11.253 -0.5641 -0.0946 -0.2113
10518TIP3    H153045   5.205   2.236  11.213 -2.0491  1.1008  0.1030
10518TIP3    H253046   5.183   2.166  11.346  0.2318 -0.6904 -0.4056
10519TIP3   OH253047   1.864   0.556   0.117  0.3232 -0.4820  0.8057
10519TIP3    H153048   1.832   0.514   0.196  3.0575 -1.6465  1.3790
10519TIP3    H253049   1.844   0.494   0.047 -0.7676 -0.1079  0.7642
10520TIP3   OH253050   2.768   1.188   1.852  0.6184  0.3442 -0.1506
10520TIP3    H153051   2.825   1.258   1.820  0.4784  0.9198  0.8270
10520TIP3    H253052   2.726   1.153   1.773  1.4811  0.6553 -0.7577
10521TIP3   OH253053   1.750   6.041  16.786  0.1092  0.0757  0.4377
10521TIP3    H153054   1.726   6.107  16.722 -0.2736  1.4218  1.9128
10521TIP3    H253055   1.669   6.021  16.832  0.8119  1.0292  2.1875
10522TIP3   OH253056   6.153   3.181   2.993 -0.3824  0.1379 -0.1156
10522TIP3    H153057   6.101   3.203   2.916  1.1873  0.9434 -0.9986
10522TIP3    H253058   6.110   3.103   3.030 -0.7361 -0.7348 -2.2276
10523TIP3   OH253059   0.245   6.190   4.605 -0.2012  0.9546  0.0272
10523TIP3    H153060   0.277   6.210   4.518 -1.7939  1.4292 -0.4752
10523TIP3    H253061   0.213   6.099   4.599 -2.8095  1.8253 -0.7104
10524TIP3   OH253062   0.354   0.540  13.971 -0.4760  0.2933 -0.6170
10524TIP3    H153063   0.299   0.462  13.980 -0.6806  0.3437 -1.3729
10524TIP3    H253064   0.342   0.567  13.880 -0.2376  1.0838 -0.4186
10525TIP3   OH253065   5.575   3.417   2.635  0.3662 -0.3207 -0.0858
10525TIP3    H153066   5.627   3.441   2.711  1.0503  1.6739 -1.1189
10525TIP3    H253067   5.488   3.399   2.671  0.8122  0.0109  1.2299
10526TIP3   OH253068   4.953   1.793  11.613  0.0718  0.2691  0.4318
10526TIP3    H153069   4.955   1.859  11.544  1.2671 -1.4365 -1.2662
10526TIP3    H253070   4.984   1.839  11.692 -2.1122  2.4691  0.1097
10527TIP3   OH253071   6.701   1.738  16.027 -0.4144  0.0064  0.4096
10527TIP3    H153072   6.764   1.692  15.972 -1.2760 -1.3138  0.4905
10527TIP3    H253073   6.745   1.749  16.111  0.4815  1.0153 -0.1573
10528TIP3   OH253074   4.078   0.275   3.170  0.0172 -0.0043 -0.2148
10528TIP3    H153075   4.065   0.370   3.171  0.8883  0.1430  1.4378
10528TIP3    H253076   4.079   0.251   3.263  0.7078 -1.4978 -0.5878
10529TIP3   OH253077   5.645   5.775   2.614 -0.1732  0.0923  0.1703
10529TIP3    H153078   5.666   5.805   2.702  0.0406 -0.3626  0.2724
10529TIP3    H253079   5.571   5.831   2.587 -0.1318  0.3409  0.5683
10530TIP3   OH253080   6.581   4.917   1.086 -0.0249  0.1780 -0.2162
10530TIP3    H153081   6.592   4.944   1.177 -0.3815 -1.0323  0.2106
10530TIP3    H253082   6.643   4.971   1.037 -0.4350  1.4470  0.6179
10531TIP3   OH253083   1.076   2.506   6.838 -1.0014 -0.2320  0.7326
10531TIP3    H153084   1.068   2.587   6.789 -0.4123  0.7515  2.1834
10531TIP3    H253085   1.023   2.521   6.917 -0.6636 -1.1422  1.1465
10532TIP3   OH253086   5.220   6.094   1.146 -0.2949  0.4487  0.1158
10532TIP3    H153087   5.312   6.120   1.142  0.5111 -2.1572  0.3608
10532TIP3    H253088   5.209   6.028   1.078 -2.1689  1.1181 -0.3091
10533TIP3   OH253089   1.526   3.853   3.072  0.2572 -0.4587  0.4640
10533TIP3    H153090   1.585   3.920   3.038 -0.3650 -0.0680  0.1343
10533TIP3    H253091   1.579   3.773   3.074  0.6152 -0.2610 -0.4409
10534TIP3   OH253092   6.541   1.277  16.937  0.1954 -0.2370 -0.2213
10534TIP3    H153093   6.623   1.319  16.965 -0.7182  1.1018  0.5163
10534TIP3    H253094   6.510   1.231  17.015 -0.8900  1.1285  0.1864
10535TIP3   OH253095   5.673   0.796   5.143  0.4500 -0.2303  0.4460
10535TIP3    H153096   5.703   0.778   5.054  1.5502  2.2692  0.2214
10535TIP3    H253097   5.724   0.736   5.198  2.0515  0.2754 -0.4082
10536TIP3   OH253098   1.561   1.646  12.828  0.3024 -0.1492 -0.1719
10536TIP3    H153099   1.618   1.574  12.856  0.8835  0.6132  0.6856
10536TIP3    H253100   1.591   1.721  12.879 -1.3351  0.3387  0.1365
10537TIP3   OH253101   3.914   4.541   0.590  0.4999  0.8403  0.3331
10537TIP3    H153102   3.827   4.582   0.593  0.7428  1.3608  0.4596
10537TIP3    H253103   3.960   4.579   0.665  0.8026  0.4898  0.3252
10538TIP3   OH253104   1.377   4.278  13.776  0.2640  0.4643  0.1822
10538TIP3    H153105   1.283   4.266  13.784  0.4897 -1.8605 -0.0447
10538TIP3    H253106   1.391   4.301  13.684  0.0963 -2.0341 -0.5409
10539TIP3   OH253107   1.437   0.369  16.237 -1.0007  0.1473  0.7690
10539TIP3    H153108   1.425   0.290  16.290  0.2301 -0.4558  0.2033
10539TIP3    H253109   1.525   0.399  16.260  0.2815 -1.0838 -2.1030
10540TIP3   OH253110   1.673   0.447  16.319 -0.3680 -0.2623  0.6839
10540TIP3    H153111   1.735   0.426  16.249 -1.3217  0.5402 -0.4319
10540TIP3    H253112   1.699   0.534  16.348 -1.2578  0.2816 -0.1232
10541TIP3   OH253113   1.496   3.077   2.756 -0.3838  0.1398  0.7171
10541TIP3    H153114   1.577   3.057   2.804  0.0507 -0.8307 -0.3763
10541TIP3    H253115   1.450   2.994   2.751 -0.0794  0.0378 -1.1317
10542TIP3   OH253116   5.945   3.612  17.168 -0.2001 -0.5289  0.3063
10542TIP3    H153117   5.997   3.685  17.200  0.6138 -1.0648  0.2587
10542TIP3    H253118   5.991   3.534  17.201 -0.1583 -1.0544 -0.9084
10543TIP3   OH253119   0.038   0.915  12.794 -0.4664  0.1478 -0.1938
10543TIP3    H153120   0.100   0.979  12.830  1.8767 -2.1313  0.1389
10543TIP3    H253121   0.035   0.936  12.700  1.1699  0.1044 -0.2917
10544TIP3   OH253122   3.845   2.699   3.345  0.0645  0.2851  0.0498
10544TIP3    H153123   3.852   2.770   3.409  0.5185  0.7354 -0.4811
10544TIP3    H253124   3.844   2.744   3.261  0.2595 -0.3371 -0.2891
10545TIP3   OH253125   4.660   3.712  11.934  0.0213 -0.0063  0.6061
10545TIP3    H153126   4.609   3.785  11.900 -1.0612 -1.1430 -0.3467
10545TIP3    H253127   4.600   3.668  11.996  0.6001 -0.1655  1.0601
10546TIP3   OH253128   0.048   5.309  11.684 -0.2504 -0.2094 -0.0601
10546TIP3    H153129   0.047   5.375  11.753 -0.5822  0.7059 -0.9179
10546TIP3    H253130  -0.016   5.243  11.712 -1.6946  1.0454 -0.3312
10547TIP3   OH253131   4.081   2.821  10.560  0.4436 -0.3523  0.1100
10547TIP3    H153132   4.039   2.739  10.586 -2.0381  0.8423  0.1866
10547TIP3    H253133   4.153   2.832  10.621  1.0966 -2.6358 -0.1532
10548TIP3   OH253134   3.805   1.796   4.812  0.6469 -0.2683 -0.3230
10548TIP3    H153135   3.842   1.883   4.798  0.7858 -0.2916 -0.1005
10548TIP3    H253136   3.868   1.736   4.771  1.8879 -0.4674  1.7527
10549TIP3   OH253137   1.937   6.782  13.024 -0.3207 -0.0604 -0.3882
10549TIP3    H153138   1.912   6.733  13.102 -1.1867  0.1412 -0.5329
10549TIP3    H253139   1.860   6.777  12.967  0.3456 -0.3348 -1.2966
10550TIP3   OH253140   1.690   2.767   0.068 -0.2957 -0.4842 -0.1300
10550TIP3    H153141   1.772   2.733   0.105 -0.3700 -0.3158  0.1930
10550TIP3    H253142   1.622   2.735   0.127 -0.6709 -2.2101 -1.4324
10551TIP3   OH253143   3.574   4.137  14.478  0.5573  0.6330 -0.0698
10551TIP3    H153144   3.564   4.115  14.571 -2.1581 -0.6706 -0.5834
10551TIP3    H253145   3.668   4.131  14.462  0.9412 -0.6465  2.2545
10552TIP3   OH253146   2.458   1.743  16.493  0.2039 -0.1841  0.1891
10552TIP3    H153147   2.534   1.731  16.436 -0.8851 -1.5794 -1.0472
10552TIP3    H253148   2.404   1.807  16.448 -0.1412 -0.4494  0.2259
10553TIP3   OH253149   4.380   6.141   0.304 -0.4409 -0.0868  0.0020
10553TIP3    H153150   4.446   6.147   0.234  0.8112 -1.0105  1.0663
10553TIP3    H253151   4.343   6.229   0.309  0.0138  0.2029 -1.2862
10554TIP3   OH253152   2.071   6.467   0.671  0.1933  0.0244  0.3881
10554TIP3    H153153   2.149   6.445   0.620 -0.4834  0.4578 -0.8569
10554TIP3    H253154   2.044   6.384   0.709 -0.3350 -0.6943 -1.4544
10555TIP3   OH253155   2.061   0.687  11.299  0.2941  0.5778 -0.1121
10555TIP3    H153156   2.093   0.704  11.210 -0.9009 -0.5020 -0.7944
10555TIP3    H253157   1.980   0.738  11.306 -0.9925 -1.2839 -0.6246
10556TIP3   OH253158   4.383   0.609  17.276 -0.3631  0.1034  0.0657
10556TIP3    H153159   4.301   0.650  17.247 -0.3303  0.9112  1.0717
10556TIP3    H253160   4.442   0.682  17.294  0.0908 -0.4179  0.7662
10557TIP3   OH253161   4.230   3.498   5.792 -0.1321  0.1965  0.3352
10557TIP3    H153162   4.249   3.482   5.699 -0.7054  0.3248  0.1915
10557TIP3    H253163   4.294   3.564   5.818  0.8406 -0.7297  0.3633
10558TIP3   OH253164   2.709   5.046   3.642  0.1086 -0.1138  0.6186
10558TIP3    H153165   2.738   5.006   3.561  0.8931 -0.8491  1.2455
10558TIP3    H253166   2.759   5.001   3.711  0.4156  1.3867  1.4098
10559TIP3   OH253167   2.472   4.507  15.294 -0.4937  0.3491  0.2918
10559TIP3    H153168   2.428   4.568  15.353  0.0354  3.0032 -1.8680
10559TIP3    H253169   2.563   4.508  15.324 -0.8638 -1.1937  1.6118
10560TIP3   OH253170   1.945   3.565  15.972  0.3177  0.6335  0.4216
10560TIP3    H153171   1.897   3.574  15.890  1.7283  2.3225 -0.2814
10560TIP3    H253172   1.937   3.651  16.014  0.4190  0.0817  1.6107
10561TIP3   OH253173   6.746   4.461   5.262 -0.1186 -0.3192  0.4634
10561TIP3    H153174   6.765   4.441   5.171  0.0728  0.2661  0.3699
10561TIP3    H253175   6.817   4.421   5.312 -1.4519 -2.7134  0.5869
10562TIP3   OH253176   5.439   0.002   6.275  0.1477 -0.5711  0.3795
10562TIP3    H153177   5.452   0.093   6.302 -0.5182 -0.0442 -1.0087
10562TIP3    H253178   5.522  -0.023   6.233  0.3322 -0.6192  0.7660
10563TIP3   OH253179   2.049   0.831   3.996 -0.4578  0.1911  0.1069
10563TIP3    H153180   1.963   0.829   3.956 -1.0261 -1.1432  1.3122
10563TIP3    H253181   2.103   0.772   3.942 -0.2224  1.1718 -0.7563
10564TIP3   OH253182   2.347   0.974  11.260  0.2904 -0.2734  0.1080
10564TIP3    H153183   2.370   0.886  11.289 -0.8717 -0.0003  2.0982
10564TIP3    H253184   2.291   0.961  11.184 -1.2802 -1.3771  1.3882
10565TIP3   OH253185   2.427   3.113   3.083  0.3374 -0.1595  0.3970
10565TIP3    H153186   2.369   3.062   3.140  0.1555 -2.2605 -1.5404
10565TIP3    H253187   2.514   3.100   3.121  0.1312 -0.9249  0.6397
10566TIP3   OH253188   3.012   6.684   3.705  0.1510 -0.1538  0.2569
10566TIP3    H153189   2.966   6.609   3.667  0.3940 -0.4441  0.5353
10566TIP3    H253190   3.085   6.701   3.644  1.6802 -1.8147  1.5466
10567TIP3   OH253191   3.668   5.769   3.549  0.4799  0.7547  0.0255
10567TIP3    H153192   3.651   5.714   3.473  1.5610 -1.3656  1.2192
10567TIP3    H253193   3.753   5.809   3.531 -0.4064  2.2732 -0.9410
10568TIP3   OH253194   3.197   0.119  13.426 -0.0075  0.4045 -0.0829
10568TIP3    H153195   3.168   0.167  13.349 -0.4418  0.0522 -0.1428
10568TIP3    H253196   3.203   0.028  13.398  1.7423  0.5348 -0.2290
10569TIP3   OH253197   4.447   2.816  12.135  0.5790  0.2491  0.3574
10569TIP3    H153198   4.502   2.768  12.073 -0.6999  2.0527 -2.4006
10569TIP3    H253199   4.380   2.753  12.162  0.0207 -0.1286 -1.7112
10570TIP3   OH253200   3.260   1.048  16.461  0.0326 -0.1575  0.1500
10570TIP3    H153201   3.248   1.142  16.443 -0.6459  0.0544  1.5617
10570TIP3    H253202   3.205   1.004  16.397 -1.2259  0.4881  0.7618
10571TIP3   OH253203   6.324   0.245  12.570 -0.3530 -0.9987 -0.6122
10571TIP3    H153204   6.391   0.259  12.503  0.8403 -0.5219  0.6370
10571TIP3    H253205   6.294   0.155  12.554  0.5075 -1.1901 -1.2674
10572TIP3   OH253206   6.134   1.910  17.231  0.3703  0.1927  0.5052
10572TIP3    H153207   6.138   1.958  17.314 -2.0366 -2.6292  2.4689
10572TIP3    H253208   6.051   1.936  17.192  0.0533 -0.6919  0.5519
10573TIP3   OH253209   3.029   3.211   6.152 -0.8507 -0.0973 -0.4194
10573TIP3    H153210   3.064   3.122   6.160 -1.0091 -0.1107  0.1916
10573TIP3    H253211   2.947   3.200   6.104  0.5892  0.0951 -3.1379
10574TIP3   OH253212   4.422   4.211  12.130 -0.2214 -0.1897 -0.1999
10574TIP3    H153213   4.403   4.117  12.127 -1.2898  0.0099  0.1341
10574TIP3    H253214   4.340   4.252  12.158  0.3046  0.8265 -0.0991
10575TIP3   OH253215   4.395   5.249   1.953  0.1453 -0.3166 -0.3081
10575TIP3    H153216   4.469   5.301   1.983  0.0064 -0.7666  0.8594
10575TIP3    H253217   4.318   5.300   1.977  0.0127  1.3225 -3.6295
10576TIP3   OH253218   6.090   6.270  13.616  0.0974  0.4164 -0.0624
10576TIP3    H153219   6.088   6.363  13.594 -0.5158  0.4290  0.0435
10576TIP3    H253220   6.120   6.227  13.536 -0.8396  0.5842 -0.5095
10577TIP3   OH253221   5.370   4.523  16.555 -0.0531 -0.1149 -0.1524
10577TIP3    H153222   5.357   4.453  16.491 -1.4898  0.4035 -0.4752
10577TIP3    H253223   5.309   4.501  16.626  1.3142 -0.5269  0.9264
10578TIP3   OH253224   0.451   0.424  11.968  0.5280  0.6730 -0.4797
10578TIP3    H153225   0.461   0.503  12.022  1.1640  0.4261 -0.2300
10578TIP3    H253226   0.362   0.430  11.934  1.5138  3.1477 -3.0395
10579TIP3   OH253227   5.427   5.345  15.366  0.0710 -0.7787  0.4386
10579TIP3    H153228   5.333   5.343  15.385 -0.4108  1.1384 -1.3013
10579TIP3    H253229   5.469   5.317  15.447 -1.9786 -1.1172  1.4511
10580TIP3   OH253230   4.195   2.620  16.328 -0.7658  0.3084 -0.5514
10580TIP3    H153231   4.262   2.617  16.397 -0.6202 -0.7099 -0.7114
10580TIP3    H253232   4.116   2.587  16.370 -1.0224  0.9493 -0.5243
10581TIP3   OH253233   0.896   2.757   3.721  0.3646  0.1726 -0.2781
10581TIP3    H153234   0.907   2.662   3.718 -1.1248 -0.0560  0.5784
10581TIP3    H253235   0.817   2.774   3.670 -0.2528  0.7623  0.8207
10582TIP3   OH253236   2.133   6.212   2.074  0.5850  0.2342 -0.1375
10582TIP3    H153237   2.186   6.146   2.029  0.7489 -0.1955  0.6667
10582TIP3    H253238   2.058   6.163   2.108  0.4354  0.5618  0.0116
10583TIP3   OH253239   5.340   5.031  14.784  0.1652  0.5846  0.0033
10583TIP3    H153240   5.311   5.030  14.693  1.5681  0.8071 -0.4701
10583TIP3    H253241   5.416   4.973  14.786 -0.3513 -0.0758  1.2241
10584TIP3   OH253242   0.439   1.509  11.407 -0.8209 -0.2367  0.3004
10584TIP3    H153243   0.524   1.490  11.448  0.0523  0.6336 -1.0473
10584TIP3    H253244   0.460   1.568  11.335 -2.1547 -2.3573 -1.9813
10585TIP3   OH253245   0.457   2.236  13.898  0.3414  0.4721 -0.0697
10585TIP3    H153246   0.378   2.184  13.913 -1.1065  2.5487 -0.1202
10585TIP3    H253247   0.513   2.216  13.973 -0.3210 -0.8390  0.1095
10586TIP3   OH253248   2.008   4.323   0.177 -0.6521 -0.6670  0.3702
10586TIP3    H153249   1.941   4.347   0.114  0.0340 -0.3318 -0.2455
10586TIP3    H253250   1.976   4.356   0.261 -1.2286 -0.4759  0.0720
10587TIP3   OH253251   0.532   4.241  10.826  0.5733  0.0706 -0.0610
10587TIP3    H153252   0.590   4.317  10.827  0.4135  0.2158 -0.8234
10587TIP3    H253253   0.468   4.259  10.895 -0.2696  1.2972 -1.0991
10588TIP3   OH253254   1.042   3.220  16.561 -0.1549 -0.4670  0.0329
10588TIP3    H153255   1.035   3.310  16.595 -0.6111  0.0132 -1.2771
10588TIP3    H253256   1.089   3.173  16.630  0.2789  0.8196  0.6647
10589TIP3   OH253257   1.180   1.498   2.672  0.3029 -0.4702 -0.3346
10589TIP3    H153258   1.095   1.479   2.711 -0.3176  0.8313 -0.9944
10589TIP3    H253259   1.228   1.545   2.740  1.3986 -3.1161  0.8660
10590TIP3   OH253260   1.064   0.975  13.595 -1.0655  0.0715  0.2343
10590TIP3    H153261   1.031   0.908  13.655 -0.6938 -0.1268  0.2193
10590TIP3    H253262   1.106   0.926  13.524  0.6875  0.3203  1.0589
10591TIP3   OH253263   1.290   2.942   3.400 -0.3920  0.1006  0.0056
10591TIP3    H153264   1.251   2.947   3.313  0.3798 -0.1015 -0.3552
10591TIP3    H253265   1.215   2.932   3.459 -0.8544 -0.7649 -0.7151
10592TIP3   OH253266   0.615   0.067  17.161  0.5039  0.1111 -0.5650
10592TIP3    H153267   0.556   0.052  17.087  0.3893 -0.0651 -0.4372
10592TIP3    H253268   0.575   0.020  17.234  0.7930  0.0105 -0.4715
10593TIP3   OH253269   6.723   1.404  12.819 -0.1143 -0.8226 -0.0777
10593TIP3    H153270   6.666   1.340  12.863 -1.1655  0.3459  0.2946
10593TIP3    H253271   6.793   1.350  12.782 -0.3095 -2.0747  1.2493
10594TIP3   OH253272   4.592   6.072  15.813  0.3647 -0.0891 -0.1974
10594TIP3    H153273   4.647   5.993  15.814  0.3122 -0.1337  1.3235
10594TIP3    H253274   4.502   6.038  15.818  0.3534  0.0535  0.7536
10595TIP3   OH253275   4.239   1.260  14.765  0.0111  0.1468  0.0576
10595TIP3    H153276   4.267   1.351  14.752  0.2861  0.2796  1.4641
10595TIP3    H253277   4.321   1.211  14.774 -0.1534 -0.0522  0.4770
10596TIP3   OH253278   6.572   3.725  13.409 -0.2414  0.6234  0.1731
10596TIP3    H153279   6.492   3.776  13.424  0.0780  0.7095  1.6997
10596TIP3    H253280   6.622   3.777  13.347 -1.2249  0.7237 -0.5590
10597TIP3   OH253281   5.067   6.598  12.306 -0.0510 -0.0434  0.5535
10597TIP3    H153282   5.005   6.671  12.303  0.0455  0.0596  1.1196
10597TIP3    H253283   5.093   6.592  12.398  1.0019  0.0877  0.2689
10598TIP3   OH253284   1.769   3.175  13.549 -0.0637 -0.6928  0.8186
10598TIP3    H153285   1.824   3.182  13.471  2.2319  0.9084  2.4911
10598TIP3    H253286   1.830   3.176  13.622 -2.1964 -1.3834  2.7096
10599TIP3   OH253287   1.292   5.630  16.287  0.3078 -0.9328 -0.3710
10599TIP3    H153288   1.198   5.633  16.305  0.2489 -0.4698 -0.7183
10599TIP3    H253289   1.303   5.683  16.207  1.0577  0.3708  0.5473
10600TIP3   OH253290   1.305   1.523  14.797 -0.1745 -0.1782 -0.3982
10600TIP3    H153291   1.243   1.587  14.763  1.4437  0.6072 -2.0538
10600TIP3    H253292   1.255   1.441  14.803 -1.5120  0.5721 -1.0251
10601TIP3   OH253293   6.045   3.952   0.508 -0.0293  0.2595  0.3765
10601TIP3    H153294   6.069   3.859   0.502 -1.4073 -0.0539 -2.3902
10601TIP3    H253295   5.964   3.952   0.559  0.6823  0.1383  1.5313
10602TIP3   OH253296   2.673   0.285   0.876  0.7286 -0.0808  0.2983
10602TIP3    H153297   2.627   0.267   0.794  2.2564  1.3910 -0.9658
10602TIP3    H253298   2.613   0.255   0.944  0.6519 -4.2841 -1.3226
10603TIP3   OH253299   4.470   0.463  11.069 -0.1533 -0.0754  0.1046
10603TIP3    H153300   4.494   0.538  11.123 -0.5587 -0.0471  0.2437
10603TIP3    H253301   4.536   0.397  11.089 -0.3179 -0.0743  0.6504
10604TIP3   OH253302   3.931   4.946   4.996 -0.3286  0.2300 -0.2455
10604TIP3    H153303   3.913   5.027   5.043 -0.2184  0.1169 -0.0100
10604TIP3    H253304   3.888   4.958   4.911 -0.0760  0.6482 -0.3145
10605TIP3   OH253305   5.404   1.923   2.147 -0.2907 -0.3658 -0.1333
10605TIP3    H153306   5.392   1.828   2.143 -0.3253 -0.3178 -1.7789
10605TIP3    H253307   5.493   1.937   2.116 -0.1479  0.1239  0.4855
10606TIP3   OH253308   2.065   4.928   0.818 -0.1745  0.4808  0.7095
10606TIP3    H153309   2.137   4.901   0.762  0.1730 -0.9984  1.7849
10606TIP3    H253310   1.987   4.891   0.777 -0.1622  0.9568  0.2491
10607TIP3   OH253311   6.566   2.149  11.544 -0.3677 -0.1649  0.4253
10607TIP3    H153312   6.650   2.152  11.498  0.5004  2.3947  1.9787
10607TIP3    H253313   6.569   2.066  11.592  0.5466 -0.8592 -0.7789
10608TIP3   OH253314   6.806   0.357   3.782  0.1617 -0.3243  0.3801
10608TIP3    H153315   6.884   0.320   3.739  1.5107  0.6109  1.9181
10608TIP3    H253316   6.825   0.450   3.790 -1.8381  0.2126 -0.6075
10609TIP3   OH253317   4.060   4.566   4.448 -0.8380 -0.2789  0.2094
10609TIP3    H153318   4.124   4.633   4.471  0.6224 -1.4292 -0.3521
10609TIP3    H253319   4.050   4.573   4.354 -0.4592 -1.0074  0.1068
10610TIP3   OH253320   2.118   1.531   5.457  0.0840  0.0726 -0.6935
10610TIP3    H153321   2.110   1.605   5.396 -2.0720  1.2056  0.8503
10610TIP3    H253322   2.208   1.537   5.491  0.6009  0.7089 -2.1075
10611TIP3   OH253323   1.530   0.047  14.820 -0.0051  0.2835 -0.2122
10611TIP3    H153324   1.588   0.081  14.752  0.2939 -0.2434 -0.2237
10611TIP3    H253325   1.496   0.126  14.863 -0.1638  0.6203 -0.9364
10612TIP3   OH253326   5.647   0.172   2.487  0.7013 -0.1724  0.0602
10612TIP3    H153327   5.741   0.187   2.476  0.7190 -1.6673 -2.5264
10612TIP3    H253328   5.641   0.085   2.526  0.4100 -0.4520 -0.5898
10613TIP3   OH253329   2.482   6.182  14.857  0.0480  0.0943  0.2811
10613TIP3    H153330   2.445   6.105  14.814  0.1147 -0.1834  0.7186
10613TIP3    H253331   2.552   6.148  14.912 -0.1493  0.4236  0.7479
10614TIP3   OH253332   3.966   1.488   0.881 -0.5132 -0.0246 -0.2295
10614TIP3    H153333   3.992   1.549   0.812 -2.0943  1.1771  0.1666
10614TIP3    H253334   3.916   1.420   0.836  0.7358 -0.7246 -0.5935
10615TIP3   OH253335   4.661   6.766  11.527  0.1744 -0.4898  0.6030
10615TIP3    H153336   4.589   6.765  11.464  0.7406  1.2099 -0.1276
10615TIP3    H253337   4.659   6.679  11.567 -1.6051 -0.8389 -0.1489
10616TIP3   OH253338   6.274   4.166   2.845 -0.0202 -0.6223  0.3119
10616TIP3    H153339   6.271   4.228   2.772 -1.2699 -1.2541 -0.2246
10616TIP3    H253340   6.357   4.182   2.888  0.6745 -0.1067 -1.1685
10617TIP3   OH253341   2.435   0.686  11.322 -0.7631 -0.3026 -0.0191
10617TIP3    H153342   2.470   0.624  11.258 -0.9539 -1.1487  0.6837
10617TIP3    H253343   2.379   0.633  11.379 -2.6200  0.8707 -0.6672
10618TIP3   OH253344   2.475   2.050  15.354 -0.6451  0.0665  0.2567
10618TIP3    H153345   2.535   2.013  15.289 -1.3800 -0.2237 -0.2728
10618TIP3    H253346   2.504   2.140  15.364 -0.3698  0.0460 -0.2954
10619TIP3   OH253347   1.542   4.696   6.310  0.8629  0.0188 -0.3078
10619TIP3    H153348   1.497   4.697   6.226 -0.4569  0.7896  0.3782
10619TIP3    H253349   1.472   4.699   6.375  1.8891  1.4313  0.7985
10620TIP3   OH253350   5.707   4.699  16.277 -0.4665  0.2652 -0.0920
10620TIP3    H153351   5.776   4.640  16.309 -1.4131 -0.2798  1.0215
10620TIP3    H253352   5.667   4.735  16.356  0.9501  3.5407 -0.7078
10621TIP3   OH253353   5.434   5.993  14.031  0.5780 -0.7280  0.2013
10621TIP3    H153354   5.375   5.922  14.055  2.2745 -2.0672  0.6585
10621TIP3    H253355   5.447   5.983  13.937  0.6376 -0.8955  0.2277
10622TIP3   OH253356   5.984   5.918  13.982 -0.3456  0.6790  0.4091
10622TIP3    H153357   5.998   5.992  13.923 -1.0497 -0.0638 -0.7280
10622TIP3    H253358   6.027   5.844  13.939 -0.8946  0.1141  0.8122
10623TIP3   OH253359   2.824   3.853  11.333 -0.3614 -0.1523 -0.6025
10623TIP3    H153360   2.767   3.785  11.295  1.2172 -1.9413  0.0709
10623TIP3    H253361   2.894   3.864  11.267  0.3630 -0.5412  0.0807
10624TIP3   OH253362   5.321   2.523  15.286  0.2385  0.3213  0.0916
10624TIP3    H153363   5.249   2.491  15.232  0.3907  0.0186  0.0696
10624TIP3    H253364   5.392   2.461  15.272  0.7155  0.9652 -0.3684
10625TIP3   OH253365   0.810   5.299  14.651 -0.2197 -0.1643  0.5032
10625TIP3    H153366   0.893   5.346  14.644 -1.2991  1.7536  0.0114
10625TIP3    H253367   0.751   5.360  14.694 -1.7554 -0.9833 -0.3471
10626TIP3   OH253368   4.283   6.719   0.797 -0.0489 -0.0921 -0.0313
10626TIP3    H153369   4.253   6.802   0.834 -1.4893 -0.5187 -0.1652
10626TIP3    H253370   4.323   6.743   0.713 -0.0318  0.5058  0.1437
10627TIP3   OH253371   5.746   1.068   0.335  0.2596  0.5684  0.1024
10627TIP3    H153372   5.763   1.151   0.380 -0.3702  0.2926  0.8777
10627TIP3    H253373   5.758   1.088   0.243  0.8757  1.3324  0.3299
10628TIP3   OH253374   4.514   1.303   4.862 -0.4588  0.2853  0.3050
10628TIP3    H153375   4.564   1.363   4.808 -1.4136  0.3614 -0.5141
10628TIP3    H253376   4.527   1.334   4.952 -1.0292  1.8011 -0.1111
10629TIP3   OH253377   0.573   0.790  13.262  0.1076  0.8099  0.3733
10629TIP3    H153378   0.572   0.714  13.204 -0.9031 -1.2577  2.9432
10629TIP3    H253379   0.513   0.852  13.221  0.0327 -0.2377 -1.1731
10630TIP3   OH253380   3.459   6.513   3.035  0.2226  0.8323 -0.0262
10630TIP3    H153381   3.540   6.539   2.993  0.0778  0.2064 -0.7327
10630TIP3    H253382   3.398   6.585   3.018  0.7085  1.4332  0.7606
10631TIP3   OH253383   3.237   3.499   0.504 -0.4949  0.1938 -0.0300
10631TIP3    H153384   3.183   3.451   0.442 -1.9555  1.5982  0.0887
10631TIP3    H253385   3.289   3.559   0.450 -3.1060  2.7501  0.0681
10632TIP3   OH253386   3.176   0.416  16.170 -0.1795  0.1233 -0.0922
10632TIP3    H153387   3.122   0.466  16.231 -1.7324  0.7190 -1.8383
10632TIP3    H253388   3.174   0.326  16.202 -1.2429  0.3604  0.5422
10633TIP3   OH253389   3.519   0.220   0.735 -0.4423  0.5319 -0.1218
10633TIP3    H153390   3.485   0.146   0.685 -2.3512  1.6556 -0.5927
10633TIP3    H253391   3.613   0.222   0.715 -0.6810 -0.6653 -1.5099
10634TIP3   OH253392   5.781   0.097  14.299 -0.3619 -0.1248  0.2398
10634TIP3    H153393   5.821   0.054  14.374 -0.6649 -0.2175  0.3488
10634TIP3    H253394   5.715   0.034  14.268  0.2672 -0.4076 -0.5543
10635TIP3   OH253395   5.067   6.341  11.532 -0.4597 -0.4306 -1.0094
10635TIP3    H153396   4.983   6.327  11.577 -0.3042 -0.9882 -0.8797
10635TIP3    H253397   5.062   6.430  11.499 -0.8826 -0.2679 -0.5272
10636TIP3   OH253398   0.421   4.259  11.781  0.3428  0.0359  0.4814
10636TIP3    H153399   0.379   4.345  11.774 -1.0829 -0.7416 -1.6293
10636TIP3    H253400   0.383   4.221  11.860 -2.0942 -0.1146 -0.6517
10637TIP3   OH253401   2.409   0.529  13.437 -0.1777 -0.3337  0.0414
10637TIP3    H153402   2.441   0.558  13.351  0.5093 -0.8304  0.1249
10637TIP3    H253403   2.413   0.433  13.433 -0.2544 -0.3601  0.5855
10638TIP3   OH253404   0.152   4.477   3.362 -0.1629  0.1251  0.1651
10638TIP3    H153405   0.140   4.480   3.457 -0.1459 -0.7881  0.1974
10638TIP3    H253406   0.065   4.496   3.327 -0.2151  0.2533  0.3628
10639TIP3   OH253407   4.917   6.342   4.823  0.0129  0.3366  0.6649
10639TIP3    H153408   4.982   6.380   4.882  0.6031  0.6900 -0.1876
10639TIP3    H253409   4.955   6.258   4.797 -0.3578  0.0698  0.9606
10640TIP3   OH253410   3.707   3.954  16.920 -0.6201  0.3273 -0.1188
10640TIP3    H153411   3.712   3.866  16.881 -1.1659  0.3531 -0.2560
10640TIP3    H253412   3.648   4.002  16.862 -0.4494  0.7369  0.0480
10641TIP3   OH253413   6.757   6.735   1.524  0.0619  0.4809  0.1108
10641TIP3    H153414   6.848   6.759   1.540 -0.2122  1.6430  0.0040
10641TIP3    H253415   6.722   6.716   1.611  0.4612 -0.2222  0.1286
10642TIP3   OH253416   6.700   0.471   2.054 -0.3594 -0.8403 -0.1277
10642TIP3    H153417   6.736   0.406   2.115  0.8442 -0.1934 -0.1085
10642TIP3    H253418   6.768   0.538   2.048 -1.5267  0.3748 -0.2333
10643TIP3   OH253419   1.694   0.034   2.822  0.5958 -0.1899 -0.1792
10643TIP3    H153420   1.709   0.101   2.756  2.6770  0.7292  1.1395
10643TIP3    H253421   1.746  -0.041   2.793  0.3552 -0.3028 -0.3199
10644TIP3   OH253422   2.213   2.649   0.811  0.2525 -0.6236 -0.1273
10644TIP3    H153423   2.152   2.650   0.885 -0.2066  0.9887 -0.4863
10644TIP3    H253424   2.266   2.570   0.824 -3.2902 -3.3733 -0.9550
10645TIP3   OH253425   4.410   5.197   4.498  0.1438  0.0027 -0.4601
10645TIP3    H153426   4.431   5.287   4.522  1.5172 -0.4861  0.2540
10645TIP3    H253427   4.445   5.187   4.409  0.2518  0.0950 -0.4282
10646TIP3   OH253428   3.712   1.834   6.440  0.2130  0.0145 -0.4124
10646TIP3    H153429   3.797   1.820   6.399  0.2922  0.2446 -0.3253
10646TIP3    H253430   3.662   1.884   6.376  0.2513  0.1556 -0.3321
10647TIP3   OH253431   0.582   2.309  16.534  0.5437 -0.1623  0.5199
10647TIP3    H153432   0.575   2.258  16.615  0.7653 -1.0251  0.0066
10647TIP3    H253433   0.517   2.379  16.544 -0.0269 -0.7608  1.0850
10648TIP3   OH253434   0.920   3.317  11.747 -0.0760 -0.5289  0.2759
10648TIP3    H153435   0.833   3.291  11.716  0.3587 -2.0272  0.2457
10648TIP3    H253436   0.926   3.278  11.834 -0.0335  0.9195  0.9430
10649TIP3   OH253437   5.821   4.892  15.338  0.0754 -0.1906 -0.6645
10649TIP3    H153438   5.883   4.860  15.273  1.7002  1.3584  0.0333
10649TIP3    H253439   5.850   4.981  15.357 -1.8549  0.2743  0.3536
10650TIP3   OH253440   5.374   2.241   2.200  0.0726  0.0603  0.0286
10650TIP3    H153441   5.368   2.278   2.288 -0.3706  1.9426 -0.7548
10650TIP3    H253442   5.294   2.271   2.156  0.9083  0.2469 -1.4141
10651TIP3   OH253443   4.561   4.888   0.304 -0.0198 -0.7972 -0.4392
10651TIP3    H153444   4.637   4.830   0.312  1.0492  0.4723 -0.8943
10651TIP3    H253445   4.490   4.842   0.350  0.8500 -2.3027 -0.5434
10652TIP3   OH253446   6.614   2.243  16.597 -0.1546 -0.3069 -0.0105
10652TIP3    H153447   6.655   2.161  16.626  1.7218  0.7491  0.4676
10652TIP3    H253448   6.564   2.272  16.673 -1.8910 -1.5808 -0.5837
10653TIP3   OH253449   1.485   5.861   3.958  0.5688  0.1458 -0.0129
10653TIP3    H153450   1.444   5.777   3.978 -1.1339  1.1287  0.8110
10653TIP3    H253451   1.511   5.896   4.043 -0.5044  1.2979 -0.1361
10654TIP3   OH253452   2.805   1.517   4.462  0.0123 -0.0179 -0.7881
10654TIP3    H153453   2.757   1.533   4.380 -0.6635  0.3681 -0.3326
10654TIP3    H253454   2.736   1.514   4.529  0.2606 -2.9454 -0.5415
10655TIP3   OH253455   1.034   0.504  17.276 -0.4988  0.3717  0.0959
10655TIP3    H153456   1.065   0.591  17.298  0.0017  0.2398 -0.0610
10655TIP3    H253457   0.942   0.516  17.252 -0.3525  0.9060 -0.2201
10656TIP3   OH253458   1.840   3.921   6.030  0.0624 -0.2722  0.0971
10656TIP3    H153459   1.782   3.996   6.021 -0.1303 -0.4837 -0.4356
10656TIP3    H253460   1.908   3.934   5.964  0.1908 -0.4228  0.1956
10657TIP3   OH253461   2.701   1.547   6.058 -0.1930  0.0509 -0.4144
10657TIP3    H153462   2.738   1.630   6.090 -1.6767  0.6569 -0.2078
10657TIP3    H253463   2.607   1.556   6.071 -0.6067 -0.7689 -2.4793
10658TIP3   OH253464   5.668   1.625   5.460 -0.5192 -0.8144  0.5919
10658TIP3    H153465   5.701   1.669   5.382 -1.6413  0.5992  0.8673
10658TIP3    H253466   5.648   1.697   5.521 -0.5484 -1.8332  1.8137
10659TIP3   OH253467   6.803   5.853   2.446  0.4678  0.1097 -0.7165
10659TIP3    H153468   6.832   5.871   2.356 -0.0026 -0.9990 -1.1070
10659TIP3    H253469   6.873   5.800   2.484 -0.3007 -1.3074 -1.1793
10660TIP3   OH253470   4.799   4.057  15.637  0.0470 -0.2880  0.2293
10660TIP3    H153471   4.711   4.033  15.608  0.6981  0.5081 -2.7731
10660TIP3    H253472   4.855   3.987  15.603  0.8492  0.5031 -0.1037
10661TIP3   OH253473   6.501   3.727   0.957  0.0063  0.2411 -0.5443
10661TIP3    H153474   6.468   3.801   0.906  0.3136 -0.7122 -2.2030
10661TIP3    H253475   6.427   3.666   0.961  0.2404 -0.0439 -0.5488
10662TIP3   OH253476   0.269   0.729   2.779  0.1267  0.0554  0.3496
10662TIP3    H153477   0.228   0.679   2.849 -0.6838 -0.3579 -0.4128
10662TIP3    H253478   0.197   0.758   2.724  0.8671 -1.0243 -1.2472
10663TIP3   OH253479   4.967   6.615  10.756  0.1622 -1.0195 -0.0380
10663TIP3    H153480   4.950   6.705  10.731 -0.0359 -1.1947 -0.5467
10663TIP3    H253481   4.944   6.563  10.679  2.9965 -1.3099 -0.7960
10664TIP3   OH253482   0.689   4.909  15.319  0.3735  0.0272  0.2487
10664TIP3    H153483   0.750   4.922  15.391  1.7341  0.5719 -0.9677
10664TIP3    H253484   0.664   4.998  15.292 -1.0916 -0.1824  0.8034
10665TIP3   OH253485   1.275   3.401   0.176  0.1342 -0.0298  0.3092
10665TIP3    H153486   1.353   3.416   0.230  0.6259 -1.5579  0.0435
10665TIP3    H253487   1.224   3.337   0.225  0.6225 -1.5094 -1.0178
10666TIP3   OH253488   1.519   6.624   5.630 -0.0056 -1.0761 -0.4220
10666TIP3    H153489   1.489   6.583   5.549 -1.0387 -0.0904 -0.5664
10666TIP3    H253490   1.561   6.705   5.601  0.0299 -0.9428 -0.0042
10667TIP3   OH253491   5.691   5.274  10.955  0.3695 -0.3230 -0.0251
10667TIP3    H153492   5.743   5.237  11.026  0.0629 -0.2351  0.2502
10667TIP3    H253493   5.743   5.259  10.877  0.0301 -1.8009  0.0054
10668TIP3   OH253494   4.440   2.426   6.193  0.0322 -0.2041 -0.5332
10668TIP3    H153495   4.536   2.424   6.188  0.0925  0.2892  0.2659
10668TIP3    H253496   4.421   2.485   6.266 -0.9179  1.6439 -2.1732
10669TIP3   OH253497   0.393   3.541  15.818 -0.1626 -0.3136  0.1294
10669TIP3    H153498   0.385   3.599  15.743 -1.7799  0.4979  0.8863
10669TIP3    H253499   0.348   3.587  15.889  0.7675 -1.3425  1.4388
10670TIP3   OH253500   2.977   3.645  15.279  1.1747  0.4793  0.1939
10670TIP3    H153501   2.994   3.572  15.220 -0.5390  2.1323 -2.5989
10670TIP3    H253502   3.064   3.676  15.305  1.9599 -1.0261 -0.5247
10671TIP3   OH253503   3.147   3.466   5.835 -0.4124 -0.1863 -0.1135
10671TIP3    H153504   3.105   3.503   5.757  0.5195 -1.0590 -1.0572
10671TIP3    H253505   3.171   3.377   5.809  1.0186 -0.0798  0.7754
10672TIP3   OH253506   1.009   2.580  13.918  0.0940  0.1062  0.5998
10672TIP3    H153507   1.023   2.524  13.841 -1.3484  0.1473  0.2733
10672TIP3    H253508   0.981   2.664  13.882  0.0679  0.3375  1.1493
10673TIP3   OH253509   4.867   4.049  12.577  0.4624 -0.1203 -0.1773
10673TIP3    H153510   4.842   4.076  12.665  1.5921 -1.1147  0.4843
10673TIP3    H253511   4.956   4.015  12.587 -0.0815 -2.0625 -1.3006
10674TIP3   OH253512   1.902   4.316  13.590  0.5136  0.3471  0.2413
10674TIP3    H153513   1.901   4.343  13.499  2.3438 -1.0034 -0.2322
10674TIP3    H253514   1.887   4.222  13.587  2.5280 -0.0570  1.1272
10675TIP3   OH253515   4.571   1.205   0.051  0.2891 -0.1448  0.1163
10675TIP3    H153516   4.626   1.236   0.123 -1.3754  0.7840  1.0452
10675TIP3    H253517   4.564   1.111   0.065  0.4158 -0.0498  0.8545
10676TIP3   OH253518   4.022   2.608   2.795  0.2097 -0.1829 -0.4236
10676TIP3    H153519   3.989   2.518   2.791 -0.1092 -0.0777 -0.2823
10676TIP3    H253520   3.969   2.656   2.732  0.7564 -0.2027 -0.9049
10677TIP3   OH253521   1.494   6.293   0.035  0.4446  0.5361  0.3200
10677TIP3    H153522   1.404   6.262   0.045  0.7797  0.1669  3.4521
10677TIP3    H253523   1.492   6.383   0.069  0.7810  1.5866 -2.2657
10678TIP3   OH253524   4.642   6.307  10.794  0.5847 -0.3506  0.4874
10678TIP3    H153525   4.566   6.307  10.853  0.7820  0.1151  0.7506
10678TIP3    H253526   4.712   6.347  10.846  0.9508 -0.5697  0.1675
10679TIP3   OH253527   4.907   2.948  12.644  0.3255 -0.2432  0.0016
10679TIP3    H153528   4.904   3.041  12.669 -1.5769 -0.3030  0.1143
10679TIP3    H253529   4.831   2.909  12.688  1.8928 -2.1868  1.1679
10680TIP3   OH253530   0.710   4.832  12.167  0.2501  0.2819 -0.2071
10680TIP3    H153531   0.627   4.874  12.147 -2.5858 -3.3552  2.3414
10680TIP3    H253532   0.724   4.770  12.095 -0.3438 -0.3943  0.2378
10681TIP3   OH253533   4.183   5.706  15.946  0.4509 -0.3390 -0.6188
10681TIP3    H153534   4.118   5.683  15.880 -0.5404  1.1817 -0.2053
10681TIP3    H253535   4.201   5.624  15.992 -0.3088 -1.0060 -1.4842
10682TIP3   OH253536   5.241   5.539  12.667 -0.2406 -0.8316  0.2073
10682TIP3    H153537   5.293   5.460  12.652  1.6002  0.4852 -0.7008
10682TIP3    H253538   5.264   5.567  12.756  0.7200 -0.1818 -0.2394
10683TIP3   OH253539   5.307   4.945  13.069  0.0576  0.6361 -0.1265
10683TIP3    H153540   5.334   4.955  12.978 -0.8827 -0.5322 -0.5693
10683TIP3    H253541   5.268   4.857  13.073 -0.6902  0.9923  1.2068
10684TIP3   OH253542   0.434   2.531   3.509 -0.0292 -0.4916  0.2369
10684TIP3    H153543   0.358   2.583   3.483 -0.3028 -1.6775 -1.5414
10684TIP3    H253544   0.402   2.475   3.580 -0.2933  0.3169  0.7577
10685TIP3   OH253545   1.130   5.712  15.822  0.7219 -0.7389  0.2896
10685TIP3    H153546   1.175   5.628  15.826  1.0629 -0.5177  1.3656
10685TIP3    H253547   1.081   5.716  15.904 -0.9013 -0.7653 -0.6329
10686TIP3   OH253548   5.991   2.820  16.216 -0.1140  0.0009 -0.2781
10686TIP3    H153549   6.024   2.821  16.126 -0.7021  0.0545 -0.4989
10686TIP3    H253550   5.987   2.727  16.239  1.8340  0.0331  0.3830
10687TIP3   OH253551   5.460   3.839  11.828 -0.6338  0.3502 -0.3233
10687TIP3    H153552   5.411   3.854  11.909 -1.3800  2.7705 -1.1564
10687TIP3    H253553   5.493   3.749  11.837 -0.6459  0.5388  2.6696
10688TIP3   OH253554   1.432   0.621  14.610 -0.8604  0.5839 -0.0582
10688TIP3    H153555   1.438   0.575  14.693  0.4581 -0.9884 -0.9534
10688TIP3    H253556   1.430   0.552  14.544 -0.8502  1.7971 -1.3859
10689TIP3   OH253557   1.305   0.086   4.408 -0.1114  0.0083 -0.5117
10689TIP3    H153558   1.361   0.119   4.338 -0.9364 -0.3328 -1.3437
10689TIP3    H253559   1.221   0.068   4.366 -0.7688  0.2350  0.6538
10690TIP3   OH253560   5.402   0.963  12.477 -0.0765 -0.3011 -0.2412
10690TIP3    H153561   5.359   1.021  12.540 -2.2933  0.1027 -1.9812
10690TIP3    H253562   5.405   0.878  12.520  0.5316  0.4206  1.2229
10691TIP3   OH253563   6.216   2.570   5.180 -0.1788  0.1425 -0.0775
10691TIP3    H153564   6.258   2.648   5.217  0.2511  0.2758 -0.8270
10691TIP3    H253565   6.152   2.544   5.246  1.0167 -0.0094  1.0486
10692TIP3   OH253566   0.538   5.198  13.709 -0.3224  0.4166  0.1092
10692TIP3    H153567   0.536   5.103  13.726 -3.2054  0.2763 -0.5750
10692TIP3    H253568   0.582   5.206  13.625 -1.4372 -0.5148 -0.5960
10693TIP3   OH253569   3.741   2.068  14.109 -0.0607  0.5093 -0.6348
10693TIP3    H153570   3.791   2.147  14.129  1.0247 -0.4550  0.5694
10693TIP3    H253571   3.783   2.032  14.031 -0.5334  1.0719 -1.1634
10694TIP3   OH253572   2.895   6.820   4.506 -0.1141 -0.1791 -0.2070
10694TIP3    H153573   2.930   6.883   4.569  0.5105 -1.9126  1.3108
10694TIP3    H253574   2.926   6.849   4.421  1.6195  0.5864  0.6548
10695TIP3   OH253575   5.997   0.824  14.594  0.1410  0.2862 -0.0759
10695TIP3    H153576   6.058   0.761  14.630 -0.1487  0.0270 -0.0369
10695TIP3    H253577   5.915   0.808  14.641 -0.4874 -0.6185 -1.4085
10696TIP3   OH253578   5.394   1.608  11.263 -0.7888 -0.3015  0.0218
10696TIP3    H153579   5.425   1.578  11.348 -1.6237  0.6148  0.6592
10696TIP3    H253580   5.473   1.610  11.208 -0.1060 -0.0968  0.9977
10697TIP3   OH253581   3.809   4.177  10.754  0.1290 -0.0502 -0.5914
10697TIP3    H153582   3.786   4.220  10.837  0.1487 -0.3931 -0.4085
10697TIP3    H253583   3.787   4.242  10.687 -1.1997 -0.2803 -0.4121
10698TIP3   OH253584   6.433   3.999   5.071  0.5879  0.0634  0.1371
10698TIP3    H153585   6.419   4.047   5.153 -0.3090 -0.4854  0.3123
10698TIP3    H253586   6.529   3.994   5.063  0.6875  0.4969  0.9291
10699TIP3   OH253587   1.759   3.849  12.603  0.3984  0.7337  0.5459
10699TIP3    H153588   1.751   3.756  12.626 -1.2283  0.4406 -0.9876
10699TIP3    H253589   1.843   3.855  12.558  0.2122 -0.1560  0.0486
10700TIP3   OH253590   5.765   3.954  16.710 -0.1994 -0.3570  0.4404
10700TIP3    H153591   5.676   3.946  16.675  0.1176  0.1390 -0.5075
10700TIP3    H253592   5.811   4.008  16.646  0.0803  1.6530  2.2421
10701TIP3   OH253593   6.491   1.483   4.169  0.2404  0.0721 -0.4214
10701TIP3    H153594   6.461   1.573   4.161 -0.6098 -0.1247  0.4472
10701TIP3    H253595   6.473   1.459   4.259  0.8949 -0.8249 -0.5090
10702TIP3   OH253596   1.505   6.685   1.167 -0.0829 -0.0241  0.2753
10702TIP3    H153597   1.590   6.702   1.209  0.1428 -1.2811  0.3782
10702TIP3    H253598   1.444   6.743   1.213  0.3070 -0.7793  1.8366
10703TIP3   OH253599   3.781   1.806   1.085  0.0194  0.2948 -0.0984
10703TIP3    H153600   3.734   1.862   1.024 -0.2555 -0.3157 -0.4590
10703TIP3    H253601   3.765   1.717   1.053  0.5836  0.0197  0.3654
10704TIP3   OH253602   4.872   3.934   1.793 -0.0346  0.2664  0.1640
10704TIP3    H153603   4.801   3.924   1.730  0.0334  0.7438  0.0036
10704TIP3    H253604   4.910   3.847   1.801 -1.3438 -0.2496  1.1039
10705TIP3   OH253605   4.613   0.796  11.280 -0.2794  0.2904 -0.0164
10705TIP3    H153606   4.555   0.751  11.342 -1.6834 -0.2119 -1.6191
10705TIP3    H253607   4.560   0.865  11.243  0.2920  0.1193 -1.1909
10706TIP3   OH253608   6.517   1.536   2.199 -0.0409  0.0401 -0.0313
10706TIP3    H153609   6.528   1.480   2.276  0.0552  0.0683 -0.0241
10706TIP3    H253610   6.555   1.485   2.127  3.4591  1.5364  0.5524
10707TIP3   OH253611   1.836   1.069  14.246  0.8073  0.1870 -0.1844
10707TIP3    H153612   1.829   1.108  14.333 -0.6401  2.9152 -1.3985
10707TIP3    H253613   1.909   1.007  14.253  1.4962  1.1754  2.6369
10708TIP3   OH253614   0.443   6.800   1.268 -0.0943 -0.2606  0.3919
10708TIP3    H153615   0.402   6.716   1.245 -0.0581 -0.5975  1.5040
10708TIP3    H253616   0.489   6.782   1.350  0.1395  0.7846  0.4955
10709TIP3   OH253617   4.066   2.377  12.320  0.1211 -0.0137  0.2754
10709TIP3    H153618   4.039   2.468  12.310 -0.7326 -0.2075  0.7278
10709TIP3    H253619   4.035   2.334  12.240  0.6882  0.1278 -0.0229
10710TIP3   OH253620   0.718   1.804   3.883 -0.1186 -0.5651 -0.1125
10710TIP3    H153621   0.702   1.897   3.901 -1.2173 -0.7823  0.1097
10710TIP3    H253622   0.743   1.768   3.968  2.5454 -0.0706 -0.6041
10711TIP3   OH253623   2.736   3.845   2.618 -0.1541 -0.2547  0.7184
10711TIP3    H153624   2.686   3.793   2.555  1.2570 -1.6599  0.6719
10711TIP3    H253625   2.678   3.917   2.642 -1.1428 -0.2944 -1.3560
10712TIP3   OH253626   4.869   2.923   4.728 -0.3903 -0.2765  0.2694
10712TIP3    H153627   4.803   2.929   4.659  0.0991 -0.4872 -0.2307
10712TIP3    H253628   4.877   3.012   4.762  1.2706  0.4389 -1.7786
10713TIP3   OH253629   3.990   2.488  16.456 -0.3711 -0.1182 -0.0488
10713TIP3    H153630   3.945   2.513  16.537  0.7189  0.1472  0.4836
10713TIP3    H253631   4.000   2.393  16.463 -1.9772 -0.3675 -0.7700
10714TIP3   OH253632   5.889   1.507   2.908 -0.3109 -0.0163  0.3341
10714TIP3    H153633   5.966   1.531   2.960 -0.8585 -0.1983  1.2646
10714TIP3    H253634   5.863   1.422   2.944 -0.0223 -0.7088 -1.0380
10715TIP3   OH253635   5.001   3.929   0.425  0.4497 -0.2915 -0.3116
10715TIP3    H153636   4.933   3.971   0.372 -0.1299 -0.8319 -0.0181
10715TIP3    H253637   5.033   3.998   0.483 -0.0000 -0.0788 -0.3126
10716TIP3   OH253638   5.823   2.435  11.633 -0.3470  0.0275  0.0490
10716TIP3    H153639   5.887   2.409  11.567 -1.2080  0.6533 -1.0519
10716TIP3    H253640   5.873   2.434  11.715  0.2668 -2.7258 -0.2517
10717TIP3   OH253641   4.727   4.497   4.653 -0.1711 -0.7049  0.1551
10717TIP3    H153642   4.697   4.415   4.614 -2.2774 -0.4257  1.0878
10717TIP3    H253643   4.769   4.544   4.581 -1.9402 -1.1742 -1.2495
10718TIP3   OH253644   5.447   5.951  12.727  0.0779  0.5229  0.0196
10718TIP3    H153645   5.373   5.946  12.667 -0.3097  0.3107  0.5019
10718TIP3    H253646   5.424   6.021  12.788  0.1167  0.2504  0.3575
10719TIP3   OH253647   2.540   5.545   2.006  0.1127  0.1922 -0.0848
10719TIP3    H153648   2.501   5.476   1.952  0.1425 -0.0765  0.2359
10719TIP3    H253649   2.615   5.576   1.955  0.6809 -0.6767  0.1914
10720TIP3   OH253650   1.110   1.753   1.660 -0.3946  0.2489  0.8037
10720TIP3    H153651   1.197   1.787   1.681  0.0790  0.1704 -0.8576
10720TIP3    H253652   1.051   1.827   1.677  0.3464  1.1989 -0.5671
10721TIP3   OH253653   6.468   4.117  12.127 -0.5399 -0.0824  0.2476
10721TIP3    H153654   6.536   4.145  12.066 -1.3877  0.5802 -0.4148
10721TIP3    H253655   6.501   4.035  12.163  0.1054 -0.3497 -0.9002
10722TIP3   OH253656   0.240   4.002  15.799 -0.9333 -0.3921 -0.3592
10722TIP3    H153657   0.323   3.955  15.793 -1.4461 -1.3282 -0.2154
10722TIP3    H253658   0.173   3.935  15.788 -1.7229  0.7418 -4.0211
10723TIP3   OH253659   2.492   2.170  15.697 -0.4813  0.2491  0.5029
10723TIP3    H153660   2.512   2.076  15.692 -1.2577  0.0902  0.2578
10723TIP3    H253661   2.578   2.212  15.695 -0.1229 -0.4560  0.5840
10724TIP3   OH253662   4.957   4.685   3.458 -0.1445 -0.2558 -0.3082
10724TIP3    H153663   4.985   4.649   3.542  0.6452 -0.7574 -0.7724
10724TIP3    H253664   4.927   4.609   3.409  0.9832 -0.2179 -1.0840
10725TIP3   OH253665   2.594   0.458   5.657 -1.1772 -0.3048 -0.1718
10725TIP3    H153666   2.587   0.369   5.622 -0.3528 -0.7002  0.6098
10725TIP3    H253667   2.684   0.464   5.688 -1.3732  0.6357  0.2487
10726TIP3   OH253668   6.562   2.693   0.589 -0.1254  0.1038  0.0638
10726TIP3    H153669   6.580   2.748   0.665 -2.6106  0.1655  0.7036
10726TIP3    H253670   6.571   2.603   0.620  2.7054  0.0324 -0.6653
10727TIP3   OH253671   6.355   1.953   3.270  0.7631  0.2493  0.4638
10727TIP3    H153672   6.339   1.955   3.175  0.6893  0.6184  0.4847
10727TIP3    H253673   6.444   1.919   3.278  0.4499 -0.6629  0.2988
10728TIP3   OH253674   2.744   2.695   3.768  0.1391 -0.1983 -0.0562
10728TIP3    H153675   2.750   2.712   3.862  1.1611 -1.9314  0.2237
10728TIP3    H253676   2.668   2.745   3.740  0.3238  1.0499  1.5202
10729TIP3   OH253677   1.507   5.493   1.470  0.5287 -0.0337 -0.1807
10729TIP3    H153678   1.473   5.505   1.559 -2.2939  0.4420 -1.2261
10729TIP3    H253679   1.541   5.579   1.446 -0.4915  0.3694 -0.2307
10730TIP3   OH253680   4.143   2.976   0.903 -0.7239 -0.0417  0.2198
10730TIP3    H153681   4.158   2.908   0.968 -0.7225  1.3580  1.7500
10730TIP3    H253682   4.213   2.964   0.839 -0.3532 -1.0692  0.7927
10731TIP3   OH253683   5.328   2.738   3.630 -0.5794  0.5062  0.5241
10731TIP3    H153684   5.371   2.706   3.710  0.1939  1.1849  0.3944
10731TIP3    H253685   5.239   2.758   3.658 -1.0158 -1.4547  0.6759
10732TIP3   OH253686   0.716   4.489   0.218  0.0978  0.0166 -0.5656
10732TIP3    H153687   0.728   4.394   0.218  0.6413  0.0646 -1.6807
10732TIP3    H253688   0.804   4.524   0.201 -0.1182  0.7076 -0.2731
10733TIP3   OH253689   6.260   6.488  13.818 -0.1337 -0.1951  0.0716
10733TIP3    H153690   6.191   6.487  13.752  0.2922 -0.3889 -0.3733
10733TIP3    H253691   6.285   6.396  13.829  0.2003 -0.1058  0.0735
10734TIP3   OH253692   0.926   5.937  14.581  0.6478  0.1021 -0.3608
10734TIP3    H153693   0.960   6.027  14.573 -0.6388  0.4466 -3.0988
10734TIP3    H253694   0.858   5.943  14.648  0.9320  1.0681 -0.1427
10735TIP3   OH253695   1.178   2.413   1.289  0.1151 -0.1215 -0.4319
10735TIP3    H153696   1.258   2.375   1.326 -0.0236 -0.8883 -0.8930
10735TIP3    H253697   1.209   2.482   1.230  0.4107 -0.0350 -0.1751
10736TIP3   OH253698   1.271   1.455   3.867  0.2317 -0.3461 -0.4682
10736TIP3    H153699   1.198   1.393   3.871  0.3906 -0.4917  0.4649
10736TIP3    H253700   1.304   1.448   3.778 -0.1499 -1.1449 -0.5559
10737TIP3   OH253701   3.499   1.301  14.119 -0.0285 -0.0464 -0.0161
10737TIP3    H153702   3.521   1.315  14.211 -0.9998 -0.6752  0.3298
10737TIP3    H253703   3.542   1.219  14.096 -0.3761 -0.2557  0.0831
10738TIP3   OH253704   4.875   0.781   3.749  0.3586 -0.5296 -0.1661
10738TIP3    H153705   4.917   0.841   3.688  0.2606 -0.7904 -0.4941
10738TIP3    H253706   4.859   0.702   3.698 -1.2791 -0.1564 -0.2888
10739TIP3   OH253707   3.914   0.453  11.510  0.2257 -0.0285  0.1768
10739TIP3    H153708   3.830   0.417  11.539  0.4881  0.4050  1.5497
10739TIP3    H253709   3.895   0.489  11.424 -0.9754 -0.0419  0.4050
10740TIP3   OH253710   4.710   1.970  12.631 -0.2550  0.0393 -0.5515
10740TIP3    H153711   4.706   1.984  12.725 -0.0684 -1.8557 -0.2221
10740TIP3    H253712   4.716   2.058  12.594  0.1239  0.8024  1.2140
10741TIP3   OH253713   0.258   0.086  15.873 -0.1536  0.0419 -0.3035
10741TIP3    H153714   0.243   0.008  15.926 -0.7129  0.3383 -0.0151
10741TIP3    H253715   0.199   0.075  15.798 -0.6435  0.4477  0.0180
10742TIP3   OH253716   1.328   1.873  13.153 -0.3650  0.3396 -0.0982
10742TIP3    H153717   1.356   1.895  13.064 -2.5005  0.4216 -0.8048
10742TIP3    H253718   1.241   1.913  13.162 -0.3562  0.0252  1.9101
10743TIP3   OH253719   5.391   2.801  17.280  0.4373  0.1919 -0.1172
10743TIP3    H153720   5.419   2.844  17.200  1.1195  1.5632  0.8082
10743TIP3    H253721   5.345   2.723  17.251  1.3002  0.2723 -1.8086
10744TIP3   OH253722   5.433   2.268   5.709 -0.4027  0.2329 -0.1106
10744TIP3    H153723   5.477   2.334   5.762  1.5349 -2.0884  1.4336
10744TIP3    H253724   5.499   2.199   5.697 -2.0116 -1.0539 -2.3628
10745TIP3   OH253725   1.673   4.260   4.752  0.0815  0.6428  0.0584
10745TIP3    H153726   1.689   4.313   4.830 -0.6423  0.8381  0.0814
10745TIP3    H253727   1.579   4.270   4.735  0.2963  0.8940 -1.0495
10746TIP3   OH253728   0.802   2.296   0.260  0.0893  0.2306 -0.0882
10746TIP3    H153729   0.890   2.293   0.222 -0.0973 -1.0658 -0.4870
10746TIP3    H253730   0.800   2.221   0.320 -1.4762 -1.1801 -1.8016
10747TIP3   OH253731   1.841   1.427  14.658 -0.1214 -0.6621  0.2251
10747TIP3    H153732   1.858   1.379  14.739 -1.0452 -0.4220  0.5689
10747TIP3    H253733   1.909   1.495  14.656 -0.2201 -0.5376  0.9041
10748TIP3   OH253734   4.013   2.372  11.593  0.1438  0.2980 -0.1261
10748TIP3    H153735   4.028   2.392  11.501 -0.9952 -0.5708 -0.5106
10748TIP3    H253736   4.102   2.366  11.630  0.5961  1.7436 -0.8976
10749TIP3   OH253737   2.098   0.003   0.267 -0.0395 -0.9221 -0.3274
10749TIP3    H153738   2.088  -0.024   0.359 -0.1958 -0.9363 -0.3501
10749TIP3    H253739   2.172  -0.050   0.235  0.3919 -0.5052 -0.0442
10750TIP3   OH253740   0.629   6.595   1.839 -0.8638 -0.7300 -0.1469
10750TIP3    H153741   0.545   6.640   1.846 -0.3044  0.3664 -0.4058
10750TIP3    H253742   0.606   6.507   1.807 -1.8339 -0.1309 -1.1829
10751TIP3   OH253743   6.753   4.765  11.274 -0.1050  0.2028 -0.0021
10751TIP3    H153744   6.844   4.751  11.300 -0.0624  1.1815  0.4368
10751TIP3    H253745   6.757   4.842  11.217 -0.6635  0.2768  0.0608
10752TIP3   OH253746   1.382   0.572   5.708 -0.1271  0.1342 -0.2672
10752TIP3    H153747   1.330   0.643   5.743 -3.7544 -0.3599 -3.9657
10752TIP3    H253748   1.323   0.496   5.708  2.7458 -2.3425  1.1088
10753TIP3   OH253749   0.476   3.583   4.660  0.2305  0.5178  0.1621
10753TIP3    H153750   0.495   3.641   4.733 -2.2193 -0.8961  2.0838
10753TIP3    H253751   0.517   3.500   4.683 -0.1664  0.1832 -0.2984
10754TIP3   OH253752   2.576   5.472   0.289  0.5715  1.0334 -0.1260
10754TIP3    H153753   2.539   5.420   0.217 -0.9499  0.4187  1.0632
10754TIP3    H253754   2.593   5.409   0.358  0.3567  1.8579  0.7023
10755TIP3   OH253755   0.601   3.725  13.640 -0.2253  0.0452 -0.1437
10755TIP3    H153756   0.631   3.771  13.718  1.4409 -1.9041  0.4490
10755TIP3    H253757   0.530   3.668  13.671  2.3619 -2.9700  0.7602
10756TIP3   OH253758   2.840   4.898   1.733  0.2401 -0.0251 -0.1712
10756TIP3    H153759   2.932   4.872   1.732  1.1196  2.6731  0.9963
10756TIP3    H253760   2.794   4.823   1.770  1.8381 -1.6629 -1.3268
10757TIP3   OH253761   3.459   1.674   1.938  0.0063  0.0488 -0.4725
10757TIP3    H153762   3.463   1.661   1.844  0.7898 -0.4308 -0.3872
10757TIP3    H253763   3.390   1.739   1.951 -0.2227 -0.0086 -1.3571
10758TIP3   OH253764   5.383   0.177  16.591  0.2224  0.4283 -0.6329
10758TIP3    H153765   5.296   0.214  16.606 -0.6435 -1.6436 -0.2728
10758TIP3    H253766   5.442   0.253  16.593 -1.6354  1.9854 -1.7015
10759TIP3   OH253767   1.391   0.584   1.943 -0.5356  0.1313  0.2575
10759TIP3    H153768   1.394   0.504   1.995 -0.2035  0.2316  0.4018
10759TIP3    H253769   1.392   0.654   2.008 -2.0754  0.2563  0.1748
10760TIP3   OH253770   2.248   1.548  14.698 -0.4495  0.0174 -0.0876
10760TIP3    H153771   2.256   1.477  14.634  1.0402 -0.5935  0.7193
10760TIP3    H253772   2.297   1.620  14.659  1.1682 -0.6232  0.6786
10761TIP3   OH253773   4.824   2.946   0.365 -0.4628  0.3974  0.6908
10761TIP3    H153774   4.840   3.021   0.306 -0.8980  0.0051  0.0548
10761TIP3    H253775   4.908   2.930   0.407 -0.7556  2.3161  2.1222
10762TIP3   OH253776   3.481   6.496   2.691 -0.2351  0.4289 -0.1266
10762TIP3    H153777   3.520   6.412   2.716 -2.0545 -0.4979 -0.1738
10762TIP3    H253778   3.452   6.483   2.601  0.8169  1.6647 -0.6697
10763TIP3   OH253779   4.692   6.480   2.517 -0.6112 -0.5818  0.0598
10763TIP3    H153780   4.767   6.539   2.518 -1.5209  0.6478  1.0779
10763TIP3    H253781   4.684   6.452   2.426  1.3180 -1.1202  0.0153
10764TIP3   OH253782   6.276   5.699   1.844  0.1786 -0.2297  0.1152
10764TIP3    H153783   6.365   5.718   1.874  0.7429 -2.4583 -0.0312
10764TIP3    H253784   6.229   5.673   1.923  0.6576 -2.4887 -0.2957
10765TIP3   OH253785   2.693   5.415   5.698  0.3122  0.6464  0.6013
10765TIP3    H153786   2.598   5.403   5.703  0.1965 -1.5610 -3.2175
10765TIP3    H253787   2.704   5.488   5.637  1.0685  0.4692  0.5271
10766TIP3   OH253788   3.466   6.400   5.052 -0.2577 -1.0714 -0.3474
10766TIP3    H153789   3.388   6.364   5.011 -1.3322 -2.0994  2.4093
10766TIP3    H253790   3.522   6.324   5.067 -0.0483 -0.7679  0.4184
10767TIP3   OH253791   0.285   2.554   0.353 -0.2661  0.0915  0.5108
10767TIP3    H153792   0.233   2.616   0.303  0.4084 -0.2672 -0.6530
10767TIP3    H253793   0.222   2.487   0.382 -0.7018  0.4506  0.3997
10768TIP3   OH253794   5.002   6.307   0.610 -0.2726  0.1031 -0.0828
10768TIP3    H153795   4.987   6.217   0.580  1.0730 -0.6625  1.4443
10768TIP3    H253796   5.062   6.344   0.546 -0.3980 -0.2586 -0.4138
10769TIP3   OH253797   2.853   5.202  15.012  0.4729  0.2412  0.2496
10769TIP3    H153798   2.858   5.184  15.106  1.3427  0.5208  0.2634
10769TIP3    H253799   2.858   5.116  14.971  0.8950  0.1747  0.4359
10770TIP3   OH253800   1.231   3.123  16.979  0.0396  0.0067 -0.1484
10770TIP3    H153801   1.283   3.185  16.929  2.5323 -0.0561  2.0929
10770TIP3    H253802   1.219   3.165  17.064 -2.0955 -0.7699 -0.0209
10771TIP3   OH253803   4.966   0.608   4.591 -0.3921 -0.0478  0.2863
10771TIP3    H153804   4.959   0.639   4.681 -1.3131  0.5307  0.0278
10771TIP3    H253805   5.010   0.679   4.545  0.3322 -0.4600  0.3222
10772TIP3   OH253806   6.504   5.010   0.523  0.2030  0.4947 -0.4978
10772TIP3    H153807   6.505   5.077   0.455  1.2247 -0.5839 -1.6065
10772TIP3    H253808   6.441   4.945   0.493 -0.3064  0.6291  0.2476
10773TIP3   OH253809   2.864   4.221  11.732 -0.5854  0.0992 -0.3347
10773TIP3    H153810   2.894   4.292  11.675  0.5942  1.6802  2.0808
10773TIP3    H253811   2.864   4.144  11.675 -1.1713  1.8347 -2.8827
10774TIP3   OH253812   4.108   0.043  15.795 -0.3663 -0.1230 -0.4126
10774TIP3    H153813   4.176  -0.023  15.779 -0.0942 -0.1657  0.8024
10774TIP3    H253814   4.051   0.002  15.860  0.4336  1.2216  1.2165
10775TIP3   OH253815   4.233   5.712  13.047 -0.7290 -0.2253  0.6637
10775TIP3    H153816   4.291   5.766  12.993 -1.1090  1.2095  1.6155
10775TIP3    H253817   4.291   5.649  13.090 -0.3683 -1.0990 -1.0259
10776TIP3   OH253818   0.976   1.568  16.932 -0.4439 -0.3951 -0.1540
10776TIP3    H153819   0.944   1.505  16.996  2.4406 -1.6114  0.2726
10776TIP3    H253820   0.927   1.548  16.852 -0.7412 -2.1376  0.4168
10777TIP3   OH253821   3.383   1.022   6.142  0.1712  0.6317 -0.5996
10777TIP3    H153822   3.392   1.084   6.070 -1.0364  1.7157  0.1363
10777TIP3    H253823   3.316   1.060   6.199  0.1080 -0.8626  0.4036
10778TIP3   OH253824   4.337   0.386   0.162  0.1306 -0.2140  0.4226
10778TIP3    H153825   4.383   0.422   0.087 -0.6705 -1.8809 -0.9580
10778TIP3    H253826   4.251   0.428   0.160  0.8858  1.5026  1.8778
10779TIP3   OH253827   1.036   0.467   1.227 -0.3386 -0.4281  0.0844
10779TIP3    H153828   0.992   0.537   1.178 -1.1279 -0.8436  0.1752
10779TIP3    H253829   1.128   0.491   1.226 -0.7767  1.5989  1.6851
10780TIP3   OH253830   2.082   4.050  17.062  0.4250  0.1860 -0.3407
10780TIP3    H153831   2.002   4.092  17.029  0.7743  0.4120 -0.9130
10780TIP3    H253832   2.053   3.964  17.093 -0.0382  0.2538 -0.5751
10781TIP3   OH253833   6.299   1.703  16.827 -0.3265 -0.0523  0.3547
10781TIP3    H153834   6.392   1.690  16.845 -0.0570 -0.1349 -1.0438
10781TIP3    H253835   6.258   1.698  16.914  0.9322 -0.2351  0.9698
10782TIP3   OH253836   0.874   3.140   3.289  0.1228 -0.4244 -0.4589
10782TIP3    H153837   0.857   3.052   3.323  1.4799 -0.3229  0.5614
10782TIP3    H253838   0.947   3.128   3.228  1.3079  0.1651  0.7883
10783TIP3   OH253839   2.011   4.566  17.082 -0.4412  0.6923 -0.0156
10783TIP3    H153840   2.085   4.577  17.142  0.6603  1.3341 -1.4065
10783TIP3    H253841   1.965   4.650  17.085  0.8225  1.5014 -1.5312
10784TIP3   OH253842   3.251   3.168  10.897  0.4432 -0.1311 -0.4440
10784TIP3    H153843   3.295   3.115  10.830 -0.3461 -0.4000 -0.7526
10784TIP3    H253844   3.322   3.219  10.937  1.3194 -1.8140  0.2429
10785TIP3   OH253845   6.067   3.274  14.090 -0.2871 -0.1961  0.0934
10785TIP3    H153846   6.081   3.323  14.171 -2.5464  1.6616 -0.5408
10785TIP3    H253847   6.139   3.302  14.033  0.7623 -0.7806  1.0777
10786TIP3   OH253848   2.195   3.368   1.298 -0.2292  0.0329 -0.0994
10786TIP3    H153849   2.237   3.416   1.368 -0.8463  1.5238 -0.7125
10786TIP3    H253850   2.245   3.390   1.219  0.5191 -1.6906 -0.1646
10787TIP3   OH253851   2.328   4.899  17.042  0.2099 -0.2593 -0.3496
10787TIP3    H153852   2.274   4.977  17.048 -0.3867 -0.5366 -1.8526
10787TIP3    H253853   2.417   4.929  17.063 -0.5787 -0.0331  3.4744
10788TIP3   OH253854   2.745   4.997  13.401  0.2772 -0.2918 -0.2191
10788TIP3    H153855   2.669   5.013  13.456  1.2817  0.9797  0.8607
10788TIP3    H253856   2.726   4.913  13.358 -1.2902 -0.4707  0.7366
10789TIP3   OH253857   6.062   1.543  14.722  0.8843 -0.0649 -0.7124
10789TIP3    H153858   6.057   1.555  14.627  1.8679 -0.4861 -0.8361
10789TIP3    H253859   6.156   1.550  14.742  0.7841 -0.8258  0.1055
10790TIP3   OH253860   0.622   2.093   5.695  0.5069  0.6651  0.1345
10790TIP3    H153861   0.690   2.115   5.759  0.1385  1.2508  0.3253
10790TIP3    H253862   0.630   1.998   5.685  1.0738  0.6681  0.4713
10791TIP3   OH253863   6.371   0.902  12.844  0.2513 -0.1123  0.4433
10791TIP3    H153864   6.363   0.830  12.781 -1.6014  0.9807 -0.6467
10791TIP3    H253865   6.413   0.972  12.794 -1.6021  0.9083  0.2235
10792TIP3   OH253866   2.954   2.921  15.780 -0.4301  0.2593 -0.0983
10792TIP3    H153867   2.904   2.967  15.712  1.0018  0.2752 -1.2024
10792TIP3    H253868   3.034   2.973  15.789 -1.1164  0.9890  2.5719
10793TIP3   OH253869   6.599   5.656   2.774 -0.0572 -1.1730  0.2500
10793TIP3    H153870   6.509   5.659   2.807  0.1143  0.1535  0.6443
10793TIP3    H253871   6.647   5.720   2.826  0.2947  0.8054 -2.2964
10794TIP3   OH253872   3.749   6.543   2.999 -0.1172 -0.2619 -0.8429
10794TIP3    H153873   3.780   6.518   2.912 -0.4550  1.5791 -1.5372
10794TIP3    H253874   3.829   6.559   3.049  0.1402  1.9933 -1.8727
10795TIP3   OH253875   2.976   0.331   5.482  0.8075 -0.0277 -0.3200
10795TIP3    H153876   3.019   0.261   5.432  1.4068 -0.9085  1.3713
10795TIP3    H253877   2.894   0.346   5.435  0.8985 -1.5088 -1.0283
10796TIP3   OH253878   2.435   5.135  12.615 -0.5645 -0.1895  0.8018
10796TIP3    H153879   2.492   5.078  12.668 -0.2205 -0.6108 -0.0076
10796TIP3    H253880   2.486   5.214  12.601  0.2289 -0.9346 -0.7146
10797TIP3   OH253881   1.783   0.490   0.681 -0.2124  0.3332 -0.4121
10797TIP3    H153882   1.791   0.579   0.647  0.1180  0.3862 -0.2081
10797TIP3    H253883   1.703   0.491   0.733  0.3006  0.7895  0.3995
10798TIP3   OH253884   3.129   0.292   4.262  0.1547 -0.3092  0.3897
10798TIP3    H153885   3.096   0.382   4.259  1.1981  0.0771 -0.1624
10798TIP3    H253886   3.210   0.295   4.211 -0.6344 -1.9328 -1.0503
10799TIP3   OH253887   2.182   5.144  17.093 -0.2100 -0.8958  0.1452
10799TIP3    H153888   2.095   5.160  17.131 -0.1931  1.1977 -0.5518
10799TIP3    H253889   2.238   5.211  17.132  0.7564 -1.2941 -0.5191
10800TIP3   OH253890   3.137   1.842  16.876 -0.0619 -0.5000  0.4395
10800TIP3    H153891   3.150   1.906  16.805 -3.1009  1.7751  1.7193
10800TIP3    H253892   3.205   1.864  16.940 -0.0229  0.3726  0.1254
10801TIP3   OH253893   3.217   3.275   2.438 -0.0230 -0.1032 -0.1221
10801TIP3    H153894   3.248   3.201   2.491  0.7124  0.3737  0.1267
10801TIP3    H253895   3.153   3.236   2.378 -0.2455 -0.7981  0.5449
10802TIP3   OH253896   0.666   2.277   4.934  0.1044 -0.4709 -0.4779
10802TIP3    H153897   0.624   2.223   5.001 -3.4662  0.8520 -1.4368
10802TIP3    H253898   0.631   2.243   4.851  0.4573  1.1442 -1.3176
10803TIP3   OH253899   5.857   5.420   0.749 -0.0238  0.4514 -0.4029
10803TIP3    H153900   5.871   5.326   0.762  0.4442  0.6261  0.4964
10803TIP3    H253901   5.802   5.426   0.671  0.7143 -0.5251 -1.0183
10804TIP3   OH253902   4.450   6.124  16.470 -0.8562 -0.2058 -0.2184
10804TIP3    H153903   4.534   6.146  16.430 -0.5086  1.3726  1.2489
10804TIP3    H253904   4.471   6.106  16.561 -1.9589 -1.1132 -0.1248
10805TIP3   OH253905   1.946   4.395   1.408  0.4343 -0.5164  0.1469
10805TIP3    H153906   1.948   4.299   1.407  1.0147 -0.5548  1.7928
10805TIP3    H253907   1.869   4.417   1.461  0.4580 -0.0792  0.0068
10806TIP3   OH253908   0.838   0.915   1.045  0.2823 -0.3060 -0.3996
10806TIP3    H153909   0.931   0.917   1.026  0.3425  0.2986 -0.0971
10806TIP3    H253910   0.832   0.938   1.138 -0.2147  0.7090 -0.6602
10807TIP3   OH253911   3.788   3.400  12.173  0.1701 -0.1130 -0.2955
10807TIP3    H153912   3.737   3.481  12.159  0.7764  0.4429  0.6067
10807TIP3    H253913   3.846   3.395  12.097  0.6610  0.7251  0.0103
10808TIP3   OH253914   2.669   6.631  16.114  0.5463  0.5733  0.8830
10808TIP3    H153915   2.652   6.699  16.179 -0.0791  1.0988  0.1930
10808TIP3    H253916   2.758   6.601  16.133 -0.1463 -0.3529  2.9091
10809TIP3   OH253917   4.844   4.342  15.695 -0.0118  0.1503  0.1144
10809TIP3    H153918   4.837   4.266  15.637  2.9379 -2.0829  2.3798
10809TIP3    H253919   4.899   4.403  15.646  2.0126 -1.4748  0.2269
10810TIP3   OH253920   6.100   2.308  16.030 -0.2489  0.3427  0.3460
10810TIP3    H153921   6.177   2.334  16.082 -1.1346  0.3819  1.6790
10810TIP3    H253922   6.084   2.383  15.972  2.2685 -0.6760 -1.9029
10811TIP3   OH253923   5.034   2.282   3.909  0.5258 -0.5150  0.1114
10811TIP3    H153924   4.967   2.227   3.948 -0.3762 -0.3074 -1.1069
10811TIP3    H253925   5.113   2.228   3.911  0.1698 -1.0245  0.9102
10812TIP3   OH253926   4.829   4.869  12.494  0.3740  0.0737  0.3289
10812TIP3    H153927   4.819   4.775  12.510 -1.2200  0.7344  4.3753
10812TIP3    H253928   4.913   4.877  12.449  0.5743 -3.2332 -0.1336
10813TIP3   OH253929   1.400   3.084  15.259  0.4109 -0.7005 -0.2999
10813TIP3    H153930   1.404   3.141  15.181 -3.5763 -2.1568 -1.8237
10813TIP3    H253931   1.444   3.004  15.232 -0.5730 -1.0361 -0.9780
10814TIP3   OH253932   0.711   6.363   4.133  0.1356 -0.0590  0.0191
10814TIP3    H153933   0.796   6.405   4.147  0.0736  0.5331 -1.2504
10814TIP3    H253934   0.705   6.352   4.039 -1.4669  0.4779  0.0333
10815TIP3   OH253935   5.481   0.990   6.224  0.1445  0.0594 -0.2134
10815TIP3    H153936   5.393   1.026   6.238  0.2409  0.4263 -0.5098
10815TIP3    H253937   5.532   1.025   6.296  0.0742 -0.0558 -0.1077
10816TIP3   OH253938   2.423   1.511  14.389  0.1884 -0.0768  0.4333
10816TIP3    H153939   2.452   1.426  14.420  0.7136 -0.2165 -0.4029
10816TIP3    H253940   2.390   1.494  14.301  1.7468  0.8227 -0.3688
10817TIP3   OH253941   2.644   6.219  12.739 -0.2913 -0.1761 -0.4397
10817TIP3    H153942   2.646   6.210  12.835 -0.8926 -1.5061 -0.5227
10817TIP3    H253943   2.636   6.313  12.724  0.1337  0.0847  0.8081
10818TIP3   OH253944   2.747   4.555   2.356 -0.1146  0.5463  0.0078
10818TIP3    H153945   2.826   4.572   2.303  0.7744  0.6096  1.2986
10818TIP3    H253946   2.690   4.630   2.338  0.2731  0.6859 -0.6771
10819TIP3   OH253947   2.183   3.422   0.832 -0.5904 -0.1828 -0.6060
10819TIP3    H153948   2.150   3.510   0.842 -0.1794 -0.1769  0.9533
10819TIP3    H253949   2.241   3.426   0.756  0.6729  1.2917  0.3932
10820TIP3   OH253950   5.845   3.482   0.697 -0.2229  0.1734 -0.3570
10820TIP3    H153951   5.837   3.456   0.789 -2.0737  1.1198 -0.2052
10820TIP3    H253952   5.782   3.426   0.651  2.4313 -2.0854 -1.5307
10821TIP3   OH253953   6.562   0.751  11.762 -0.6840  0.0608  0.0938
10821TIP3    H153954   6.618   0.782  11.691 -1.7865  1.3155 -0.2708
10821TIP3    H253955   6.506   0.825  11.783 -0.6328 -0.4024  2.0644
10822TIP3   OH253956   4.559   0.413  13.126  0.4594  0.3133 -0.3755
10822TIP3    H153957   4.547   0.479  13.058 -0.5236  1.2142  0.6324
10822TIP3    H253958   4.530   0.456  13.207  0.8138 -0.9974  0.4836
10823TIP3   OH253959   2.076   0.259  12.754 -0.1145 -0.0968 -0.4239
10823TIP3    H153960   2.120   0.341  12.777  0.5433 -0.3147 -0.9049
10823TIP3    H253961   2.146   0.199  12.728 -0.7750  0.2886 -3.5256
10824TIP3   OH253962   4.646   4.633   3.910 -0.1836  0.1632 -0.3945
10824TIP3    H153963   4.665   4.726   3.923 -0.4878  0.5022 -2.1450
10824TIP3    H253964   4.551   4.625   3.919 -0.2216  0.1302 -0.7946
10825TIP3   OH253965   0.660   1.853   2.719 -1.1609 -0.4729 -0.1967
10825TIP3    H153966   0.692   1.894   2.639 -1.5195  0.0978 -0.0524
10825TIP3    H253967   0.692   1.763   2.714 -0.4805 -0.2186 -0.5845
10826TIP3   OH253968   2.807   1.229   4.643 -0.2947  0.2090  0.0682
10826TIP3    H153969   2.800   1.187   4.729 -0.8275  0.7814  0.3105
10826TIP3    H253970   2.896   1.212   4.614 -0.3730 -0.7298  0.3513
10827TIP3   OH253971   2.260   1.566   1.348  0.7457  0.4247 -0.3446
10827TIP3    H153972   2.215   1.496   1.395  1.7771  0.7986  1.2997
10827TIP3    H253973   2.298   1.523   1.271 -3.0933  0.2883 -2.3617
10828TIP3   OH253974   5.678   1.277  11.118  0.4545  0.1824  0.4739
10828TIP3    H153975   5.669   1.190  11.081  0.4859  0.7923 -1.0485
10828TIP3    H253976   5.766   1.279  11.154  0.1928 -0.6461  1.1842
10829TIP3   OH253977   1.299   5.295   1.843 -0.5879  0.3051  0.4234
10829TIP3    H153978   1.362   5.285   1.914  0.3309 -0.8240 -0.5016
10829TIP3    H253979   1.238   5.222   1.853 -1.8888  1.4807  1.4035
10830TIP3   OH253980   6.138   2.312   5.533  0.2428 -0.1957  0.8938
10830TIP3    H153981   6.153   2.406   5.521 -0.2753 -0.3428 -1.3888
10830TIP3    H253982   6.205   2.270   5.480  0.1715 -1.1288  1.5219
10831TIP3   OH253983   4.375   3.541  13.441 -0.3318  0.3361  0.3333
10831TIP3    H153984   4.420   3.540  13.356  0.1233 -0.9113  0.5741
10831TIP3    H253985   4.301   3.481  13.429  0.4927 -0.8917  1.1977
10832TIP3   OH253986   4.484   0.176   3.388  0.1457  0.1520  0.2785
10832TIP3    H153987   4.442   0.092   3.368  0.9129  0.1885 -1.7094
10832TIP3    H253988   4.521   0.164   3.476 -0.7079 -1.1967  0.4854
10833TIP3   OH253989   0.398   5.202   1.721  0.0758 -0.8977 -0.0038
10833TIP3    H153990   0.380   5.287   1.762 -2.5996 -0.5254 -1.6508
10833TIP3    H253991   0.371   5.137   1.786 -1.3192 -0.3758 -0.0222
10834TIP3   OH253992   6.813   3.848   3.413 -0.1489  0.2034  0.0793
10834TIP3    H153993   6.794   3.907   3.340  1.8536  0.7785 -0.0285
10834TIP3    H253994   6.855   3.904   3.478 -0.9607 -0.5191  1.2790
10835TIP3   OH253995   2.649   5.010  16.758  0.1173 -0.5227 -0.4339
10835TIP3    H153996   2.616   5.088  16.714 -0.3445 -0.4572  0.0231
10835TIP3    H253997   2.572   4.953  16.768 -1.0071  1.3376  4.4389
10836TIP3   OH253998   0.501   0.988  13.057 -0.2231  0.1188  0.1711
10836TIP3    H153999   0.590   0.971  13.026 -0.6304  0.0508 -1.0151
10836TIP3    H254000   0.453   1.012  12.978 -0.6671  2.7213  1.1189
10837TIP3   OH254001   0.413   4.128  16.123  0.0038 -0.2721 -0.3128
10837TIP3    H154002   0.463   4.103  16.201 -0.8396 -2.7108 -0.4584
10837TIP3    H254003   0.353   4.196  16.153 -1.4592 -2.2869  1.6823
10838TIP3   OH254004   4.364   0.121  15.467  0.7501  0.5380 -0.1001
10838TIP3    H154005   4.354   0.028  15.444  0.9892  0.1320  1.3110
10838TIP3    H254006   4.385   0.164  15.385  4.7784 -1.2937 -0.2963
10839TIP3   OH254007   3.633   5.895  15.651 -0.0145  0.1837 -0.4757
10839TIP3    H154008   3.711   5.948  15.669 -0.8052  1.4971 -0.8170
10839TIP3    H254009   3.585   5.893  15.733 -0.3464  0.6028 -0.6602
10840TIP3   OH254010   4.198   4.323   6.803  0.1123  0.2413 -0.2559
10840TIP3    H154011   4.241   4.307   6.719  0.5396  1.8517 -0.3805
10840TIP3    H254012   4.182   4.236   6.839  0.7168 -0.4576 -1.6022
10841TIP3   OH254013   4.437   6.339   2.240 -0.1976 -0.4191 -0.3371
10841TIP3    H154014   4.532   6.327   2.239 -0.2030 -0.8463  1.1406
10841TIP3    H254015   4.415   6.342   2.333 -1.4663  1.1443 -0.6355
10842TIP3   OH254016   4.503   3.256  16.845 -0.3473  0.2154  0.1877
10842TIP3    H154017   4.550   3.338  16.858 -0.2250 -0.2662  3.3290
10842TIP3    H254018   4.478   3.227  16.932 -0.6606 -2.9749 -0.8158
10843TIP3   OH254019   5.674   2.924   5.386  0.4110  0.2825  0.5047
10843TIP3    H154020   5.609   2.950   5.320 -0.1071  1.0617  1.2948
10843TIP3    H254021   5.753   2.903   5.335 -0.1213  0.3892 -0.3916
10844TIP3   OH254022   6.125   3.995   2.206 -0.0090 -0.0176 -0.2561
10844TIP3    H154023   6.205   3.978   2.255  0.4908  2.2223 -0.2037
10844TIP3    H254024   6.151   3.994   2.115  0.1607  0.9943 -0.2277
10845TIP3   OH254025   1.923   5.700   1.612  0.0449  0.1053  0.0722
10845TIP3    H154026   1.953   5.648   1.686  1.1466  0.6059 -0.0055
10845TIP3    H254027   1.860   5.762   1.649  0.7467  0.4938  0.6409
10846TIP3   OH254028   4.865   2.011  14.899  0.2832  0.2985  0.3311
10846TIP3    H154029   4.818   1.994  14.818 -0.0503 -3.3720  1.1112
10846TIP3    H254030   4.812   1.969  14.967  2.6880 -0.6084  1.7842
10847TIP3   OH254031   5.505   4.595  15.738 -0.0538  0.0519  0.0326
10847TIP3    H154032   5.543   4.631  15.819 -0.4928  0.8163 -0.0964
10847TIP3    H254033   5.459   4.668  15.698 -0.2038 -0.4315 -0.7024
10848TIP3   OH254034   0.769   1.783   0.085 -0.0441  0.5926 -0.3957
10848TIP3    H154035   0.765   1.712   0.021 -2.6167  2.1737 -2.2186
10848TIP3    H254036   0.759   1.740   0.169  0.1893 -1.3299 -1.2918
10849TIP3   OH254037   3.968   1.409  11.923  0.6243 -0.2606 -0.7094
10849TIP3    H154038   3.929   1.456  11.997  1.5331  0.3596 -0.5999
10849TIP3    H254039   4.048   1.372  11.959  0.8428 -0.3315 -1.2691
10850TIP3   OH254040   1.846   0.213   3.526  0.2169 -0.2917 -0.2420
10850TIP3    H154041   1.916   0.276   3.543 -0.6350  0.4092  0.7876
10850TIP3    H254042   1.774   0.266   3.491  0.2683 -1.0386 -1.5394
10851TIP3   OH254043   0.710   1.164  10.340  0.2544 -0.8915 -0.0362
10851TIP3    H154044   0.758   1.091  10.381 -2.6565 -2.2672  1.2191
10851TIP3    H254045   0.680   1.217  10.414 -1.3741 -0.9228 -0.6377
10852TIP3   OH254046   6.053   3.331  13.231  0.0139  0.7409  0.4086
10852TIP3    H154047   5.964   3.344  13.199  0.1399  2.2156  0.5602
10852TIP3    H254048   6.051   3.368  13.320  1.1887  2.4416 -0.2260
10853TIP3   OH254049   6.611   6.166   3.232 -0.5143  0.3869 -0.2066
10853TIP3    H154050   6.654   6.232   3.285 -0.1957 -0.2364  0.3141
10853TIP3    H254051   6.517   6.185   3.241 -0.4104  1.0544 -0.4510
10854TIP3   OH254052   3.872   1.399  11.148 -0.2041  0.0854  0.0106
10854TIP3    H154053   3.821   1.437  11.219 -1.4300  1.2376 -1.4102
10854TIP3    H254054   3.825   1.318  11.125 -0.8769  0.6482 -0.6555
10855TIP3   OH254055   0.911   2.207  16.079  0.0201 -0.0245  0.4882
10855TIP3    H154056   0.959   2.237  16.001  1.2379  0.1674  1.2868
10855TIP3    H254057   0.836   2.159  16.044 -0.4459  1.5647 -0.8221
10856TIP3   OH254058   4.077   0.093  12.804 -0.1713  0.3563 -0.1614
10856TIP3    H154059   4.080   0.171  12.860 -1.3014 -0.4542  1.0780
10856TIP3    H254060   3.987   0.088  12.774 -0.3621 -1.0031  0.5658
10857TIP3   OH254061   1.422   5.517  12.217  0.6276 -0.5384  0.2940
10857TIP3    H154062   1.507   5.491  12.252  0.5002  0.3748  1.3114
10857TIP3    H254063   1.360   5.456  12.257  0.8961 -1.9520 -1.3325
10858TIP3   OH254064   2.612   3.944  16.733  0.0111 -0.0983 -0.2550
10858TIP3    H154065   2.692   3.935  16.784 -0.5972 -0.2791  0.6889
10858TIP3    H254066   2.565   3.861  16.747 -0.4190  0.0716 -0.6591
10859TIP3   OH254067   0.994   3.897  11.399 -0.0201 -0.3964 -0.6266
10859TIP3    H154068   1.077   3.931  11.366  0.7750 -0.7938  0.8663
10859TIP3    H254069   0.990   3.928  11.490 -0.3648 -2.3016  0.0539
10860TIP3   OH254070   3.791   3.656  15.887 -0.0439 -0.1374 -0.4052
10860TIP3    H154071   3.877   3.645  15.927 -0.6992  0.8772  1.4077
10860TIP3    H254072   3.799   3.615  15.801  3.4610  3.2790 -2.0209
10861TIP3   OH254073   5.904   3.029  13.594  0.3370 -0.0694 -0.3588
10861TIP3    H154074   5.924   3.035  13.501  0.5545  1.5929 -0.2319
10861TIP3    H254075   5.989   3.031  13.637  0.2185 -0.4890 -0.0963
10862TIP3   OH254076   6.024   1.111   5.814 -0.2219 -0.0755 -0.1761
10862TIP3    H154077   5.996   1.100   5.723  1.2666 -1.8353 -0.4751
10862TIP3    H254078   6.114   1.142   5.808  0.2292 -1.1433  0.6521
10863TIP3   OH254079   1.478   3.656  11.529  0.4053 -0.2844 -0.3409
10863TIP3    H154080   1.514   3.655  11.440  0.5121  0.0219 -0.3015
10863TIP3    H254081   1.554   3.637  11.585  0.2170 -1.0902 -0.3565
10864TIP3   OH254082   1.029   6.636  15.586  0.5513  0.0930  0.2294
10864TIP3    H154083   1.020   6.579  15.662 -1.4167  1.4152  1.0563
10864TIP3    H254084   1.119   6.669  15.592  0.9767 -1.1404  0.9956
10865TIP3   OH254085   5.288   3.872  14.468  0.0519  0.0870 -0.2254
10865TIP3    H154086   5.230   3.936  14.508 -1.3279  0.8151 -3.1025
10865TIP3    H254087   5.375   3.913  14.472 -0.7399  2.1102 -1.7083
10866TIP3   OH254088   4.242   4.683   1.607  0.2840 -0.6295  0.5235
10866TIP3    H154089   4.242   4.707   1.514  2.1142 -0.8545  0.4142
10866TIP3    H254090   4.275   4.761   1.652  0.2847 -0.8275  0.8694
10867TIP3   OH254091   0.726   3.950  16.894 -0.2133  0.0832  0.3541
10867TIP3    H154092   0.645   3.914  16.929 -0.3705 -0.8961 -0.9413
10867TIP3    H254093   0.701   4.037  16.861 -1.0146 -0.6314 -0.9966
10868TIP3   OH254094   2.219   2.104  12.498 -0.0482 -0.1138 -0.0781
10868TIP3    H154095   2.217   2.198  12.516  0.8831 -0.1332  0.1497
10868TIP3    H254096   2.143   2.089  12.441  1.6035  1.3895 -2.9260
10869TIP3   OH254097   0.183   4.685   2.369 -0.0833  0.1037  0.5815
10869TIP3    H154098   0.200   4.703   2.461 -1.7529 -1.3099  1.2198
10869TIP3    H254099   0.133   4.760   2.338  0.2958  0.4790  0.8751
10870TIP3   OH254100   4.170   3.079   5.047 -0.4989  0.0782  0.5478
10870TIP3    H154101   4.141   3.086   4.956  1.3182 -0.3449 -0.1092
10870TIP3    H254102   4.109   3.016   5.086 -1.6306  0.6596 -0.2168
10871TIP3   OH254103   2.073   3.375   3.900 -0.2579  0.0322 -0.0139
10871TIP3    H154104   2.103   3.319   3.971 -0.2902 -0.5621 -0.4584
10871TIP3    H254105   1.979   3.359   3.895 -0.2118 -0.1459 -0.3705
10872TIP3   OH254106   2.191   5.505  14.137  1.0343 -0.0591  0.1339
10872TIP3    H154107   2.267   5.521  14.193  0.2522 -0.0439  1.2197
10872TIP3    H254108   2.218   5.535  14.050  1.9174  0.8480  0.7086
10873TIP3   OH254109   0.301   2.404  13.483  0.1974 -0.1568 -0.2757
10873TIP3    H154110   0.209   2.433  13.484  0.3053  0.2717  1.7103
10873TIP3    H254111   0.349   2.479  13.447 -0.2577 -0.5468 -1.7359
10874TIP3   OH254112   0.663   2.649   2.334  0.0597  0.2811 -0.0996
10874TIP3    H154113   0.749   2.690   2.345  0.0187 -0.0953  2.1028
10874TIP3    H254114   0.602   2.722   2.325  0.2846  0.6764  1.3422
10875TIP3   OH254115   3.491   2.236   6.541 -0.0538  1.0419 -0.2107
10875TIP3    H154116   3.455   2.299   6.478  0.7349 -0.2512 -2.0570
10875TIP3    H254117   3.417   2.180   6.563 -0.0550  0.6895 -1.0576
10876TIP3   OH254118   2.149   1.276  12.106  0.1208 -0.0173 -0.4002
10876TIP3    H154119   2.198   1.352  12.076 -1.7540  1.7601  0.7779
10876TIP3    H254120   2.122   1.231  12.026  0.6780  0.9361 -1.1340
10877TIP3   OH254121   0.235   3.944  16.295 -0.2323 -0.1527  0.2270
10877TIP3    H154122   0.279   4.026  16.314  1.0859 -0.8552  0.3236
10877TIP3    H254123   0.156   3.946  16.349  0.9999  0.0132  2.1081
10878TIP3   OH254124   2.634   5.358   0.021  1.1072  0.3738  0.5679
10878TIP3    H154125   2.615   5.452   0.026 -0.0542  0.1564  0.5781
10878TIP3    H254126   2.729   5.353   0.009  0.8821  1.7472 -3.8249
10879TIP3   OH254127   6.169   1.239   2.227  0.0585 -0.2796 -0.2260
10879TIP3    H154128   6.149   1.146   2.240 -1.2359  0.2966  2.6287
10879TIP3    H254129   6.247   1.254   2.280 -0.3333  0.4654  0.1452
10880TIP3   OH254130   0.586   0.002   1.498  0.7070  0.3407 -0.3276
10880TIP3    H154131   0.665   0.029   1.452 -0.3982  2.5828 -1.0850
10880TIP3    H254132   0.547   0.084   1.528 -0.9322 -0.7530  0.7022
10881TIP3   OH254133   5.200   2.624  11.341 -0.6465  0.1084  0.3610
10881TIP3    H154134   5.129   2.574  11.301 -1.1694  0.2319  1.1220
10881TIP3    H254135   5.275   2.564  11.340 -0.0299  0.7389 -2.5870
10882TIP3   OH254136   4.509   3.705  12.166  0.2780 -0.0110  0.3858
10882TIP3    H154137   4.590   3.668  12.201  0.1624  0.4170  1.1313
10882TIP3    H254138   4.468   3.633  12.118 -0.2008 -1.0318  2.2243
10883TIP3   OH254139   6.226   4.693  11.728 -0.1210 -0.0245 -0.2495
10883TIP3    H154140   6.255   4.750  11.657  1.4759  0.3004  0.6140
10883TIP3    H254141   6.149   4.736  11.764 -0.9650 -0.1933 -1.7423
10884TIP3   OH254142   0.648   1.596  12.162 -0.3481  0.0372 -0.3643
10884TIP3    H154143   0.626   1.641  12.244 -1.9465 -2.1396  0.5026
10884TIP3    H254144   0.735   1.558  12.178 -0.5042 -0.0894  0.2131
10885TIP3   OH254145   3.139   0.976   1.090  0.7549 -0.2948  0.0847
10885TIP3    H154146   3.110   0.906   1.149  0.1819  0.1456  0.3341
10885TIP3    H254147   3.063   0.992   1.034  0.2157  1.3780  1.2239
10886TIP3   OH254148   6.726   6.378   0.894  0.0189  0.0987 -0.2529
10886TIP3    H154149   6.764   6.463   0.917  1.3334 -0.4033 -0.4516
10886TIP3    H254150   6.650   6.398   0.840 -0.9213  1.1959  1.4073
10887TIP3   OH254151   6.679   2.740  11.123  0.5248 -0.0157 -0.2529
10887TIP3    H154152   6.740   2.678  11.162  2.6589  1.2259 -1.3992
10887TIP3    H254153   6.733   2.793  11.064 -1.4798  1.8524 -0.5613
10888TIP3   OH254154   1.365   5.817  13.131  0.5120 -0.7963  0.0160
10888TIP3    H154155   1.387   5.909  13.118  1.3745 -1.0539 -0.3870
10888TIP3    H254156   1.355   5.782  13.043 -0.8010 -0.8676  0.1767
10889TIP3   OH254157   4.209   1.813  14.417 -0.3842  0.0670 -0.3761
10889TIP3    H154158   4.175   1.840  14.331 -0.2613 -1.6591 -1.0126
10889TIP3    H254159   4.290   1.861  14.428 -0.5700  0.5485 -1.0910
10890TIP3   OH254160   1.308   4.542   1.741 -0.2438  0.3285  0.0734
10890TIP3    H154161   1.306   4.635   1.720 -1.1978  0.6403  1.3682
10890TIP3    H254162   1.237   4.531   1.805 -0.6301 -1.4258 -0.6061
10891TIP3   OH254163   5.510   3.937  13.216 -0.3760 -0.1804  0.0258
10891TIP3    H154164   5.481   3.848  13.195 -1.0366 -0.3482  1.5104
10891TIP3    H254165   5.429   3.989  13.216 -0.2654  0.0133  1.0575
10892TIP3   OH254166   5.483   2.152   3.776 -0.7050 -0.1919  0.0573
10892TIP3    H154167   5.389   2.145   3.795 -0.7202  1.5578  0.8452
10892TIP3    H254168   5.508   2.237   3.813  1.2785 -0.7890  0.1920
10893TIP3   OH254169   4.973   3.811  15.115 -0.2384 -0.2257  0.2011
10893TIP3    H154170   4.976   3.898  15.155 -1.7641 -0.2957  0.5126
10893TIP3    H254171   5.024   3.820  15.035 -0.6613  1.0529  0.0570
10894TIP3   OH254172   5.176   1.531   4.409 -0.6146 -0.1066 -0.2735
10894TIP3    H154173   5.247   1.509   4.470 -0.8230 -1.4795 -0.5036
10894TIP3    H254174   5.096   1.525   4.461 -0.6395  0.6202 -0.2195
10895TIP3   OH254175   2.851   5.610  12.035  0.3058 -0.4438  0.0523
10895TIP3    H154176   2.793   5.646  11.967 -0.1962 -0.8222  0.2757
10895TIP3    H254177   2.797   5.608  12.114 -0.6103 -4.1063 -0.4755
10896TIP3   OH254178   4.502   4.212   2.209 -0.2051  0.2933  0.2327
10896TIP3    H154179   4.408   4.223   2.224 -0.2425 -0.2268  0.3741
10896TIP3    H254180   4.537   4.301   2.214 -0.5719  0.4019  1.0318
10897TIP3   OH254181   1.550   2.185  15.546  0.0909  0.7569  0.7881
10897TIP3    H154182   1.511   2.258  15.498 -0.7260 -1.2984 -1.9041
10897TIP3    H254183   1.493   2.173  15.623 -0.4665  2.1423  0.6092
10898TIP3   OH254184   0.555   4.634   5.773  0.4929 -0.2071  0.0920
10898TIP3    H154185   0.586   4.693   5.704 -1.5613  1.9188  0.8430
10898TIP3    H254186   0.605   4.554   5.761  1.5474  0.7619 -2.6681
10899TIP3   OH254187   1.763   0.754  11.260 -0.2412 -0.5880 -0.4858
10899TIP3    H154188   1.781   0.811  11.185 -1.2597  1.1583  0.5127
10899TIP3    H254189   1.669   0.763  11.274 -0.0278 -0.6200  1.1544
10900TIP3   OH254190   6.203   1.275  10.369  0.5660 -0.2813 -0.3039
10900TIP3    H154191   6.157   1.202  10.411  0.9727  0.0008  0.6476
10900TIP3    H254192   6.276   1.234  10.323  0.4958 -0.5191 -0.2084
10901TIP3   OH254193   6.563   4.482   5.458 -0.3895  0.0209 -0.1972
10901TIP3    H154194   6.554   4.574   5.481 -1.9273 -0.0626 -0.3474
10901TIP3    H254195   6.604   4.482   5.371 -2.3664  0.6771 -1.1834
10902TIP3   OH254196   6.628   2.139  13.888 -0.1595 -0.5519  0.8565
10902TIP3    H154197   6.620   2.089  13.970  1.0343 -2.0504  0.1124
10902TIP3    H254198   6.718   2.172  13.889  0.5768 -2.3530 -0.7638
10903TIP3   OH254199   6.765   5.187   6.774 -0.0089  0.0245  0.1657
10903TIP3    H154200   6.753   5.092   6.781  1.9642 -0.1763  1.7458
10903TIP3    H254201   6.679   5.220   6.748 -1.3202 -2.0055  1.5709
10904TIP3   OH254202   1.699   1.203  15.753 -0.3101  0.3121 -0.9341
10904TIP3    H154203   1.638   1.142  15.713  0.2694 -0.5680 -0.5087
10904TIP3    H254204   1.775   1.203  15.694  0.7781 -1.4097  0.3671
10905TIP3   OH254205   1.690   0.525  11.635  0.1524 -0.3998 -0.1040
10905TIP3    H154206   1.610   0.572  11.658  0.6897  0.2729  0.4561
10905TIP3    H254207   1.694   0.530  11.539 -0.3500 -0.2322 -0.1177
10906TIP3   OH254208   6.069   1.342   4.786  0.5908 -0.0157 -0.0944
10906TIP3    H154209   6.088   1.314   4.875  0.8604 -1.2188 -0.5101
10906TIP3    H254210   6.145   1.315   4.735 -0.0457 -0.3706 -0.8852
10907TIP3   OH254211   0.665   6.572  11.482 -0.3117  0.0411 -0.6771
10907TIP3    H154212   0.734   6.636  11.496 -0.0615 -0.7779  2.7506
10907TIP3    H254213   0.708   6.487  11.493 -1.4788 -0.5586 -0.5227
10908TIP3   OH254214   6.184   1.494   3.547  0.5080  0.1549 -0.3251
10908TIP3    H154215   6.251   1.441   3.589 -0.4865 -1.0655 -0.2147
10908TIP3    H254216   6.217   1.584   3.551  1.9184 -0.3696  0.0956
10909TIP3   OH254217   5.459   6.764  16.942 -0.3195  0.0720  0.4120
10909TIP3    H154218   5.440   6.670  16.950  1.0836 -0.2958 -0.1867
10909TIP3    H254219   5.543   6.767  16.896  0.3884  1.5843  1.7260
10910TIP3   OH254220   0.247   5.975  15.055  0.0045  0.4999 -0.0773
10910TIP3    H154221   0.220   6.045  14.996  1.0921  0.9491 -0.0643
10910TIP3    H254222   0.218   6.004  15.142  0.4368  0.9288 -0.0739
10911TIP3   OH254223   0.041   0.782   1.017 -0.2415  0.9773 -0.5447
10911TIP3    H154224   0.086   0.853   1.062 -1.1903  0.6921  0.8816
10911TIP3    H254225  -0.051   0.794   1.037 -0.3267 -1.3545  0.8235
10912TIP3   OH254226   6.137   1.762   3.301 -0.7819 -0.4771  0.9716
10912TIP3    H154227   6.097   1.846   3.280  0.1534  0.4823  2.7875
10912TIP3    H254228   6.231   1.781   3.304 -0.4755 -1.8127  0.4791
10913TIP3   OH254229   4.624   1.367   0.682  0.2171  0.1593 -0.6285
10913TIP3    H154230   4.625   1.273   0.665 -1.5439  0.1323 -0.7575
10913TIP3    H254231   4.607   1.374   0.775 -0.3780  0.3426 -0.7474
10914TIP3   OH254232   2.226   5.624  15.340  0.2221 -0.0590  0.8764
10914TIP3    H154233   2.317   5.593  15.345 -0.0270 -1.7266 -2.5499
10914TIP3    H254234   2.222   5.674  15.258 -2.3796 -1.8517 -0.2129
10915TIP3   OH254235   0.996   4.057   0.942  0.3892 -0.4687 -0.0457
10915TIP3    H154236   0.979   4.143   0.979  1.4101 -0.5014  0.5519
10915TIP3    H254237   0.961   4.061   0.853 -0.3518  0.2622  0.2629
10916TIP3   OH254238   6.533   1.034  16.488  0.0154  0.0937  0.3763
10916TIP3    H154239   6.612   1.029  16.434 -0.0608 -1.9227  0.3691
10916TIP3    H254240   6.546   1.111  16.543  1.2498  0.7253 -0.7444
10917TIP3   OH254241   0.966   0.607  13.566 -0.1282 -0.3831  0.2465
10917TIP3    H154242   0.929   0.636  13.649  0.6035 -1.4687  0.9841
10917TIP3    H254243   1.052   0.572  13.589  0.2469 -0.3550 -1.0317
10918TIP3   OH254244   1.725   3.454  11.347 -0.1163  0.6729  0.0543
10918TIP3    H154245   1.769   3.515  11.288  0.3013 -1.3055 -1.7714
10918TIP3    H254246   1.790   3.435  11.415  1.1562 -0.5834 -1.4426
10919TIP3   OH254247   5.952   0.243   5.498 -0.0492  0.1808 -0.0371
10919TIP3    H154248   6.015   0.182   5.537  1.0057  1.2876  0.0611
10919TIP3    H254249   5.911   0.287   5.573  1.2359  1.5700 -0.0873
10920TIP3   OH254250   1.672   4.679  12.965  0.4203 -0.2716  0.2986
10920TIP3    H154251   1.746   4.660  13.023  1.2862  1.0487 -0.3216
10920TIP3    H254252   1.631   4.594  12.950  2.6212 -1.2847 -0.4091
10921TIP3   OH254253   0.797   5.879   1.659 -0.6544  0.1174 -0.4118
10921TIP3    H154254   0.854   5.812   1.696  0.6831 -0.2508 -2.8937
10921TIP3    H254255   0.708   5.844   1.671 -0.2245 -0.4537  1.3564
10922TIP3   OH254256   0.496   4.348  13.192  0.3194  0.2150  0.2565
10922TIP3    H154257   0.494   4.442  13.211 -1.9873  0.8160 -2.2940
10922TIP3    H254258   0.426   4.312  13.247 -2.0262  0.9063 -2.0420
10923TIP3   OH254259   2.841   5.887   3.221  0.0118 -0.0728  0.2998
10923TIP3    H154260   2.889   5.860   3.300 -1.6994 -2.7667  0.5672
10923TIP3    H254261   2.799   5.969   3.245  0.0187 -0.5241  1.9960
10924TIP3   OH254262   1.820   1.450   3.057  0.3138 -0.1234  0.3315
10924TIP3    H154263   1.894   1.391   3.054 -0.8941 -1.6615 -0.8611
10924TIP3    H254264   1.787   1.453   2.967 -0.9665  0.6472  0.7873
10925TIP3   OH254265   4.836   4.047  12.289 -0.1091 -0.0817 -0.1082
10925TIP3    H154266   4.868   4.126  12.245  0.6807  0.0342  0.6605
10925TIP3    H254267   4.878   4.048  12.375  1.6925 -2.4746 -0.8705
10926TIP3   OH254268   2.699   5.402   1.321 -0.0485  0.4516 -0.2924
10926TIP3    H154269   2.643   5.475   1.348  0.2699  0.3010  0.8385
10926TIP3    H254270   2.657   5.324   1.358  0.5926  0.2758  0.0845
10927TIP3   OH254271   0.141   2.935  11.979  0.6495 -0.0750 -0.5248
10927TIP3    H154272   0.117   3.007  12.038  0.2747 -0.5881 -0.0467
10927TIP3    H254273   0.126   2.856  12.030 -1.9605 -0.6844 -2.0464
10928TIP3   OH254274   1.347   3.759  14.162 -0.0771  0.3299  0.0420
10928TIP3    H154275   1.431   3.723  14.136 -0.0979 -0.4475  0.9956
10928TIP3    H254276   1.302   3.686  14.206 -2.4682 -0.2183 -3.0091
10929TIP3   OH254277   6.599   0.976   0.852  0.1350  0.2960  0.0529
10929TIP3    H154278   6.510   0.997   0.824  0.3421  0.7003 -0.3090
10929TIP3    H254279   6.615   0.888   0.818 -0.3010  0.0164  0.5463
10930TIP3   OH254280   3.534   4.100   1.912  0.0358  0.1584 -0.3515
10930TIP3    H154281   3.468   4.129   1.975 -0.4858 -0.2484 -0.6992
10930TIP3    H254282   3.529   4.165   1.841  0.4879  0.5076 -0.0686
10931TIP3   OH254283   5.627   4.918  16.513 -0.0994  0.4303  0.3218
10931TIP3    H154284   5.585   4.975  16.448 -2.4600 -0.4772  0.9170
10931TIP3    H254285   5.560   4.851  16.532  1.3757 -0.6605  1.9852
10932TIP3   OH254286   2.123   6.706  14.877  0.5520 -0.6823  0.4983
10932TIP3    H154287   2.212   6.699  14.910 -0.2190 -2.2558  2.4269
10932TIP3    H254288   2.131   6.692  14.782  2.3113 -1.0071  0.6600
10933TIP3   OH254289   6.326   2.048  15.590  0.2502 -0.2624  0.3502
10933TIP3    H154290   6.384   2.096  15.531  1.3799  0.6613  2.1260
10933TIP3    H254291   6.241   2.048  15.546  0.5087  2.3207 -0.3220
10934TIP3   OH254292   1.446   2.015   0.141  0.2165  0.1380 -0.9108
10934TIP3    H154293   1.419   2.043   0.054 -0.8280 -1.1412 -1.0197
10934TIP3    H254294   1.411   2.083   0.200  0.8817  0.9754 -1.4566
10935TIP3   OH254295   3.586   6.334  16.921  0.0155  0.0743 -0.0165
10935TIP3    H154296   3.566   6.317  16.829  1.4829  0.6254 -0.4643
10935TIP3    H254297   3.537   6.267  16.968  0.7617 -1.4611 -1.3208
10936TIP3   OH254298   1.181   0.961   6.033 -0.0660  0.1544  0.3551
10936TIP3    H154299   1.094   0.981   6.069 -0.5146 -1.7688  0.4344
10936TIP3    H254300   1.241   0.991   6.101 -0.7379  0.3019  0.9081
10937TIP3   OH254301   4.539   1.321   5.138 -0.2143 -0.4591 -0.5497
10937TIP3    H154302   4.501   1.409   5.146 -0.4674 -0.6433  0.3644
10937TIP3    H254303   4.633   1.336   5.129 -0.2657 -0.0942 -0.4914
10938TIP3   OH254304   2.479   2.925  14.845  0.2876  0.1482  0.0824
10938TIP3    H154305   2.573   2.917  14.858  0.3221 -0.5024 -0.5039
10938TIP3    H254306   2.455   3.006  14.889  0.6981 -0.9352  2.4637
10939TIP3   OH254307   5.869   3.454   4.495 -0.0680  0.5723 -0.2886
10939TIP3    H154308   5.900   3.539   4.529 -0.3109  2.3210 -3.9473
10939TIP3    H254309   5.774   3.457   4.505 -0.0009  0.1585  0.6271
10940TIP3   OH254310   6.318   2.306  13.139  0.0632 -0.9457 -0.8144
10940TIP3    H154311   6.397   2.358  13.150 -0.8368  0.2759  0.0482
10940TIP3    H254312   6.346   2.216  13.157  0.7532 -0.2515  2.0356
10941TIP3   OH254313   5.823   0.464  13.098 -0.2186  0.2622  0.6108
10941TIP3    H154314   5.871   0.388  13.132 -1.3025 -0.7824 -0.1202
10941TIP3    H254315   5.879   0.499  13.029 -0.2542 -0.6315  0.1144
10942TIP3   OH254316   2.063   5.643   2.831 -0.3286  0.0709 -0.1156
10942TIP3    H154317   2.062   5.610   2.921 -1.4054  0.0850 -0.1033
10942TIP3    H254318   2.051   5.738   2.841  0.9518  0.2572 -0.2265
10943TIP3   OH254319   1.088   3.148   3.043 -0.5119 -0.2023  0.0386
10943TIP3    H154320   1.148   3.222   3.046 -1.2363  0.3717  0.9394
10943TIP3    H254321   1.071   3.134   2.950  0.3636  0.1540 -0.1793
10944TIP3   OH254322   0.662   6.603  12.226  0.2702 -0.2289  0.2163
10944TIP3    H154323   0.625   6.525  12.184 -0.1492  1.6293 -3.1652
10944TIP3    H254324   0.756   6.599  12.205  0.2096  0.2706 -0.1601
10945TIP3   OH254325   4.962   6.444  13.498 -0.1243  0.3555 -0.1475
10945TIP3    H154326   4.902   6.429  13.571  0.2289  2.0613  0.5308
10945TIP3    H254327   5.037   6.386  13.517 -0.6644 -0.2825  0.0636
10946TIP3   OH254328   5.719   5.899   5.457 -0.0289  0.3105 -0.4375
10946TIP3    H154329   5.624   5.915   5.453  0.2551  2.2722 -0.3454
10946TIP3    H254330   5.742   5.870   5.369 -0.5044  1.3749 -0.9382
10947TIP3   OH254331   3.609   1.871  16.201 -0.3483  0.0138  0.0518
10947TIP3    H154332   3.573   1.796  16.248  2.4918 -0.3768  1.9031
10947TIP3    H254333   3.602   1.944  16.263  1.8253 -0.0898  0.5196
10948TIP3   OH254334   2.232   0.832  13.588 -0.0111  0.3777  0.8233
10948TIP3    H154335   2.218   0.765  13.655  2.4412 -1.1182  0.0221
10948TIP3    H254336   2.227   0.784  13.505  0.4437  1.4559  0.1439
10949TIP3   OH254337   0.976   1.082   5.054  0.2916  0.0988  0.2527
10949TIP3    H154338   0.882   1.082   5.074 -0.2906  2.9053 -1.8162
10949TIP3    H254339   0.989   1.002   5.003 -1.1955  0.0638 -0.1393
10950TIP3   OH254340   6.197   3.273   1.360 -0.4793  0.6197  0.1739
10950TIP3    H154341   6.232   3.301   1.444 -1.1877  1.0097  0.3398
10950TIP3    H254342   6.273   3.239   1.312 -0.3426 -1.3657  1.6723
10951TIP3   OH254343   3.111   2.059   2.083  0.1546  0.6809 -0.4183
10951TIP3    H154344   3.072   2.124   2.024 -0.6283  0.7765  0.1874
10951TIP3    H254345   3.121   2.105   2.166 -0.7886 -0.0675  0.1362
10952TIP3   OH254346   6.322   4.834  12.127 -0.1629 -1.2107  0.3189
10952TIP3    H154347   6.356   4.843  12.216 -1.2168  0.2221  0.6233
10952TIP3    H254348   6.236   4.792  12.138 -0.0097 -1.6425 -0.0960
10953TIP3   OH254349   2.618   6.329   3.228 -0.1032  0.2270  0.3230
10953TIP3    H154350   2.531   6.366   3.210  0.1531  0.6471 -0.0896
10953TIP3    H254351   2.648   6.374   3.306 -0.2774  0.0396  0.5002
10954TIP3   OH254352   2.055   2.685   4.749 -0.2624 -0.5472 -0.0757
10954TIP3    H154353   2.035   2.599   4.786  1.0774 -0.5238  0.7373
10954TIP3    H254354   2.057   2.744   4.824 -1.5585  0.3004 -0.6639
10955TIP3   OH254355   0.028   1.236  11.444  0.2217 -0.0773  0.0846
10955TIP3    H154356   0.036   1.229  11.539 -0.5548  0.4022  0.1932
10955TIP3    H254357  -0.048   1.293  11.430  0.5116  0.1088 -0.8198
10956TIP3   OH254358   5.613   5.885  11.829  0.4961  0.4365  0.0189
10956TIP3    H154359   5.647   5.798  11.847  0.8463  0.7619  0.9875
10956TIP3    H254360   5.635   5.901  11.737  0.1469 -0.6103 -0.2660
10957TIP3   OH254361   1.977   6.815   1.772  0.4862 -0.3372 -0.0088
10957TIP3    H154362   2.053   6.772   1.732 -1.1013 -1.9792 -1.4470
10957TIP3    H254363   1.962   6.767   1.853 -0.2246 -1.3768 -0.7429
10958TIP3   OH254364   6.085   4.503   4.396  0.4656 -0.4806  0.1732
10958TIP3    H154365   6.059   4.505   4.303  0.2693  0.9053  0.2398
10958TIP3    H254366   6.141   4.580   4.407  1.8982 -1.5680  0.8332
10959TIP3   OH254367   0.432   6.437   4.061  0.1350  0.0434 -0.3440
10959TIP3    H154368   0.433   6.433   4.156 -1.2520 -0.4978 -0.3222
10959TIP3    H254369   0.464   6.351   4.033  2.0288  0.7254 -0.4242
10960TIP3   OH254370   6.350   2.817  12.828  0.4621 -0.0726  0.3723
10960TIP3    H154371   6.440   2.836  12.856  0.3181  2.5061 -0.6056
10960TIP3    H254372   6.299   2.892  12.860 -1.3451 -1.3774  0.7344
10961TIP3   OH254373   2.640   1.934   2.637  0.0163 -0.4015  0.4895
10961TIP3    H154374   2.721   1.893   2.607 -0.3890 -0.1606 -1.0275
10961TIP3    H254375   2.656   2.028   2.631 -0.1849 -0.3531  0.6988
10962TIP3   OH254376   4.952   5.860  12.697  0.2117 -0.0643  0.1237
10962TIP3    H154377   5.012   5.817  12.758 -0.1765 -1.0650 -0.1754
10962TIP3    H254378   4.882   5.894  12.753  0.4416  0.0533  0.3472
10963TIP3   OH254379   5.689   3.574   3.750 -0.2411  0.0494  0.3411
10963TIP3    H154380   5.667   3.546   3.661 -1.7324 -1.3570  1.0828
10963TIP3    H254381   5.604   3.591   3.791  0.4150  0.5987  1.5100
10964TIP3   OH254382   4.178   5.554  12.777  0.0336 -0.1844 -0.7447
10964TIP3    H154383   4.148   5.639  12.745 -2.3039 -0.4403  0.6103
10964TIP3    H254384   4.126   5.537  12.855  0.9629 -2.5505 -0.5485
10965TIP3   OH254385   5.081   3.032   1.983  0.1615  0.1645  0.0600
10965TIP3    H154386   5.023   3.061   1.913  0.3168  0.3865  0.0207
10965TIP3    H254387   5.043   2.949   2.013  0.4212 -0.2251 -0.6707
10966TIP3   OH254388   3.547   5.311  15.961 -0.0531 -0.0928 -0.2988
10966TIP3    H154389   3.471   5.348  16.007  1.2586 -1.0781  2.9762
10966TIP3    H254390   3.602   5.387  15.941 -0.1797  0.3273  0.8273
10967TIP3   OH254391   0.110   5.883   3.178  0.0623 -0.4156  0.0419
10967TIP3    H154392   0.092   5.955   3.238 -1.7964 -0.9375  0.1919
10967TIP3    H254393   0.205   5.872   3.181  0.3566  1.7944  0.2522
10968TIP3   OH254394   3.656   6.403  16.274  0.3118  0.1509 -0.1796
10968TIP3    H154395   3.583   6.371  16.220  0.4685 -0.7218  0.1153
10968TIP3    H254396   3.630   6.492  16.299 -0.8857 -0.3180  0.3280
10969TIP3   OH254397   0.872   0.537   4.395 -0.0199  0.3424  0.1771
10969TIP3    H154398   0.946   0.508   4.449 -0.3181 -0.6201  0.0896
10969TIP3    H254399   0.899   0.622   4.361  1.0823 -0.0236  0.0943
10970TIP3   OH254400   5.932   5.266  16.871 -0.3876  0.0644 -0.1428
10970TIP3    H154401   5.860   5.292  16.813  0.6435  0.5030 -1.2479
10970TIP3    H254402   5.902   5.184  16.910 -0.7528 -0.7049 -1.9544
10971TIP3   OH254403   6.600   4.496  15.038 -0.1829 -0.0669  0.4869
10971TIP3    H154404   6.619   4.490  15.132 -0.8157 -0.3045  0.6049
10971TIP3    H254405   6.679   4.465  14.995  0.2121  0.3043  0.9361
10972TIP3   OH254406   0.073   0.841  15.731 -0.1179 -0.1793 -0.3508
10972TIP3    H154407   0.003   0.906  15.724 -0.4615 -0.5606 -0.5018
10972TIP3    H254408   0.045   0.769  15.674 -0.2426 -0.9054  0.6022
10973TIP3   OH254409   4.000   4.822   2.626  0.2273  0.7847 -0.0458
10973TIP3    H154410   3.938   4.883   2.585  0.8543  0.9380 -0.7800
10973TIP3    H254411   4.027   4.764   2.555  2.0533  1.6414 -0.0990
10974TIP3   OH254412   3.877   5.319   0.522  0.0752  0.2073  0.3612
10974TIP3    H154413   3.957   5.268   0.531 -0.1134 -0.7105 -2.2801
10974TIP3    H254414   3.808   5.264   0.559  0.4004  0.1868  0.9389
10975TIP3   OH254415   4.300   0.543  14.303 -0.5867  0.0641  0.3148
10975TIP3    H154416   4.310   0.538  14.208  1.4711 -0.4183  0.5119
10975TIP3    H254417   4.217   0.498  14.321  0.3597 -2.4486 -1.0388
10976TIP3   OH254418   4.659   1.695  11.576  0.3039 -0.5961  0.3274
10976TIP3    H154419   4.665   1.609  11.535  0.4967 -1.6321  2.4054
10976TIP3    H254420   4.750   1.725  11.584  0.1644  0.8221 -2.2607
10977TIP3   OH254421   1.771   3.293   0.755 -0.2316  0.0110 -0.3432
10977TIP3    H154422   1.732   3.206   0.755  0.3130 -0.2336 -0.1158
10977TIP3    H254423   1.850   3.285   0.809  0.7183  0.2262 -1.6425
10978TIP3   OH254424   2.485   2.058  12.650  0.2020  0.0498  0.1791
10978TIP3    H154425   2.515   1.974  12.683 -0.1181 -0.9041 -1.8109
10978TIP3    H254426   2.390   2.050  12.644  0.1614  0.5714  0.0171
10979TIP3   OH254427   5.421   1.845   3.630 -0.0979  0.0172 -0.1705
10979TIP3    H154428   5.372   1.889   3.700 -0.6800 -0.6718 -0.1386
10979TIP3    H254429   5.360   1.780   3.595  0.3810 -0.0225 -0.9495
10980TIP3   OH254430   6.431   0.137   0.550 -0.6030  0.2938  0.5155
10980TIP3    H154431   6.362   0.147   0.485 -0.3582 -0.0183  0.2052
10980TIP3    H254432   6.405   0.060   0.601 -0.3970  0.0754  0.2903
10981TIP3   OH254433   5.969   5.663  13.761  0.0964  0.3405 -0.1193
10981TIP3    H154434   6.041   5.649  13.700 -1.0866 -0.7223 -1.3500
10981TIP3    H254435   6.000   5.630  13.845  1.3825  0.8552 -0.3737
10982TIP3   OH254436   1.096   2.128   4.164  0.1584  0.2852  0.0474
10982TIP3    H154437   1.067   2.149   4.075  0.8961 -0.1671 -0.3003
10982TIP3    H254438   1.180   2.172   4.173 -0.2025  0.8686  0.7617
10983TIP3   OH254439   5.435   4.531   1.550 -0.4945  0.6061  0.2216
10983TIP3    H154440   5.427   4.450   1.499  0.4642  0.2217  0.6600
10983TIP3    H254441   5.445   4.502   1.640 -1.2481  1.2597  0.5261
10984TIP3   OH254442   5.843   6.670   2.071 -1.2999  0.2389  0.6001
10984TIP3    H154443   5.860   6.762   2.049 -0.0250  0.1378  1.0599
10984TIP3    H254444   5.806   6.673   2.159 -0.6381  0.2791  0.8799
10985TIP3   OH254445   3.425   2.214  12.821  0.0136  0.5127 -0.7745
10985TIP3    H154446   3.332   2.232  12.834  0.0537  0.6751 -0.7141
10985TIP3    H254447   3.467   2.240  12.904 -0.0768 -0.9430 -0.2334
10986TIP3   OH254448   0.752   5.336  13.967  0.2143  0.5971 -0.1691
10986TIP3    H154449   0.762   5.358  13.874  0.1208 -0.4126 -0.4300
10986TIP3    H254450   0.658   5.334  13.981  0.2341  1.7735  0.2149
10987TIP3   OH254451   4.108   0.839  14.088  0.1249 -0.5919  0.1024
10987TIP3    H154452   4.049   0.816  14.160  0.9400 -0.8736  0.6965
10987TIP3    H254453   4.074   0.922  14.054 -0.2496 -0.4383  0.8375
10988TIP3   OH254454   1.319   2.889   6.201 -0.0729 -0.5494  0.0055
10988TIP3    H154455   1.382   2.961   6.192  0.3202 -0.9527 -0.5412
10988TIP3    H254456   1.374   2.810   6.205 -0.5486 -0.9246 -0.6960
10989TIP3   OH254457   0.976   2.488   5.628  0.3533 -0.4124 -0.2338
10989TIP3    H154458   1.046   2.528   5.680 -0.5291  0.0939  0.6006
10989TIP3    H254459   0.900   2.543   5.644 -0.2439 -0.9558 -1.1244
10990TIP3   OH254460   3.077   3.353  14.664  0.1469 -0.4030  0.2236
10990TIP3    H154461   3.000   3.310  14.627 -0.6995 -0.3984  1.9121
10990TIP3    H254462   3.089   3.314  14.750 -0.0169  1.9095  1.3936
10991TIP3   OH254463   0.590   3.251   4.914  0.7239  0.2745  0.2505
10991TIP3    H154464   0.622   3.303   4.840 -0.7823  0.9964  0.0647
10991TIP3    H254465   0.572   3.165   4.876  2.6737 -0.2461  0.4321
10992TIP3   OH254466   3.339   1.103   0.952  0.0940 -0.2493 -0.3978
10992TIP3    H154467   3.270   1.057   0.999  1.0104 -0.3560  0.8961
10992TIP3    H254468   3.348   1.055   0.870 -1.2038 -0.3558 -0.4927
10993TIP3   OH254469   1.368   2.767  11.784  0.4662 -0.0080  0.2353
10993TIP3    H154470   1.332   2.774  11.872  1.1621 -1.5284  0.6681
10993TIP3    H254471   1.292   2.764  11.727  0.0096  1.4848  0.7069
10994TIP3   OH254472   4.423   3.405   2.230 -0.1288  0.3333 -0.4546
10994TIP3    H154473   4.425   3.464   2.154 -1.5318  3.0489  1.4556
10994TIP3    H254474   4.331   3.384   2.242  0.1423 -0.5414  0.1712
10995TIP3   OH254475   1.059   2.904   2.242  0.2239 -0.5744 -0.6691
10995TIP3    H154476   1.140   2.910   2.293  0.8190  0.5199 -1.7019
10995TIP3    H254477   1.048   2.991   2.204 -1.2383 -0.8181 -0.8679
10996TIP3   OH254478   1.998   0.577  10.810  0.4705 -0.1030 -0.1279
10996TIP3    H154479   2.078   0.595  10.760  0.5802  1.9527  0.7106
10996TIP3    H254480   1.938   0.540  10.746  1.0097  1.3547 -1.5179
10997TIP3   OH254481   5.589   5.377   2.829 -0.1377 -0.4370 -0.5801
10997TIP3    H154482   5.560   5.394   2.739 -1.0559 -0.0803 -0.2296
10997TIP3    H254483   5.684   5.388   2.826 -0.1032 -0.9126 -1.6088
10998TIP3   OH254484   4.419   0.705   2.876 -0.5604 -0.1545  0.1112
10998TIP3    H154485   4.340   0.654   2.859  0.4355 -1.6365 -0.2443
10998TIP3    H254486   4.417   0.721   2.971 -1.3741  0.0245  0.0771
10999TIP3   OH254487   0.348   5.973   5.044  0.6029  0.8129 -0.9436
10999TIP3    H154488   0.355   6.006   5.134  0.5759  2.0474 -1.3785
10999TIP3    H254489   0.254   5.971   5.027  0.3061 -2.8101  0.2210
11000TIP3   OH254490   4.839   3.003  11.485  0.4929  0.2609  0.3274
11000TIP3    H154491   4.836   3.071  11.418 -0.6862  0.3139  0.4150
11000TIP3    H254492   4.840   3.051  11.568 -1.0141  0.1996  0.4095
11001TIP3   OH254493   0.805   3.402  14.259  0.1075 -0.4059 -0.5372
11001TIP3    H154494   0.804   3.325  14.316 -2.9388 -0.9153 -1.1021
11001TIP3    H254495   0.754   3.467  14.307  0.7123  0.4779 -1.0782
11002TIP3   OH254496   4.957   2.973   3.695  0.1543 -0.3974 -0.3676
11002TIP3    H154497   4.873   2.972   3.740 -0.1969  1.5011 -0.8739
11002TIP3    H254498   4.958   2.893   3.643 -1.4452 -0.3525 -0.5166
11003TIP3   OH254499   3.755   1.247   3.999 -0.5117 -0.2464  0.6163
11003TIP3    H154500   3.705   1.260   3.919  1.0379 -0.7942 -0.4946
11003TIP3    H254501   3.836   1.204   3.970  1.1137  1.5866  2.1214
11004TIP3   OH254502   2.152   4.963   1.424 -0.3236 -0.5145 -0.2358
11004TIP3    H154503   2.225   5.005   1.379 -1.3371  0.8570 -0.6753
11004TIP3    H254504   2.189   4.933   1.507  0.8901 -0.4830 -0.7441
11005TIP3   OH254505   3.348   2.521  16.684  0.1450 -0.2442  0.5858
11005TIP3    H154506   3.328   2.497  16.594 -1.3165 -0.1765  0.8630
11005TIP3    H254507   3.382   2.441  16.724  1.1269 -0.1846 -0.0909
11006TIP3   OH254508   3.944   4.920   2.895 -0.7498  0.2568  0.5815
11006TIP3    H154509   3.957   4.845   2.953  0.6186  0.1842  0.2061
11006TIP3    H254510   3.972   4.890   2.809 -1.3838  0.8167  0.1641
11007TIP3   OH254511   2.690   1.300  14.308  0.4631 -0.1535 -0.1890
11007TIP3    H154512   2.734   1.385  14.310  0.5017 -0.0121 -2.9160
11007TIP3    H254513   2.745   1.246  14.251  0.4769 -2.0660  1.5530
11008TIP3   OH254514   5.274   6.821  16.058 -0.5618 -0.2841 -0.3355
11008TIP3    H154515   5.222   6.901  16.055 -0.0388  0.0836  0.1423
11008TIP3    H254516   5.333   6.834  16.132  1.2781 -0.0112 -1.7611
11009TIP3   OH254517   0.323   1.054  13.315  0.5537 -0.6524  0.4002
11009TIP3    H154518   0.352   1.043  13.224  0.1672 -0.6531  0.2760
11009TIP3    H254519   0.243   1.107  13.308  0.7515 -0.2985  0.7700
11010TIP3   OH254520   4.240   0.212   3.858  0.4381 -0.4513  0.2659
11010TIP3    H154521   4.238   0.265   3.778 -0.4333  1.2069  1.3213
11010TIP3    H254522   4.194   0.132   3.835  0.3307 -0.0656 -0.9359
11011TIP3   OH254523   3.480   0.858  13.747  0.2917  0.3803 -0.1242
11011TIP3    H154524   3.507   0.918  13.677  1.4642 -1.7658 -1.6417
11011TIP3    H254525   3.425   0.911  13.804 -0.7182  2.2867 -2.6560
11012TIP3   OH254526   2.987   5.288  16.721  0.0489 -0.3342  0.0787
11012TIP3    H154527   2.944   5.286  16.807  0.8928 -2.2400  0.5101
11012TIP3    H254528   2.915   5.277  16.659 -0.3227 -1.5942  0.6937
11013TIP3   OH254529   4.202   4.392  12.422  0.1881  0.3933 -0.4505
11013TIP3    H154530   4.277   4.391  12.483 -0.6512 -0.6115  0.6063
11013TIP3    H254531   4.133   4.344  12.468 -1.4503  2.1186 -0.9949
11014TIP3   OH254532   1.938   5.552   0.004 -0.3590 -0.0658 -0.1388
11014TIP3    H154533   1.895   5.502   0.073 -0.6001 -0.9896 -0.9372
11014TIP3    H254534   1.876   5.551  -0.069 -0.0116  0.6840 -0.4573
11015TIP3   OH254535   3.699   1.597  14.105 -0.5947 -0.1498 -0.5311
11015TIP3    H154536   3.632   1.664  14.115  1.3061  1.6560  1.1709
11015TIP3    H254537   3.652   1.514  14.108 -2.8216  1.0499 -0.6487
11016TIP3   OH254538   3.322   4.288  12.786 -0.3705 -0.3822  0.0585
11016TIP3    H154539   3.347   4.251  12.701 -0.3498 -1.0964  0.3706
11016TIP3    H254540   3.302   4.380  12.767 -0.6672 -0.6115 -0.7766
11017TIP3   OH254541   5.702   3.509   1.958  0.5825 -0.4266  0.1155
11017TIP3    H154542   5.767   3.550   1.901  1.9508 -2.5627  0.0218
11017TIP3    H254543   5.731   3.531   2.047 -0.3936  1.2019  0.0699
11018TIP3   OH254544   6.309   3.991   3.712 -0.0147 -0.1749 -0.2354
11018TIP3    H154545   6.377   3.923   3.706  1.0234  0.7912  0.0727
11018TIP3    H254546   6.251   3.961   3.781  0.6201 -0.6116  0.1237
11019TIP3   OH254547   1.244   1.054  12.739  0.3560  0.0367  0.3969
11019TIP3    H154548   1.296   1.055  12.820 -2.6811  0.2728  2.5273
11019TIP3    H254549   1.220   1.145  12.725 -0.3892 -0.1875  0.1440
11020TIP3   OH254550   0.842   5.974   0.841  0.1098 -0.3208  0.2613
11020TIP3    H154551   0.880   6.051   0.884 -0.3391 -0.7888  1.5517
11020TIP3    H254552   0.785   6.010   0.773 -0.3776  0.5086  1.0876
11021TIP3   OH254553   4.769   0.467  14.604  0.4839  0.3198  0.4706
11021TIP3    H154554   4.786   0.408  14.677  1.4764 -0.1863 -0.1490
11021TIP3    H254555   4.717   0.414  14.543  1.1816  0.1424  0.0171
11022TIP3   OH254556   0.757   1.173  16.626  0.4312 -0.5116 -0.3235
11022TIP3    H154557   0.673   1.217  16.621 -0.2755 -1.6985  0.5619
11022TIP3    H254558   0.819   1.242  16.649 -0.0828  0.5832 -2.0648
11023TIP3   OH254559   5.713   0.476  16.341  0.3565  0.2784 -0.1197
11023TIP3    H154560   5.675   0.454  16.255  1.1237 -1.2384 -0.1021
11023TIP3    H254561   5.798   0.433  16.341 -0.2347 -1.0430  1.9729
11024TIP3   OH254562   5.082   4.108   3.095  0.0831 -0.1953 -0.6041
11024TIP3    H154563   5.099   4.044   3.165 -0.4875 -0.7695 -0.9732
11024TIP3    H254564   5.087   4.056   3.014 -1.5392 -0.0438 -0.8451
11025TIP3   OH254565   3.571   6.551   4.684 -0.4801 -0.2788 -0.1100
11025TIP3    H154566   3.564   6.501   4.604 -2.4213 -0.4641  0.1378
11025TIP3    H254567   3.659   6.532   4.717  1.3771  1.6731 -3.3546
11026TIP3   OH254568   1.745   6.300  16.272  0.3595 -0.5211  0.0966
11026TIP3    H154569   1.708   6.218  16.303 -0.3755 -0.8358 -1.5168
11026TIP3    H254570   1.670   6.358  16.263  1.0086  0.8295  2.4921
11027TIP3   OH254571   2.778   1.297   4.047 -0.0759  0.0661  0.3549
11027TIP3    H154572   2.801   1.325   4.135  0.0977  2.0247 -0.2644
11027TIP3    H254573   2.760   1.378   4.000 -0.8254 -0.9677 -1.2441
11028TIP3   OH254574   2.518   4.523   5.567  0.4022  0.1823  0.5424
11028TIP3    H154575   2.600   4.517   5.517 -0.8802 -1.8630 -1.5154
11028TIP3    H254576   2.508   4.437   5.607  0.1516  1.0183  2.3897
11029TIP3   OH254577   5.870   1.697  15.446 -0.1798 -0.3653  0.0496
11029TIP3    H154578   5.963   1.720  15.449 -0.4886  1.0592  3.8202
11029TIP3    H254579   5.826   1.773  15.484 -3.0134 -0.8221 -2.0083
11030TIP3   OH254580   0.410   4.248   4.691  0.0678 -0.4642 -0.3792
11030TIP3    H154581   0.450   4.315   4.748 -0.6212 -0.6367  0.3123
11030TIP3    H254582   0.426   4.165   4.736 -2.2301 -0.4237  0.6283
11031TIP3   OH254583   5.814   5.773  12.919 -0.1473 -0.1507 -0.8203
11031TIP3    H154584   5.823   5.827  12.998  0.9454 -0.3240 -0.8076
11031TIP3    H254585   5.807   5.836  12.847 -0.7938  0.0051 -0.6284
11032TIP3   OH254586   2.088   3.932   5.099  0.0748  0.5547  0.2981
11032TIP3    H154587   2.175   3.944   5.136  1.3060 -1.7544 -1.5422
11032TIP3    H254588   2.063   4.018   5.067  3.3544  0.6846 -2.3984
11033TIP3   OH254589   6.021   0.246  12.947 -0.0931 -0.1947  0.0727
11033TIP3    H154590   5.975   0.226  13.028  0.0236 -0.3120  0.1103
11033TIP3    H254591   6.108   0.209  12.959 -0.1790 -0.5033 -0.2325
11034TIP3   OH254592   2.389   0.162   3.835 -0.0228 -0.1474  0.1096
11034TIP3    H154593   2.469   0.208   3.812  0.6548 -1.3973 -0.1427
11034TIP3    H254594   2.340   0.224   3.889  0.6862  0.9657 -0.5003
11035TIP3   OH254595   0.864   6.662  13.706 -0.1421 -0.0421 -0.7311
11035TIP3    H154596   0.892   6.703  13.789 -0.3062 -3.0014  0.9140
11035TIP3    H254597   0.934   6.681  13.645  0.7495  0.9081  0.5258
11036TIP3   OH254598   0.980   1.561  11.907  0.1400 -0.3314  0.3629
11036TIP3    H154599   0.980   1.615  11.987  2.0027  1.7231 -0.8991
11036TIP3    H254600   0.900   1.586  11.861  0.7532  1.0915  0.0169
11037TIP3   OH254601   3.906   1.475  16.356  0.1206 -0.2599 -0.0684
11037TIP3    H154602   3.916   1.430  16.271  0.6224 -0.3393  0.0318
11037TIP3    H254603   3.817   1.509  16.354  0.2101 -0.0458 -0.7349
11038TIP3   OH254604   3.493   6.227   4.124  0.1483  0.1781  0.9660
11038TIP3    H154605   3.426   6.269   4.069  1.0024  0.2254 -0.0796
11038TIP3    H254606   3.474   6.258   4.212 -1.0147  0.4389  0.6507
11039TIP3   OH254607   2.328   1.726  13.142 -0.1759 -0.2399  0.0652
11039TIP3    H154608   2.284   1.748  13.225 -1.3782  0.9439 -0.8372
11039TIP3    H254609   2.378   1.804  13.119 -0.3851 -0.3076 -0.6518
11040TIP3   OH254610   5.152   5.986  13.776 -0.1062 -0.1897  0.2822
11040TIP3    H154611   5.197   5.922  13.721 -0.1789 -1.7423  1.9245
11040TIP3    H254612   5.214   6.058  13.786  0.6525 -0.7591 -0.2317
11041TIP3   OH254613   5.525   2.377  12.765  0.3971  0.3119 -0.1184
11041TIP3    H154614   5.608   2.381  12.719  0.9708  0.6008  0.9014
11041TIP3    H254615   5.487   2.465  12.753  0.9434  0.6639  0.6534
11042TIP3   OH254616   2.627   1.401  15.964 -0.6255 -0.2875 -0.0646
11042TIP3    H154617   2.646   1.323  15.913  1.9993 -0.3424  0.8621
11042TIP3    H254618   2.670   1.472  15.916  0.2682 -0.0521  1.0441
11043TIP3   OH254619   2.241   1.898  13.950  0.3547  0.3079  0.1394
11043TIP3    H154620   2.199   1.837  13.889  0.3500  0.0199  0.4279
11043TIP3    H254621   2.310   1.939  13.899 -0.4704  1.0262 -0.4376
11044TIP3   OH254622   1.232   3.778   0.775  0.0955 -0.1274  0.0749
11044TIP3    H154623   1.181   3.698   0.767 -0.8841  0.5498 -0.6348
11044TIP3    H254624   1.206   3.831   0.700  0.5509  0.9523  0.6586
11045TIP3   OH254625   4.572   5.889   0.390 -0.0782 -0.1712  0.4650
11045TIP3    H154626   4.497   5.883   0.331 -1.4695  0.2845  2.1070
11045TIP3    H254627   4.618   5.806   0.380 -1.5254 -0.9798  0.3212
11046TIP3   OH254628   2.361   1.362   4.025  0.3460 -0.6417  0.0437
11046TIP3    H154629   2.266   1.354   4.021  0.0717 -0.5535  3.5164
11046TIP3    H254630   2.379   1.450   3.992 -0.9389 -0.1566  0.5810
11047TIP3   OH254631   5.608   1.589   1.999 -0.0116  0.5042  0.0470
11047TIP3    H154632   5.540   1.655   2.010 -1.1876 -0.9252  2.2631
11047TIP3    H254633   5.680   1.619   2.054 -0.4702  0.0632  0.9022
11048TIP3   OH254634   1.627   0.081  15.349  0.3424 -0.4338  0.3524
11048TIP3    H154635   1.646   0.165  15.389 -0.1461 -0.7522  1.2664
11048TIP3    H254636   1.665   0.087  15.261  0.0128  0.8601  0.2853
11049TIP3   OH254637   5.040   2.211   1.166  0.2001  0.0237  0.0969
11049TIP3    H154638   5.072   2.225   1.077  2.7333  0.4836  0.9989
11049TIP3    H254639   5.058   2.118   1.184 -0.6041 -0.1517  0.0477
11050TIP3   OH254640   1.910   0.517   1.305 -0.0627 -0.3764 -0.2027
11050TIP3    H154641   1.930   0.426   1.328  0.6188 -0.0861  0.4012
11050TIP3    H254642   1.995   0.555   1.283  0.0653  0.8047  2.0771
11051TIP3   OH254643   4.437   2.938  12.558  0.1584 -0.1149  0.3161
11051TIP3    H154644   4.366   2.968  12.501  1.1440 -0.3667 -1.1031
11051TIP3    H254645   4.517   2.954  12.508  0.9853 -1.4904  1.1137
11052TIP3   OH254646   4.863   1.480  14.362 -0.1726  0.1372  0.5882
11052TIP3    H154647   4.868   1.454  14.270  1.4542 -2.4437  1.2788
11052TIP3    H254648   4.816   1.408  14.404 -2.5299  2.1428  1.5824
11053TIP3   OH254649   2.743   2.289  13.075 -0.2954  0.3938  0.2192
11053TIP3    H154650   2.674   2.289  13.009  0.6550  0.7468 -0.7829
11053TIP3    H254651   2.706   2.340  13.148 -0.4679  2.0720 -0.9871
11054TIP3   OH254652   0.786   4.869   5.933  0.2723 -0.2307 -0.3984
11054TIP3    H154653   0.732   4.802   5.974 -0.5933  0.3761 -0.5150
11054TIP3    H254654   0.740   4.951   5.952  1.1752  0.3027 -0.4746
11055TIP3   OH254655   3.117   5.621   1.070  0.4938 -0.1655 -0.0137
11055TIP3    H154656   3.104   5.529   1.047 -0.0942  0.3341 -1.8372
11055TIP3    H254657   3.032   5.662   1.054  1.0196  0.8836 -0.2129
11056TIP3   OH254658   5.123   0.322  13.319  0.2035 -0.1406  0.5734
11056TIP3    H154659   5.111   0.254  13.385 -1.4889  0.6302  1.1028
11056TIP3    H254660   5.098   0.403  13.363 -1.0245  0.3836 -1.0176
11057TIP3   OH254661   6.512   3.805  15.538  0.0907  0.2485  0.3134
11057TIP3    H154662   6.435   3.770  15.583  0.6144  1.4654  2.2749
11057TIP3    H254663   6.488   3.895  15.518  0.9410  0.6031  0.8543
11058TIP3   OH254664   0.434   6.695   4.854 -0.0830  0.3864 -0.3812
11058TIP3    H154665   0.411   6.781   4.820  1.1681  0.4658 -1.0549
11058TIP3    H254666   0.390   6.633   4.796  0.2160  0.5542 -0.7859
11059TIP3   OH254667   4.410   0.409   3.127 -0.2847  0.2709  0.6778
11059TIP3    H154668   4.348   0.338   3.145 -0.0658  0.0052  0.4156
11059TIP3    H254669   4.476   0.369   3.069  0.5115  0.3585  1.5011
11060TIP3   OH254670   2.483   0.970  16.415 -0.4080  0.0055 -0.5503
11060TIP3    H154671   2.475   1.009  16.502 -0.0148  0.9395 -0.9087
11060TIP3    H254672   2.438   1.032  16.357  0.1810 -0.0920 -1.1311
11061TIP3   OH254673   6.107   0.775  15.884 -0.5165 -0.4156  0.3483
11061TIP3    H154674   6.037   0.840  15.887  1.8999  2.3729 -0.1624
11061TIP3    H254675   6.158   0.791  15.963  0.6588 -1.0839 -0.2511
11062TIP3   OH254676   0.765   3.251   2.475  0.8522  0.2333  0.4482
11062TIP3    H154677   0.708   3.328   2.471  1.4398  0.6826  0.5647
11062TIP3    H254678   0.720   3.185   2.421  0.1986  0.5555  0.5852
11063TIP3   OH254679   1.609   2.764  17.109 -0.2476  0.2316 -0.2305
11063TIP3    H154680   1.640   2.687  17.062 -0.3496 -0.2102  0.4147
11063TIP3    H254681   1.649   2.757  17.196  0.6186  1.4659 -0.4857
11064TIP3   OH254682   3.276   5.126  13.708 -0.5727  0.0027  0.3032
11064TIP3    H154683   3.203   5.143  13.648  1.6693 -0.4792 -2.7899
11064TIP3    H254684   3.262   5.036  13.738 -2.2824  0.6000  1.4787
11065TIP3   OH254685   0.612   2.401  13.306  0.2576 -0.2528 -0.0493
11065TIP3    H154686   0.555   2.377  13.379 -1.0346  0.4625 -0.7874
11065TIP3    H254687   0.698   2.414  13.346 -0.5654  0.7667  1.4645
11066TIP3   OH254688   4.746   0.635  16.524 -0.0313 -0.2018 -0.3542
11066TIP3    H154689   4.793   0.719  16.522  1.0031 -0.7801 -1.1355
11066TIP3    H254690   4.737   0.611  16.432  0.5026 -1.3915 -0.1135
11067TIP3   OH254691   2.687   6.436   0.913 -0.0091  0.3260  0.0858
11067TIP3    H154692   2.741   6.449   0.991 -1.1749 -1.7635  1.3407
11067TIP3    H254693   2.651   6.523   0.895  1.5518  1.1840  0.8683
11068TIP3   OH254694   3.087   0.705   3.560  0.7373  0.5341  0.1225
11068TIP3    H154695   3.069   0.668   3.647  1.1598  0.2544  0.0977
11068TIP3    H254696   3.145   0.779   3.577  1.1864  0.2023  0.0441
11069TIP3   OH254697   1.772   2.824  14.918  0.3705 -0.3860 -0.0638
11069TIP3    H154698   1.864   2.811  14.895  0.1726 -0.5613 -0.7891
11069TIP3    H254699   1.725   2.755  14.870 -0.5491  1.9897 -2.8857
11070TIP3   OH254700   2.735   0.966  11.951  0.5344  0.5246 -0.4551
11070TIP3    H154701   2.795   0.891  11.952 -0.2601 -0.1328  0.8059
11070TIP3    H254702   2.784   1.036  11.993  1.3814  0.8360 -1.8791
11071TIP3   OH254703   6.478   6.550  15.777 -0.2399  0.1092 -0.0184
11071TIP3    H154704   6.384   6.534  15.767 -0.1064 -0.8690  0.1913
11071TIP3    H254705   6.519   6.486  15.719  0.2996  0.7170 -0.3207
11072TIP3   OH254706   4.125   5.196   2.947 -0.5231  0.0472  0.4564
11072TIP3    H154707   4.087   5.174   2.861 -1.3526 -0.8088  1.0200
11072TIP3    H254708   4.071   5.269   2.979  1.6262  2.4218 -0.9899
11073TIP3   OH254709   6.415   2.236   0.893 -0.1246  0.3410 -0.3533
11073TIP3    H154710   6.466   2.159   0.917 -1.3128 -0.9632 -1.7422
11073TIP3    H254711   6.351   2.245   0.964 -0.6783 -0.6594 -0.7027
11074TIP3   OH254712   1.044   0.633  15.623  0.0110 -0.5506  0.1242
11074TIP3    H154713   1.109   0.562  15.628  0.5191 -0.4166 -2.8750
11074TIP3    H254714   0.992   0.623  15.703  0.4492 -3.9358  0.1477
11075TIP3   OH254715   5.615   3.278   5.416  0.1090 -0.3795  0.6509
11075TIP3    H154716   5.707   3.301   5.427  0.1426  0.6090 -1.2712
11075TIP3    H254717   5.581   3.344   5.356 -1.2472 -2.1478 -0.6064
11076TIP3   OH254718   6.067   4.429  12.149 -0.2712  0.1756 -0.0429
11076TIP3    H154719   6.011   4.458  12.077  0.2447  2.8367  0.5214
11076TIP3    H254720   6.147   4.481  12.141  0.7390 -1.0776  1.1634
11077TIP3   OH254721   5.736   1.151   0.844  0.5182 -0.6580 -0.4864
11077TIP3    H154722   5.659   1.206   0.858  1.1031  0.0278  0.0763
11077TIP3    H254723   5.799   1.208   0.801  2.4835  0.3016  3.2531
11078TIP3   OH254724   6.177   2.446   1.624 -0.0952  0.0074  0.6900
11078TIP3    H154725   6.144   2.368   1.668 -0.3343 -0.2666  0.0490
11078TIP3    H254726   6.255   2.415   1.577 -0.3866  0.0587  0.1538
11079TIP3   OH254727   3.728   4.731   5.352  0.3368 -0.2076 -0.2697
11079TIP3    H154728   3.678   4.807   5.381 -0.1070  1.0635 -3.8954
11079TIP3    H254729   3.814   4.766   5.329  0.8720 -1.2363  0.0989
11080TIP3   OH254730   3.667   4.640   0.685  0.1757 -0.2266 -0.4471
11080TIP3    H154731   3.620   4.680   0.758  0.9095  0.1617 -0.1741
11080TIP3    H254732   3.616   4.562   0.664 -1.1780  0.7368 -0.8628
11081TIP3   OH254733   0.396   6.722   5.753 -0.5077  0.0897 -0.1607
11081TIP3    H154734   0.429   6.643   5.796  0.0466  1.0917  1.3514
11081TIP3    H254735   0.460   6.742   5.685  0.0528 -0.0200  0.3312
11082TIP3   OH254736   1.983   3.256   0.950  0.1125 -0.0316  0.1536
11082TIP3    H154737   1.960   3.339   0.991  0.6889  0.4468 -0.4603
11082TIP3    H254738   2.054   3.279   0.889  0.6703 -1.0726  0.4016
11083TIP3   OH254739   6.697   5.961  16.521 -0.1631 -0.0113  0.3102
11083TIP3    H154740   6.686   5.908  16.442  1.7891  1.1940 -0.8283
11083TIP3    H254741   6.638   6.035  16.509  0.8934  0.7146 -0.5483
11084TIP3   OH254742   4.877   3.963  14.785 -0.1080  0.4436 -0.2621
11084TIP3    H154743   4.828   3.924  14.857  0.1437 -1.4219 -1.0411
11084TIP3    H254744   4.848   3.915  14.707  1.8658  0.2645 -0.9462
11085TIP3   OH254745   4.331   2.651  11.249  0.3411 -0.3085 -0.0380
11085TIP3    H154746   4.351   2.665  11.341  1.2412 -2.3778  0.1541
11085TIP3    H254747   4.298   2.735  11.217  0.3479  0.5361  2.0683
11086TIP3   OH254748   6.747   5.142  10.270 -0.3117  0.4561  0.6839
11086TIP3    H154749   6.765   5.226  10.313 -0.5707  0.2264  1.2431
11086TIP3    H254750   6.666   5.111  10.310 -0.9398  0.5686 -0.4631
11087TIP3   OH254751   4.760   0.528   4.221 -0.0999 -0.2453  0.6674
11087TIP3    H154752   4.846   0.507   4.257  0.1573  1.9020  1.4610
11087TIP3    H254753   4.720   0.585   4.286 -1.4847  0.0687 -0.4023
11088TIP3   OH254754   0.384   1.189  10.599  0.3206  0.2466  0.1339
11088TIP3    H154755   0.355   1.107  10.639 -0.8043 -0.1923 -1.4610
11088TIP3    H254756   0.478   1.193  10.617  0.4422 -1.5340  0.0503
11089TIP3   OH254757   1.399   2.761  14.192  0.1004 -1.0139 -0.5954
11089TIP3    H154758   1.411   2.737  14.100  1.3174 -0.9920 -0.4643
11089TIP3    H254759   1.449   2.695  14.240  1.2691  0.2019 -0.0833
11090TIP3   OH254760   0.394   3.544  11.958  0.3177  0.0532 -0.1816
11090TIP3    H154761   0.420   3.453  11.970 -0.3915 -0.2821 -1.0086
11090TIP3    H254762   0.367   3.573  12.045  1.2980 -0.2790  0.2369
11091TIP3   OH254763   4.867   5.399  12.660 -0.2238  0.2112  0.3785
11091TIP3    H154764   4.921   5.412  12.737 -0.9003 -2.5708  1.4293
11091TIP3    H254765   4.835   5.486  12.638  3.0001  1.6686  0.8891
11092TIP3   OH254766   0.177   4.288   1.897 -0.0474  0.1449 -0.3591
11092TIP3    H154767   0.243   4.222   1.875 -1.1597 -1.0739 -0.1416
11092TIP3    H254768   0.098   4.258   1.852 -0.3097  1.9318 -1.1505
11093TIP3   OH254769   0.067   3.671  16.427 -0.5101  0.0368  0.7988
11093TIP3    H154770  -0.029   3.669  16.433 -0.5286 -1.2837  0.4002
11093TIP3    H254771   0.089   3.596  16.372  0.7611  0.3011  0.9165
11094TIP3   OH254772   5.213   2.269   4.458  0.3086 -0.2743  0.0641
11094TIP3    H154773   5.219   2.237   4.368  0.5920  0.0292 -0.0284
11094TIP3    H254774   5.282   2.336   4.465 -2.2966  2.7525 -0.7531
11095TIP3   OH254775   1.705   4.403  12.048  0.0876 -0.0755  0.5556
11095TIP3    H154776   1.673   4.361  12.128 -1.9951  1.3161  0.5392
11095TIP3    H254777   1.773   4.463  12.078  0.2507 -0.5204  1.0936
11096TIP3   OH254778   2.170   3.686   4.777  0.0403 -0.3064  0.6680
11096TIP3    H154779   2.084   3.697   4.738  0.5715 -0.7838 -0.7201
11096TIP3    H254780   2.225   3.751   4.733  0.4358 -0.1377  1.3985
11097TIP3   OH254781   2.187   4.564  15.048 -0.3636 -0.2634  0.0102
11097TIP3    H154782   2.149   4.632  15.104  1.9485  0.7779  0.4139
11097TIP3    H254783   2.169   4.482  15.094  0.1103  0.4293  1.4877
11098TIP3   OH254784   3.922   0.862   1.133  0.5966 -0.2651 -0.1098
11098TIP3    H154785   3.903   0.923   1.204 -2.0428  0.0257 -0.9394
11098TIP3    H254786   3.971   0.913   1.069  2.2398 -0.2907  1.0832
11099TIP3   OH254787   0.021   1.659   3.320  0.3864  0.3111  0.4924
11099TIP3    H154788   0.031   1.607   3.399  1.2492  1.0836  0.9133
11099TIP3    H254789   0.066   1.610   3.252  1.1282  0.4604  0.8702
11100TIP3   OH254790   5.064   4.262   2.293 -0.6053  0.1271  0.0003
11100TIP3    H154791   5.029   4.351   2.306 -0.4158  0.1729  0.1957
11100TIP3    H254792   5.147   4.276   2.248 -0.8891  0.0118 -0.5676
11101TIP3   OH254793   3.351   4.661  15.203 -0.3543 -0.0428  0.3867
11101TIP3    H154794   3.391   4.577  15.181 -0.3964 -0.2971  1.2616
11101TIP3    H254795   3.261   4.639  15.228 -0.6797  0.3848 -0.3594
11102TIP3   OH254796   5.223   1.424   0.149  0.4924 -0.1865 -0.0165
11102TIP3    H154797   5.191   1.393   0.234  0.6749 -2.0082 -0.5759
11102TIP3    H254798   5.145   1.427   0.094  0.8450 -2.2792 -0.6981
11103TIP3   OH254799   3.889   2.151  12.631 -0.0317 -0.6522  0.0958
11103TIP3    H154800   3.956   2.089  12.662  0.3971 -0.5232 -0.5599
11103TIP3    H254801   3.906   2.161  12.538  0.4966  1.1617  0.3458
11104TIP3   OH254802   2.472   6.773  12.837  0.0799  0.1284  0.4325
11104TIP3    H154803   2.542   6.810  12.890 -0.2173  0.6937  0.4301
11104TIP3    H254804   2.446   6.694  12.884  0.4341  0.1383  0.6486
11105TIP3   OH254805   6.586   3.632  14.611  0.2792  0.1750 -0.0675
11105TIP3    H154806   6.577   3.686  14.689  2.3549  0.1960  0.2154
11105TIP3    H254807   6.604   3.544  14.644 -1.4661 -0.4058 -0.5436
11106TIP3   OH254808   2.648   3.725  12.665  0.4488  0.2907  0.0589
11106TIP3    H154809   2.662   3.673  12.586  2.1723 -0.4516  0.7940
11106TIP3    H254810   2.722   3.787  12.666 -0.1417  1.0098  0.5437
11107TIP3   OH254811   5.225   6.641   6.029 -0.4588  0.0545 -0.0853
11107TIP3    H154812   5.165   6.611   5.961 -2.0916 -0.0919  1.3651
11107TIP3    H254813   5.171   6.697   6.085  1.7178  3.4324 -1.0039
11108TIP3   OH254814   6.054   1.134   0.008 -0.4363 -0.3536 -0.4156
11108TIP3    H154815   6.133   1.084   0.030  0.1395  0.7232  0.0378
11108TIP3    H254816   6.038   1.115  -0.084 -2.7116 -4.7345  0.6421
11109TIP3   OH254817   2.375   2.705  17.060  0.2228 -0.0231  0.6053
11109TIP3    H154818   2.312   2.771  17.030  0.3685 -1.0471 -2.3450
11109TIP3    H254819   2.321   2.627  17.076  0.4531 -0.2174  0.4408
11110TIP3   OH254820   2.461   4.401  16.113  0.6469 -0.1087  0.0535
11110TIP3    H154821   2.516   4.477  16.131 -0.1735  0.4557  0.2212
11110TIP3    H254822   2.470   4.386  16.019 -1.2028  1.8417 -0.5126
11111TIP3   OH254823   0.803   0.921  14.271 -0.6059 -0.0739  0.3854
11111TIP3    H154824   0.837   0.982  14.335 -0.1080  0.6298 -0.5235
11111TIP3    H254825   0.713   0.904  14.298 -0.5503  0.5886  0.9838
11112TIP3   OH254826   1.305   2.275   4.228 -0.2240  0.3638  0.0015
11112TIP3    H154827   1.386   2.233   4.258  0.4211  1.0629 -0.7155
11112TIP3    H254828   1.334   2.337   4.161 -1.1712  1.8805  0.9508
11113TIP3   OH254829   6.281   1.782   5.756 -0.0971 -0.4288  0.6423
11113TIP3    H154830   6.357   1.771   5.700 -0.6935  0.0204 -0.2687
11113TIP3    H254831   6.317   1.783   5.845  0.9000 -0.6858  0.2517
11114TIP3   OH254832   3.906   3.239  12.666 -0.5530  0.6985 -0.4385
11114TIP3    H154833   3.821   3.197  12.682 -0.3139  0.0747 -0.7606
11114TIP3    H254834   3.911   3.246  12.570 -0.0613  0.3403 -0.4419
11115TIP3   OH254835   4.210   4.948   2.297 -0.0127  0.5245  0.1410
11115TIP3    H154836   4.206   4.860   2.335  1.5303  0.5376  0.4289
11115TIP3    H254837   4.212   4.933   2.202  4.9114 -0.2337  0.0729
11116TIP3   OH254838   1.842   4.604  11.769  0.6405 -0.3109  0.1838
11116TIP3    H154839   1.796   4.649  11.841 -0.2230  0.8411 -1.0356
11116TIP3    H254840   1.775   4.594  11.701  1.3771 -1.6289 -0.3762
11117TIP3   OH254841   0.522   1.780  11.769 -0.0601 -0.5763 -0.3397
11117TIP3    H154842   0.493   1.710  11.828  2.6834 -0.0909  1.7909
11117TIP3    H254843   0.586   1.830  11.820  0.4870  1.5508 -2.8774
11118TIP3   OH254844   2.033   2.846  13.352 -0.2336 -0.0278 -0.2749
11118TIP3    H154845   2.104   2.867  13.413  1.0628 -3.2571 -0.4204
11118TIP3    H254846   2.052   2.899  13.275  1.2121  0.2481  0.2285
11119TIP3   OH254847   3.731   5.800  12.803  0.0424  0.0573  0.0270
11119TIP3    H154848   3.696   5.712  12.814 -4.6767  1.4602 -1.5621
11119TIP3    H254849   3.688   5.852  12.870  0.2818  1.7139 -1.0391
11120TIP3   OH254850   3.150   2.419   0.605 -0.3959  0.0073  0.3379
11120TIP3    H154851   3.220   2.481   0.586 -1.0909  0.5707 -0.4370
11120TIP3    H254852   3.075   2.473   0.629 -1.8271 -0.3029 -2.9470
11121TIP3   OH254853   2.730   0.671   3.547 -0.4582  0.0446  0.0094
11121TIP3    H154854   2.670   0.682   3.472  1.6181 -0.1739 -1.7821
11121TIP3    H254855   2.760   0.760   3.566  1.6219 -0.1723 -1.7870
11122TIP3   OH254856   4.229   3.390  13.695  0.2651 -0.0644  0.0321
11122TIP3    H154857   4.240   3.303  13.657  1.2163 -0.2900  0.7914
11122TIP3    H254858   4.175   3.376  13.772 -0.5323  0.1998 -0.4620
11123TIP3   OH254859   2.779   1.799   3.332  0.6457  0.4407 -0.1134
11123TIP3    H154860   2.804   1.846   3.252 -1.0037  1.2902 -0.1609
11123TIP3    H254861   2.837   1.836   3.399  1.5505  0.2336 -0.7509
11124TIP3   OH254862   2.523   2.200  13.620 -0.1505 -0.0529  0.1767
11124TIP3    H154863   2.448   2.177  13.564 -0.2300 -0.0481  0.2806
11124TIP3    H254864   2.573   2.262  13.568 -1.9755  2.5911  1.3786
11125TIP3   OH254865   6.009   2.050  14.267 -0.7197 -0.0363  0.3515
11125TIP3    H154866   5.938   2.069  14.328 -0.9719  0.8226 -0.1976
11125TIP3    H254867   5.965   2.025  14.185 -0.4596  2.3036 -0.5763
11126TIP3   OH254868   0.307   4.238   5.000  0.7817 -0.1236  0.3456
11126TIP3    H154869   0.361   4.293   4.943 -0.5845  1.3748  0.4236
11126TIP3    H254870   0.341   4.149   4.986  1.8228  0.4653 -1.2339
11127TIP3   OH254871   5.639   1.484   0.645  0.6499 -0.2484 -0.1683
11127TIP3    H154872   5.719   1.534   0.664  1.4283 -0.8246 -1.7411
11127TIP3    H254873   5.569   1.548   0.651  1.1839  0.2281  1.4784
11128TIP3   OH254874   1.376   3.000  17.227 -0.3123 -0.3848  0.0642
11128TIP3    H154875   1.356   3.091  17.251 -0.9277 -0.2494 -0.8949
11128TIP3    H254876   1.360   2.996  17.133  1.9296 -0.9181 -0.3473
11129TIP3   OH254877   6.479   3.788  13.689 -0.9955 -0.4592  1.0574
11129TIP3    H154878   6.394   3.801  13.646 -1.5806 -3.0218  1.2540
11129TIP3    H254879   6.543   3.827  13.630 -2.2509  1.0980  0.6655
11130TIP3   OH254880   0.702   3.080  11.889  0.2727  0.4412 -0.1116
11130TIP3    H154881   0.612   3.099  11.861 -0.4771 -1.6254  0.6719
11130TIP3    H254882   0.695   3.064  11.983  1.2056 -1.0320 -0.2662
11131TIP3   OH254883   5.902   3.036   5.522  0.3051  0.3102  0.2419
11131TIP3    H154884   5.902   3.131   5.510 -1.1041  0.6205  2.2925
11131TIP3    H254885   5.811   3.010   5.513  0.5227 -0.6880  0.7690
11132TIP3   OH254886   2.714   0.484  15.072  0.3452  0.0620 -0.3855
11132TIP3    H154887   2.660   0.411  15.101 -0.2184  1.1183  1.4034
11132TIP3    H254888   2.725   0.471  14.978 -0.3118 -1.9208 -0.2185
11133TIP3   OH254889   5.893   1.879  14.697  0.7425  0.3460 -0.1099
11133TIP3    H154890   5.892   1.853  14.605 -1.1928  0.2237 -0.0873
11133TIP3    H254891   5.831   1.951  14.703  0.8000  0.3226  1.1103
11134TIP3   OH254892   0.551   2.412  14.182 -0.3881 -0.2548 -0.1399
11134TIP3    H154893   0.615   2.341  14.194  0.1839  0.0763 -1.1584
11134TIP3    H254894   0.580   2.458  14.104 -0.6458  1.2360  0.5996
11135TIP3   OH254895   3.840   0.247  12.565 -0.0669 -0.1851  0.4334
11135TIP3    H154896   3.891   0.296  12.630  0.6169  0.8546 -0.8306
11135TIP3    H254897   3.828   0.160  12.604  1.9609 -0.1955  1.1552
11136TIP3   OH254898   3.305   5.560   4.107  0.4476 -0.2925  0.4366
11136TIP3    H154899   3.296   5.639   4.161  0.7789 -0.4897  0.7865
11136TIP3    H254900   3.263   5.491   4.159 -2.6798  0.1806 -1.1742
11137TIP3   OH254901   0.996   2.214   1.276  0.0181 -0.1446 -0.0036
11137TIP3    H154902   1.076   2.263   1.258 -0.3230  1.0376  1.5071
11137TIP3    H254903   0.925   2.272   1.250 -0.3776 -0.4219  0.4388
11138TIP3   OH254904   4.978   6.152   4.429 -0.0308 -0.1182 -0.1987
11138TIP3    H154905   4.968   6.058   4.439 -0.7591 -0.2355 -1.6974
11138TIP3    H254906   5.007   6.163   4.338 -0.2577  1.1092 -0.1375
11139TIP3   OH254907   4.950   2.569   6.362 -0.2042 -0.3216 -0.0265
11139TIP3    H154908   5.039   2.535   6.368  0.7535  1.6345 -1.6045
11139TIP3    H254909   4.895   2.502   6.402  1.9463 -1.6940  0.7869
11140TIP3   OH254910   1.703   1.157   6.037 -0.0031  0.1527 -0.0914
11140TIP3    H154911   1.610   1.178   6.045 -0.0496  0.5998 -1.5716
11140TIP3    H254912   1.705   1.061   6.030 -0.2081  0.0133  1.3659
11141TIP3   OH254913   1.004   1.001  14.845  0.4559 -0.8546 -0.2542
11141TIP3    H154914   0.927   1.054  14.821  0.6788 -0.5335 -0.2709
11141TIP3    H254915   0.984   0.913  14.813  1.4933 -0.1013 -3.2361
11142TIP3   OH254916   5.010   4.112  14.246 -0.3771  0.0744  0.1714
11142TIP3    H154917   5.080   4.087  14.185 -0.8114  0.8986 -0.6901
11142TIP3    H254918   4.931   4.075  14.208 -0.3687 -1.2928  1.4148
11143TIP3   OH254919   1.846   3.367  16.537  0.2626 -0.7265 -0.0031
11143TIP3    H154920   1.899   3.444  16.518 -1.6948  0.2948 -1.8782
11143TIP3    H254921   1.872   3.340  16.625  2.6110  0.6839 -0.1782
11144TIP3   OH254922   3.694   1.938  12.130 -0.4468 -0.1541 -0.1686
11144TIP3    H154923   3.607   1.965  12.160  0.4259  1.8561  0.7172
11144TIP3    H254924   3.677   1.886  12.051 -2.4526 -0.0705  0.1599
11145TIP3   OH254925   0.832   0.121  15.692 -0.1553 -0.2907  0.1949
11145TIP3    H154926   0.912   0.088  15.732 -0.1781  0.0818  0.5530
11145TIP3    H254927   0.765   0.109  15.758 -0.1256  0.6399  0.4206
11146TIP3   OH254928   1.474   2.974   2.100 -0.2293  0.2929 -0.1968
11146TIP3    H154929   1.553   3.025   2.083  0.1357  0.2816  1.3923
11146TIP3    H254930   1.506   2.886   2.118 -0.7841 -0.2822 -1.7862
11147TIP3   OH254931   0.294   5.982  11.111 -0.3893  0.5958 -0.5996
11147TIP3    H154932   0.326   6.048  11.049  2.2827 -0.6671 -0.6980
11147TIP3    H254933   0.334   6.006  11.195  0.4826 -0.7331 -0.6000
11148TIP3   OH254934   1.249   0.074  16.753 -0.2437  0.6239 -0.1596
11148TIP3    H154935   1.333   0.071  16.798 -0.3250  0.7083  0.0011
11148TIP3    H254936   1.239   0.165  16.727 -1.2459  1.1222  1.7081
11149TIP3   OH254937   1.368   6.290   5.821  0.5948  0.4781  0.0259
11149TIP3    H154938   1.295   6.349   5.803  2.4567  2.4991 -1.4219
11149TIP3    H254939   1.379   6.292   5.916 -0.5967  0.9289  0.1628
11150TIP3   OH254940   4.952   1.054   1.642  0.1466 -0.1187  0.3022
11150TIP3    H154941   4.906   1.129   1.678  1.5049  1.3010 -0.7404
11150TIP3    H254942   4.922   1.048   1.551 -0.7513 -1.5441  0.6641
11151TIP3   OH254943   5.831   0.817   6.317 -0.1751 -0.2123  0.1068
11151TIP3    H154944   5.785   0.774   6.389 -0.1618  0.4422  0.5155
11151TIP3    H254945   5.916   0.773   6.314  0.1839  0.3674  1.1141
11152TIP3   OH254946   1.366   5.910   2.199  0.2257  0.0162 -0.1279
11152TIP3    H154947   1.449   5.897   2.245  0.2640  0.2544 -0.1252
11152TIP3    H254948   1.320   5.976   2.251 -0.5667 -1.1109  0.6578
11153TIP3   OH254949   4.967   5.106   3.785  0.0589 -0.6755  0.4976
11153TIP3    H154950   4.999   5.054   3.860 -0.8646 -0.7676  0.8472
11153TIP3    H254951   5.001   5.194   3.800 -0.3735 -0.6197  1.2073
11154TIP3   OH254952   4.938   2.671  15.525 -0.3054 -0.2071 -0.2352
11154TIP3    H154953   4.851   2.687  15.490 -0.3987  2.7904  1.0469
11154TIP3    H254954   4.923   2.622  15.606 -0.4078 -3.1601 -1.9239
11155TIP3   OH254955   5.132   0.274  12.776 -0.3508  0.0783  0.2066
11155TIP3    H154956   5.135   0.358  12.821 -1.6311  0.5081 -0.4339
11155TIP3    H254957   5.043   0.242  12.792 -0.2457 -0.5975 -0.5146
11156TIP3   OH254958   3.886   4.019  13.661  0.1929 -0.7505 -0.0698
11156TIP3    H154959   3.809   4.009  13.717  1.4421 -1.5974  1.5896
11156TIP3    H254960   3.952   4.061  13.717  0.9903 -0.1215 -1.4121
11157TIP3   OH254961   4.451   4.331   6.004 -0.0692 -0.2730  0.2684
11157TIP3    H154962   4.404   4.262   5.956  0.3667 -0.9056  0.7347
11157TIP3    H254963   4.401   4.410   5.986 -0.3101 -0.6229 -0.6661
11158TIP3   OH254964   4.822   3.941   4.788 -0.5634 -0.9539  0.1531
11158TIP3    H154965   4.737   3.903   4.812 -1.6831  2.2644  1.8375
11158TIP3    H254966   4.819   3.946   4.692 -3.0811  0.5989  0.2097
11159TIP3   OH254967   1.885   4.833   3.582 -0.2270  0.0029  0.4065
11159TIP3    H154968   1.950   4.763   3.568  0.2915  0.7611 -1.2595
11159TIP3    H254969   1.891   4.852   3.676  1.3963 -0.4983  0.4411
11160TIP3   OH254970   5.361   0.551   0.797 -0.0177 -0.2742 -0.0447
11160TIP3    H154971   5.305   0.560   0.719 -0.8562  0.2024  0.5949
11160TIP3    H254972   5.433   0.494   0.768 -1.4896 -1.9809 -0.5458
11161TIP3   OH254973   2.063   0.125  15.862 -0.1944  0.0506 -0.6057
11161TIP3    H154974   2.067   0.147  15.955  3.0858  2.2777 -1.1368
11161TIP3    H254975   2.132   0.060  15.849 -0.7316 -0.3730 -1.4943
11162TIP3   OH254976   3.358   0.476   1.190 -0.6081  0.0801  0.2140
11162TIP3    H154977   3.362   0.416   1.116 -0.5732  1.2259 -0.7349
11162TIP3    H254978   3.330   0.559   1.153  0.2257  0.8991  1.3406
11163TIP3   OH254979   2.953   1.723   6.489 -0.3171  0.3180  0.1828
11163TIP3    H154980   2.981   1.808   6.455  0.2560 -0.4171 -1.2808
11163TIP3    H254981   2.905   1.744   6.570  1.9000  1.8408  1.1979
11164TIP3   OH254982   5.094   0.886  11.698  0.4468 -0.3074  0.0420
11164TIP3    H154983   5.003   0.915  11.711 -0.5200 -3.6826  2.1575
11164TIP3    H254984   5.094   0.851  11.609 -0.8194 -1.5760  0.4927
11165TIP3   OH254985   6.473   6.760  11.942 -0.3699  0.0799  0.6839
11165TIP3    H154986   6.392   6.711  11.934  0.5891 -1.4594 -0.0074
11165TIP3    H254987   6.446   6.852  11.941 -1.9939 -0.3682 -0.8323
11166TIP3   OH254988   4.367   2.092   1.235 -0.6317 -0.7763 -0.1100
11166TIP3    H154989   4.275   2.118   1.231 -0.1241  1.0678 -0.6731
11166TIP3    H254990   4.409   2.159   1.289  0.8758  0.0867 -2.2271
11167TIP3   OH254991   4.241   6.275   2.916 -0.3945 -0.0687  0.1227
11167TIP3    H154992   4.308   6.229   2.965 -0.1853  0.8696  0.7566
11167TIP3    H254993   4.251   6.245   2.826  0.2998 -0.5880  0.3663
11168TIP3   OH254994   5.868   6.211  14.293 -0.1575  0.1710  0.1009
11168TIP3    H154995   5.803   6.169  14.236  0.8783  0.5568 -1.4137
11168TIP3    H254996   5.876   6.151  14.368 -0.5432 -1.0619 -0.8117
11169TIP3   OH254997   5.961   6.390   3.805 -0.5282 -0.4766  0.3196
11169TIP3    H154998   5.891   6.402   3.869 -1.5084  1.0379 -0.9654
11169TIP3    H254999   6.015   6.468   3.813 -0.1392 -0.6981 -0.0724
11170TIP3   OH255000   4.933   1.282  15.066 -0.0261 -0.0082 -0.2375
11170TIP3    H155001   5.021   1.311  15.041  0.0796 -1.1294 -1.2526
11170TIP3    H255002   4.899   1.239  14.988 -0.8525 -1.0181  0.6561
11171TIP3   OH255003   6.755   0.110   3.563  0.0142 -0.2659 -0.1573
11171TIP3    H155004   6.759   0.099   3.467 -0.7035  1.8216 -0.4709
11171TIP3    H255005   6.845   0.094   3.592 -0.0870 -2.6219 -0.9282
11172TIP3   OH255006   3.749   1.766  14.475 -0.5986 -0.1090 -0.5044
11172TIP3    H155007   3.692   1.802  14.408  1.6468  1.7901 -1.5292
11172TIP3    H255008   3.728   1.817  14.554 -0.7943  0.0756 -0.6752
11173TIP3   OH255009   6.649   2.322  15.711 -0.2845 -0.0084  0.0574
11173TIP3    H155010   6.715   2.278  15.657 -1.2932 -1.8622  0.2457
11173TIP3    H255011   6.687   2.323  15.799 -0.2325 -0.4868  0.0439
11174TIP3   OH255012   1.027   6.188  12.232  0.2683  0.5494 -0.6593
11174TIP3    H155013   1.071   6.106  12.252 -1.4182 -0.0297  0.9526
11174TIP3    H255014   0.947   6.162  12.187 -0.0254  1.3398 -0.6111
11175TIP3   OH255015   6.025   4.190   5.077  0.2389  0.1169 -0.3043
11175TIP3    H155016   5.947   4.219   5.125  0.0578 -0.7908 -0.0395
11175TIP3    H255017   6.005   4.209   4.986 -0.3907 -0.3238 -0.2630
11176TIP3   OH255018   0.965   4.188   4.408  0.0647 -0.1158 -0.2132
11176TIP3    H155019   0.901   4.258   4.423  1.4143  0.8069  1.4991
11176TIP3    H255020   0.990   4.198   4.316  0.4917  1.9033  0.0887
11177TIP3   OH255021   0.553   6.472   2.639  0.1787 -0.1284  0.8417
11177TIP3    H155022   0.510   6.449   2.556 -0.2430 -2.7738  1.6973
11177TIP3    H255023   0.617   6.539   2.615 -0.5060 -0.2208 -1.4651
11178TIP3   OH255024   1.004   4.410   6.218  0.0609 -0.4503 -0.1632
11178TIP3    H155025   1.099   4.416   6.208  0.2657 -2.9543 -0.4654
11178TIP3    H255026   0.969   4.449   6.138  0.7523  1.3616  0.3714
11179TIP3   OH255027   3.837   0.915   6.541 -0.3896 -0.0293  0.4340
11179TIP3    H155028   3.828   0.823   6.565 -0.3246  0.6410  3.3461
11179TIP3    H255029   3.931   0.931   6.540 -0.2831 -0.4010 -2.1218
11180TIP3   OH255030   4.174   1.318   3.008  0.3838  0.0396 -0.0283
11180TIP3    H155031   4.234   1.277   2.947 -0.4012 -0.6947 -0.3290
11180TIP3    H255032   4.119   1.246   3.040 -0.1286  0.6374  0.4655
11181TIP3   OH255033   5.420   2.726   2.320 -0.1795 -0.2952  0.5887
11181TIP3    H155034   5.459   2.779   2.250  1.5209 -2.4203 -0.1918
11181TIP3    H255035   5.379   2.652   2.274  0.4519 -1.4239  1.7605
11182TIP3   OH255036   1.500   3.632   0.147 -0.4974  0.3439  0.3578
11182TIP3    H155037   1.498   3.556   0.089 -0.8371  1.2232 -0.8147
11182TIP3    H255038   1.411   3.668   0.142 -0.6232  0.2488  1.6868
11183TIP3   OH255039   1.905   6.650  15.999 -0.5078  0.5737  0.0641
11183TIP3    H155040   1.916   6.561  15.966 -1.9246  0.4187 -0.0395
11183TIP3    H255041   1.995   6.682  16.013  0.0223 -0.6912 -0.3399
11184TIP3   OH255042   5.163   4.733  13.195 -0.0870 -0.1729  0.3992
11184TIP3    H155043   5.184   4.803  13.256  0.8021  2.2131 -2.4053
11184TIP3    H255044   5.067   4.735  13.187 -0.0846  0.6133  0.5153
11185TIP3   OH255045   4.148   3.792  16.283 -0.4139 -0.2336  0.1742
11185TIP3    H155046   4.203   3.826  16.212 -1.7550 -0.3861 -0.9811
11185TIP3    H255047   4.080   3.742  16.238  0.3129 -2.7521  1.7272
11186TIP3   OH255048   6.244   6.659   5.527  0.6708  0.0838  0.3601
11186TIP3    H155049   6.199   6.576   5.509 -1.7321  1.2745  0.4901
11186TIP3    H255050   6.313   6.636   5.589 -2.0143 -1.3990  3.0377
11187TIP3   OH255051   3.038   5.550  14.775 -0.1943 -0.5657  0.1690
11187TIP3    H155052   3.099   5.496  14.825  1.3832  0.7287 -0.2623
11187TIP3    H255053   3.074   5.551  14.687 -0.9101  0.1247 -0.1283
11188TIP3   OH255054   0.331   5.637   2.802 -0.0157 -0.1905 -0.1787
11188TIP3    H155055   0.260   5.598   2.852  0.1008  0.0440  0.1715
11188TIP3    H255056   0.364   5.707   2.858 -0.9594  1.1704 -1.2445
11189TIP3   OH255057   3.317   6.461  11.949  0.1891 -0.5167  0.0422
11189TIP3    H155058   3.293   6.472  12.041  0.6380 -1.0892  0.2288
11189TIP3    H255059   3.281   6.539  11.906 -1.0291 -0.8032  0.4955
11190TIP3   OH255060   0.499   3.670   5.397  0.1141  0.2469  0.0311
11190TIP3    H155061   0.454   3.671   5.312  1.0235 -3.3554 -0.6822
11190TIP3    H255062   0.436   3.630   5.457  0.4909  0.0826  0.3222
11191TIP3   OH255063   2.193   5.238  14.412  0.4050  0.2306  0.1270
11191TIP3    H155064   2.144   5.251  14.331 -1.3041 -0.8608  0.9297
11191TIP3    H255065   2.169   5.313  14.467 -1.2421 -0.7988  0.8898
11192TIP3   OH255066   4.754   3.165  13.550 -0.2232  0.1039 -0.2850
11192TIP3    H155067   4.661   3.151  13.571 -0.3687  2.1924  0.7386
11192TIP3    H255068   4.800   3.142  13.630 -0.1419  1.6620  0.1426
11193TIP3   OH255069   4.374   5.443   5.901 -0.4783 -0.0622  0.4529
11193TIP3    H155070   4.382   5.530   5.940 -1.6337 -0.0767  0.7542
11193TIP3    H255071   4.461   5.425   5.864  0.5322  0.1609  2.5836
11194TIP3   OH255072   0.276   4.774  15.199  0.8100 -0.2980  0.0809
11194TIP3    H155073   0.316   4.812  15.121  1.8750 -0.8822  0.3268
11194TIP3    H255074   0.233   4.848  15.242  0.8441  0.1671 -0.6687
11195TIP3   OH255075   0.178   1.253   1.080 -0.1941  0.2110 -0.3787
11195TIP3    H155076   0.189   1.344   1.108 -1.6464  0.6517 -1.1028
11195TIP3    H255077   0.267   1.220   1.071  0.3525  1.0713  1.3698
11196TIP3   OH255078   0.437   4.175   2.266 -0.1298  0.6675 -0.1350
11196TIP3    H155079   0.502   4.238   2.235  0.0732  0.7211  0.3904
11196TIP3    H255080   0.465   4.153   2.355 -0.1142 -0.2930 -0.3720
11197TIP3   OH255081   0.581   4.817   4.081  0.0523 -0.2958  0.4846
11197TIP3    H155082   0.607   4.782   3.996  1.8466  1.9796 -0.0035
11197TIP3    H255083   0.652   4.792   4.140 -0.0819  0.0486  0.7921
11198TIP3   OH255084   6.527   1.758   4.398 -0.6661 -0.0835 -0.5356
11198TIP3    H155085   6.540   1.774   4.492  0.5510 -0.4878 -0.6158
11198TIP3    H255086   6.616   1.746   4.364 -1.0474  0.7479 -1.8747
11199TIP3   OH255087   3.910   0.079   1.749 -0.3406 -0.2547 -0.0651
11199TIP3    H155088   3.900   0.161   1.797 -1.1225 -0.9710  1.0175
11199TIP3    H255089   4.000   0.082   1.717 -0.5408  1.3016 -0.5857
11200TIP3   OH255090   3.778   1.668   3.291 -0.0721  0.0023 -0.4542
11200TIP3    H155091   3.833   1.613   3.347 -1.7090 -1.0542  0.1895
11200TIP3    H255092   3.809   1.757   3.308 -1.1038 -0.1353  2.9784
11201TIP3   OH255093   5.494   0.072   4.477 -0.3485  0.1338  0.6362
11201TIP3    H155094   5.489   0.041   4.567  1.2832 -2.5407 -0.0820
11201TIP3    H255095   5.437   0.013   4.428  0.5367  0.0834 -0.3777
11202TIP3   OH255096   6.210   2.341  12.867  0.3259 -0.5266 -0.4403
11202TIP3    H155097   6.296   2.341  12.823  0.9644 -3.0301  0.6695
11202TIP3    H255098   6.230   2.352  12.959 -0.3835 -2.5061 -0.0033
11203TIP3   OH255099   4.636   6.636   0.804  0.1691  0.3017  0.0634
11203TIP3    H155100   4.645   6.731   0.803 -0.6751  0.3904 -1.0960
11203TIP3    H255101   4.692   6.605   0.733  0.9123 -0.1271  0.8207
11204TIP3   OH255102   1.852   5.403  12.149  0.1321 -0.2859 -0.1659
11204TIP3    H155103   1.822   5.353  12.072  3.3528 -0.9246 -1.1373
11204TIP3    H255104   1.906   5.341  12.198  1.4685  1.2823  0.4188
11205TIP3   OH255105   2.154   5.137   1.927 -0.4229 -0.3040 -0.3048
11205TIP3    H155106   2.216   5.200   1.966  0.1342  0.6127 -2.5281
11205TIP3    H255107   2.194   5.051   1.943 -0.4700 -0.0244  1.5104
11206TIP3   OH255108   3.436   4.189   6.228  0.4331 -0.6446 -0.3473
11206TIP3    H155109   3.419   4.222   6.316  1.9742 -1.2599  0.2127
11206TIP3    H255110   3.439   4.268   6.174 -0.9168 -0.2933  0.0645
11207TIP3   OH255111   3.025   0.440  14.087 -0.1609  0.6115 -1.0401
11207TIP3    H155112   3.066   0.400  14.011  1.8684 -0.8373  0.7018
11207TIP3    H255113   3.018   0.370  14.151  0.6766  2.3286  1.0554
11208TIP3   OH255114   2.570   3.213   4.100  0.4582 -0.2747 -0.9297
11208TIP3    H155115   2.508   3.262   4.154 -1.6714 -2.6675 -1.0136
11208TIP3    H255116   2.608   3.279   4.042 -0.0063  1.7271  0.9030
11209TIP3   OH255117   2.384   5.171   1.749 -0.0216  0.5846  0.7301
11209TIP3    H155118   2.312   5.234   1.742 -0.0129  0.7703  2.1018
11209TIP3    H255119   2.348   5.090   1.714 -1.9601 -0.1399  3.9736
11210TIP3   OH255120   3.641   5.625  15.580 -0.3869  0.1325  0.3375
11210TIP3    H155121   3.637   5.717  15.605 -0.3189  0.3409 -0.3956
11210TIP3    H255122   3.732   5.612  15.553 -0.0261 -0.5139  1.7475
11211TIP3   OH255123   0.869   4.439  14.574  0.6196 -0.2412  0.1344
11211TIP3    H155124   0.856   4.348  14.546 -0.6413  0.0581 -0.3319
11211TIP3    H255125   0.886   4.433  14.668  0.0521 -0.9350  0.2048
11212TIP3   OH255126   3.715   1.014  14.891  0.2073  0.5719  0.0346
11212TIP3    H155127   3.687   0.930  14.928 -0.4077 -0.1180 -1.8588
11212TIP3    H255128   3.783   1.045  14.949 -1.0942 -0.1467  2.0446
11213TIP3   OH255129   1.970   3.275   1.605 -0.1465  0.4443 -0.6736
11213TIP3    H155130   2.001   3.354   1.649 -1.0686  0.1385  0.5719
11213TIP3    H255131   1.935   3.307   1.521 -1.8469  1.6109  0.4229
11214TIP3   OH255132   4.294   2.861   4.409  0.4112 -0.4512  0.7492
11214TIP3    H155133   4.297   2.919   4.332  0.1123  0.6927  1.5709
11214TIP3    H255134   4.382   2.824   4.414  1.1654  1.2739  1.1735
11215TIP3   OH255135   2.979   1.756  13.735  0.0715 -0.0287  0.3091
11215TIP3    H155136   2.959   1.838  13.780  1.6201  0.4007  0.2421
11215TIP3    H255137   2.985   1.779  13.643 -0.5303 -0.4343  0.1580
11216TIP3   OH255138   5.455   4.417   1.808  1.1385  0.5540 -0.0566
11216TIP3    H155139   5.371   4.373   1.792  0.1077  2.8533 -1.4619
11216TIP3    H255140   5.517   4.345   1.821 -1.0403 -1.2324  1.3052
11217TIP3   OH255141   3.554   3.957   0.192  0.4494 -0.3432 -0.0492
11217TIP3    H155142   3.558   3.989   0.102  0.1385 -0.9462 -0.2843
11217TIP3    H255143   3.646   3.946   0.218  0.6011  1.6614  0.3902
11218TIP3   OH255144   0.837   3.702   2.325  0.2478 -0.0438 -0.0367
11218TIP3    H155145   0.922   3.710   2.370 -0.2612  1.7531  0.6987
11218TIP3    H255146   0.793   3.785   2.343 -0.4946  0.2687 -2.8654
11219TIP3   OH255147   2.967   2.365  17.062 -0.3372 -0.3006 -0.0271
11219TIP3    H155148   2.900   2.368  16.994  0.1577 -2.5692 -0.6810
11219TIP3    H255149   2.918   2.372  17.144 -1.0455  1.2007 -0.5297
11220TIP3   OH255150   6.233   1.750  11.310 -0.0269 -0.2905 -0.2370
11220TIP3    H155151   6.150   1.717  11.274  0.1999 -0.6307 -0.4505
11220TIP3    H255152   6.283   1.778  11.233  0.1663 -0.3393 -0.1297
11221TIP3   OH255153   4.119   2.209   1.754  0.4266 -0.2906 -1.1260
11221TIP3    H155154   4.109   2.286   1.810 -1.3810 -0.1243 -1.6208
11221TIP3    H255155   4.188   2.234   1.692 -1.2132  1.6474 -2.3348
11222TIP3   OH255156   4.217   5.199   4.095 -0.4539  0.7346 -0.3118
11222TIP3    H155157   4.150   5.263   4.068  1.0405  2.8554  0.6998
11222TIP3    H255158   4.205   5.192   4.190  0.0331  0.2682 -0.2863
11223TIP3   OH255159   1.437   1.835   4.996 -0.7602  0.1175  0.4853
11223TIP3    H155160   1.526   1.869   5.008 -0.2857 -0.5481 -0.9106
11223TIP3    H255161   1.435   1.805   4.905 -2.3839  0.0041  0.5309
11224TIP3   OH255162   3.099   5.928  11.710 -0.3783  0.3499  0.4717
11224TIP3    H155163   3.126   5.875  11.785  1.1259  1.7572  1.0080
11224TIP3    H255164   3.111   6.018  11.740 -2.7652  1.0265 -0.4334
11225TIP3   OH255165   6.566   0.664  15.234  0.4893  0.4612  0.3263
11225TIP3    H155166   6.551   0.572  15.214  0.6939  0.4287  0.3242
11225TIP3    H255167   6.656   0.680  15.209  0.0361  1.0281 -1.0227
11226TIP3   OH255168   3.323   5.642   5.338  0.5236  0.1008  0.6982
11226TIP3    H155169   3.340   5.556   5.299  1.6380  0.6085  0.0335
11226TIP3    H255170   3.236   5.666   5.306  0.3409 -0.6284  0.6311
11227TIP3   OH255171   6.363   2.085  16.302 -0.2363 -0.5932 -0.6342
11227TIP3    H155172   6.372   2.160  16.243 -0.0665 -0.2260 -0.1533
11227TIP3    H255173   6.287   2.037  16.269  0.0557 -0.5756 -1.3423
11228TIP3   OH255174   5.788   4.370   6.629  0.4414 -0.1705  0.3947
11228TIP3    H155175   5.822   4.438   6.571  0.0850 -0.3786 -0.0638
11228TIP3    H255176   5.867   4.328   6.665  0.7116 -1.4333 -1.5742
11229TIP3   OH255177   0.051   3.250   2.185 -0.0769 -0.1734 -0.0001
11229TIP3    H155178   0.092   3.324   2.142 -0.9658  1.4463  1.8033
11229TIP3    H255179   0.122   3.186   2.197  1.1010  1.0831 -0.1064
11230TIP3   OH255180   3.237   4.077  14.702 -0.1691  0.7125 -0.2653
11230TIP3    H155181   3.289   3.997  14.712  1.6344  1.9805  1.2731
11230TIP3    H255182   3.236   4.093  14.608 -0.6412 -1.1317 -0.6179
11231TIP3   OH255183   0.718   1.053   1.507 -0.4504 -0.2819  0.5091
11231TIP3    H155184   0.737   1.022   1.596  0.4877 -0.0979  0.3744
11231TIP3    H255185   0.744   1.145   1.507 -1.5752  0.0581  0.3822
11232TIP3   OH255186   2.256   1.084   5.554  0.9151  0.0829 -0.2582
11232TIP3    H155187   2.340   1.079   5.600  0.1250 -1.9656  1.1608
11232TIP3    H255188   2.244   0.995   5.519 -1.1620 -0.0175  0.5953
11233TIP3   OH255189   1.885   4.668  13.675  0.7963 -0.0147  0.1989
11233TIP3    H155190   1.900   4.728  13.748 -0.6819 -0.1688  0.6471
11233TIP3    H255191   1.816   4.710  13.624 -0.2355 -1.3041  0.4968
11234TIP3   OH255192   1.606   5.422   5.456  0.0123  0.3910  0.4366
11234TIP3    H155193   1.579   5.486   5.522 -1.4200  1.5050 -1.1417
11234TIP3    H255194   1.596   5.468   5.373 -1.3006 -1.9633 -0.8052
11235TIP3   OH255195   1.161   0.794  10.801  0.2480  0.0785  0.0210
11235TIP3    H155196   1.098   0.848  10.753 -0.3096  0.3981  1.0961
11235TIP3    H255197   1.245   0.814  10.760 -0.2676 -0.0304 -1.1447
11236TIP3   OH255198   2.912   4.476  11.589 -0.1754 -0.1788  0.0567
11236TIP3    H155199   2.835   4.532  11.599 -0.4380 -0.4275 -0.5314
11236TIP3    H255200   2.986   4.537  11.586 -0.1351 -0.0053  2.3846
11237TIP3   OH255201   5.685   2.471  16.393  0.2355 -0.2216 -0.0067
11237TIP3    H155202   5.689   2.567  16.386 -0.8588 -0.0375  1.4445
11237TIP3    H255203   5.732   2.452  16.474  0.6167 -0.9380 -0.3931
11238TIP3   OH255204   2.382   4.864   3.949 -0.4083  0.2444  0.1194
11238TIP3    H155205   2.401   4.787   3.896 -1.1687  1.0474 -1.3959
11238TIP3    H255206   2.445   4.930   3.919 -0.3792  0.5066  0.7348
11239TIP3   OH255207   2.579   0.069  14.092 -0.1173  0.0470  0.4545
11239TIP3    H155208   2.644  -0.001  14.093 -0.4084 -0.2166  0.9390
11239TIP3    H255209   2.616   0.137  14.149  1.0670  1.1309 -1.4802
11240TIP3   OH255210   6.588   2.316  11.762  0.4326  0.4711  0.1395
11240TIP3    H155211   6.506   2.272  11.786  0.5766  0.5457  0.7982
11240TIP3    H255212   6.624   2.262  11.692 -0.1731  0.4316 -0.1473
11241TIP3   OH255213   4.760   2.703  16.715  0.6287  0.3663 -0.8519
11241TIP3    H155214   4.673   2.669  16.735  1.2550 -0.6518  0.2774
11241TIP3    H255215   4.744   2.788  16.673 -0.8744  0.9617  0.8003
11242TIP3   OH255216   3.505   5.972  16.656  0.2079  0.0878 -0.0616
11242TIP3    H155217   3.415   5.970  16.623 -0.7668  0.2904  2.3867
11242TIP3    H255218   3.533   5.880  16.651 -1.1104 -0.4565  1.5054
11243TIP3   OH255219   0.015   1.653  12.796  0.5372  0.4582  0.4566
11243TIP3    H155220   0.021   1.692  12.883  1.0261  0.8233  0.2645
11243TIP3    H255221  -0.029   1.569  12.810  1.0153  0.3131  1.1152
11244TIP3   OH255222   1.828   0.711  14.283 -0.5523  0.0723 -0.2390
11244TIP3    H155223   1.785   0.788  14.320  0.8081  0.5754  0.3703
11244TIP3    H255224   1.894   0.747  14.224  0.1151 -0.6037  0.0757
11245TIP3   OH255225   6.267   6.376  12.637  0.5723  1.2030 -0.2141
11245TIP3    H155226   6.320   6.351  12.713  0.4643  0.5376 -0.3594
11245TIP3    H255227   6.177   6.360  12.664  0.5725  0.2614 -0.7339
11246TIP3   OH255228   1.424   1.844  16.071  0.2820  0.3370 -0.3197
11246TIP3    H155229   1.421   1.914  16.136  0.6662  1.0395 -1.0425
11246TIP3    H255230   1.342   1.853  16.023 -0.5253 -0.8922  0.7637
11247TIP3   OH255231   0.063   5.065   4.426  0.1186  0.0412  0.1129
11247TIP3    H155232   0.074   4.975   4.397  3.2330  0.2151  0.4772
11247TIP3    H255233   0.049   5.115   4.345  1.7103 -0.3655 -0.4317
11248TIP3   OH255234   3.280   3.844  13.681 -0.1896  0.1699  0.2981
11248TIP3    H155235   3.323   3.914  13.730  1.4231  0.8702 -2.0042
11248TIP3    H255236   3.336   3.767  13.694  0.4929  0.4729 -0.7653
11249TIP3   OH255237   0.646   6.040  13.276  0.6258  0.3172 -0.2193
11249TIP3    H155238   0.667   5.991  13.197 -0.1574  0.6120 -0.6246
11249TIP3    H255239   0.552   6.057  13.269  1.0781  2.9592 -0.7317
11250TIP3   OH255240   3.753   6.422  12.184  0.1736 -0.6565  0.5642
11250TIP3    H155241   3.730   6.515  12.185  0.3971 -0.5768 -0.2788
11250TIP3    H255242   3.676   6.378  12.150  0.3835 -0.6709  0.0974
11251TIP3   OH255243   2.318   0.372  14.557  0.0961  0.0095 -0.0170
11251TIP3    H155244   2.369   0.427  14.616 -0.4585  1.1395 -0.5581
11251TIP3    H255245   2.242   0.345  14.609  0.1736  0.0750  0.1309
11252TIP3   OH255246   4.919   5.027  13.414  0.3251 -0.2560 -0.2335
11252TIP3    H155247   5.006   4.988  13.417  0.3383 -0.4444 -1.9765
11252TIP3    H255248   4.930   5.109  13.366 -0.5380 -0.5356 -0.9349
11253TIP3   OH255249   3.296   5.654  16.821  1.0356  0.3328  0.3136
11253TIP3    H155250   3.277   5.693  16.736 -1.0543 -0.0618  0.5355
11253TIP3    H255251   3.331   5.727  16.873 -0.0767  1.2392 -0.1413
11254TIP3   OH255252   3.849   2.880   5.684 -0.2926 -0.3015  0.2449
11254TIP3    H155253   3.839   2.794   5.724 -2.6174  0.1342  0.7559
11254TIP3    H255254   3.840   2.864   5.590 -1.3563 -0.5718  0.3800
11255TIP3   OH255255   5.640   2.906   3.125  0.2832  0.1293 -0.7369
11255TIP3    H155256   5.635   2.824   3.075  1.1220 -0.2327 -0.2555
11255TIP3    H255257   5.666   2.878   3.213 -0.2926  0.8402 -0.3285
11256TIP3   OH255258   3.071   3.120   1.335  0.1821 -0.4515  0.1224
11256TIP3    H155259   3.001   3.056   1.330 -0.2875  0.0588  0.1317
11256TIP3    H255260   3.076   3.143   1.428 -0.7024  0.6741 -0.0894
11257TIP3   OH255261   1.417   5.359   3.859 -0.3052 -0.0117 -0.3431
11257TIP3    H155262   1.386   5.268   3.848  1.2016 -0.5969  0.0550
11257TIP3    H255263   1.455   5.360   3.947 -2.5904  1.7243  0.7183
11258TIP3   OH255264   1.467   1.540  13.824 -0.3736  0.3790  0.1658
11258TIP3    H155265   1.385   1.580  13.853 -0.3996  0.9228 -0.6014
11258TIP3    H255266   1.513   1.516  13.905 -0.4199  1.8617  0.6601
11259TIP3   OH255267   2.074   1.732   5.266  0.0319 -0.0872  0.4391
11259TIP3    H155268   2.016   1.730   5.190  0.2058  1.5576  0.2331
11259TIP3    H255269   2.076   1.824   5.292  0.7334 -0.4789  1.8614
11260TIP3   OH255270   5.483   4.278  11.778  0.2894 -0.3650  0.0437
11260TIP3    H155271   5.480   4.320  11.693  0.3860 -0.3393  0.0522
11260TIP3    H255272   5.408   4.218  11.779 -0.8851  1.0456  0.6883
11261TIP3   OH255273   3.356   5.659  14.072 -0.3300  0.3917  0.0762
11261TIP3    H155274   3.414   5.588  14.046 -2.2321 -1.0160 -0.6008
11261TIP3    H255275   3.284   5.655  14.009 -2.3750  0.4305  2.2800
11262TIP3   OH255276   4.745   4.210  13.250 -0.7643  0.2425  0.5641
11262TIP3    H155277   4.651   4.211  13.232 -0.8235  1.1174  0.9141
11262TIP3    H255278   4.754   4.254  13.334  0.1066  1.4976 -0.1609
11263TIP3   OH255279   6.004   4.126   3.753 -0.0883  0.3763 -0.1299
11263TIP3    H155280   6.049   4.046   3.727  0.0175 -0.0648  1.3718
11263TIP3    H255281   5.928   4.096   3.803  0.2335  1.2077  0.8935
11264TIP3   OH255282   0.223   3.154   1.881 -0.2413 -0.1217 -0.2059
11264TIP3    H155283   0.283   3.136   1.809  0.5404  0.2966  0.3269
11264TIP3    H255284   0.164   3.220   1.847 -0.2753 -0.3856 -0.6705
11265TIP3   OH255285   0.128   3.310   3.377  0.1783  0.7346 -0.6393
11265TIP3    H155286   0.044   3.264   3.374  0.3165  0.3726  0.7571
11265TIP3    H255287   0.108   3.396   3.412 -0.0033  1.6405 -2.8135
11266TIP3   OH255288   5.494   5.127   4.113  0.0292 -0.6100 -0.3382
11266TIP3    H155289   5.495   5.133   4.209  0.0932  1.3095 -0.4194
11266TIP3    H255290   5.562   5.062   4.093  2.1312  1.0888  0.8426
11267TIP3   OH255291   4.190   2.630   6.470  0.0339  0.0279 -0.1680
11267TIP3    H155292   4.119   2.606   6.412  0.0344  1.8977 -1.0147
11267TIP3    H255293   4.190   2.726   6.471  2.2528  0.0969  0.1519
11268TIP3   OH255294   3.807   5.263  10.957  0.0567 -0.1494  0.2856
11268TIP3    H155295   3.830   5.212  11.034 -2.2553 -3.4596 -0.9990
11268TIP3    H255296   3.850   5.219  10.884 -2.6647 -0.9042 -0.9803
11269TIP3   OH255297   2.701   4.653   1.862  0.1177 -0.1656  0.6602
11269TIP3    H155298   2.675   4.648   1.954  0.1459 -0.5319  0.6478
11269TIP3    H255299   2.723   4.563   1.838  2.4538  0.2423  0.9785
11270TIP3   OH255300   4.158   1.903   5.209 -0.0927 -0.3726 -0.1497
11270TIP3    H155301   4.200   1.919   5.294 -1.5322  0.3292  0.4632
11270TIP3    H255302   4.184   1.977   5.155  0.4151 -0.5564 -0.1594
11271TIP3   OH255303   1.975   0.204   1.349 -0.3894  0.4453 -0.4324
11271TIP3    H155304   1.948   0.196   1.441 -3.0118  1.3217 -1.0631
11271TIP3    H255305   1.926   0.137   1.303  1.9508 -0.9398 -1.0883
11272TIP3   OH255306   2.927   1.087   3.446  0.2390 -1.2108 -0.1460
11272TIP3    H155307   2.995   1.144   3.481  1.0426 -1.8710 -0.6238
11272TIP3    H255308   2.973   1.021   3.394 -0.8082 -1.2651 -1.0527
11273TIP3   OH255309   5.835   6.465   5.342 -0.4770 -0.0620 -0.7178
11273TIP3    H155310   5.875   6.545   5.377  1.2320 -0.4708 -1.6481
11273TIP3    H255311   5.780   6.496   5.270  1.4979  0.1891 -2.1938
11274TIP3   OH255312   4.631   5.292  11.023  0.5347  0.1185 -0.7469
11274TIP3    H155313   4.616   5.385  11.005  1.9249  0.9380  1.6949
11274TIP3    H255314   4.670   5.257  10.943  1.7757  2.1356 -1.0780
11275TIP3   OH255315   6.059   6.754  15.386 -0.5923 -0.8319  0.3207
11275TIP3    H155316   6.003   6.693  15.338 -0.8422 -2.1240  2.1113
11275TIP3    H255317   6.099   6.700  15.454  1.8533  0.3331 -0.0884
11276TIP3   OH255318   0.393   1.116  16.619  0.4437 -0.3907 -0.4850
11276TIP3    H155319   0.330   1.083  16.554  0.5776 -1.5220 -0.0658
11276TIP3    H255320   0.448   1.040  16.638 -0.0399 -0.2878  1.4767
11277TIP3   OH255321   1.047   2.730   0.122 -0.0689  0.1676 -0.2007
11277TIP3    H155322   0.954   2.741   0.143  0.0391  1.9334 -0.4209
11277TIP3    H255323   1.089   2.808   0.159  1.1655 -0.0704 -1.0242
11278TIP3   OH255324   2.422   3.532   2.210 -0.5725  0.4245  0.0029
11278TIP3    H155325   2.357   3.494   2.151 -1.5238  0.3701  1.0664
11278TIP3    H255326   2.502   3.483   2.192 -1.0522 -0.1257 -0.6753
11279TIP3   OH255327   3.132   2.711   1.799 -0.1380 -0.0357 -0.1185
11279TIP3    H155328   3.098   2.790   1.757  0.6604 -0.3374 -1.4044
11279TIP3    H255329   3.127   2.644   1.731 -1.4767 -1.3025  1.1706
11280TIP3   OH255330   0.024   0.196  12.517  0.0866  0.2147  0.3087
11280TIP3    H155331   0.103   0.246  12.497  0.6770 -1.0568 -0.6843
11280TIP3    H255332  -0.012   0.173  12.431 -0.5211 -0.5116  0.7423
11281TIP3   OH255333   3.987   0.170  16.803  0.3035  0.7974  0.3977
11281TIP3    H155334   4.073   0.131  16.820 -0.5357 -0.5830  1.7424
11281TIP3    H255335   4.004   0.265  16.801  1.9085  0.5374  0.2347
11282TIP3   OH255336   3.749   1.438   4.732 -0.0439 -0.1327 -0.6208
11282TIP3    H155337   3.704   1.463   4.651 -0.6185 -2.3280 -1.0467
11282TIP3    H255338   3.828   1.394   4.702 -1.2777 -2.8907 -0.1727
11283TIP3   OH255339   5.176   3.084   4.866 -0.1979 -0.2772 -0.2279
11283TIP3    H155340   5.211   3.143   4.933 -1.6577  0.7486 -0.3142
11283TIP3    H255341   5.253   3.054   4.818  0.5970  2.3307 -0.7702
11284TIP3   OH255342   3.917   4.369  16.313  0.4888 -0.2543  0.9373
11284TIP3    H155343   4.008   4.382  16.338  0.6417 -1.1475  0.8799
11284TIP3    H255344   3.867   4.390  16.392  0.8006 -0.6322  1.2374
11285TIP3   OH255345   2.837   0.254   2.870  0.7542  0.2554 -0.3751
11285TIP3    H155346   2.812   0.254   2.777 -2.2075 -1.0791  0.2827
11285TIP3    H255347   2.880   0.170   2.883 -2.3860 -1.4488  0.1037
11286TIP3   OH255348   4.695   3.831  15.357 -0.1479  0.1178  0.1330
11286TIP3    H155349   4.658   3.890  15.291  1.3556 -0.1724 -1.0274
11286TIP3    H255350   4.623   3.771  15.377 -1.3406  1.5690  0.4620
11287TIP3   OH255351   4.752   4.724  16.333 -0.1058  0.1126  0.1366
11287TIP3    H155352   4.751   4.635  16.298 -0.3379 -0.3401  1.2378
11287TIP3    H255353   4.743   4.781  16.256 -3.0654 -0.8800 -0.3807
11288TIP3   OH255354   6.704   3.595   4.756  0.1091 -0.4618  0.2642
11288TIP3    H155355   6.632   3.536   4.781  0.1073 -0.4684  0.2436
11288TIP3    H255356   6.689   3.613   4.663  1.0326 -1.7498 -0.1670
11289TIP3   OH255357   0.048   0.553  17.111 -0.2052 -0.2662 -0.5225
11289TIP3    H155358   0.056   0.639  17.152  0.5306 -0.1590 -0.8759
11289TIP3    H255359   0.016   0.496  17.181  2.1403 -0.3485  0.6026
11290TIP3   OH255360   6.153   5.817   3.480 -0.2109 -0.2160 -0.7419
11290TIP3    H155361   6.245   5.829   3.458  0.3784 -0.1671  1.5242
11290TIP3    H255362   6.137   5.724   3.462  0.8291 -0.6812  0.5534
11291TIP3   OH255363   2.293   4.903   1.647 -0.2502 -0.0755 -0.3834
11291TIP3    H155364   2.384   4.874   1.636 -0.1673 -0.2487  0.6586
11291TIP3    H255365   2.263   4.856   1.725 -0.5820  1.5523  0.4944
11292TIP3   OH255366   2.734   1.461   2.187  0.3380 -0.6006 -0.6434
11292TIP3    H155367   2.645   1.472   2.154  0.3379  1.7651 -0.0150
11292TIP3    H255368   2.728   1.388   2.248 -1.3918  0.0809  0.0654
11293TIP3   OH255369   5.835   0.475  12.624  0.7638  0.8214  0.3767
11293TIP3    H155370   5.923   0.459  12.592  0.4158  0.5334 -0.4638
11293TIP3    H255371   5.844   0.480  12.719  1.3388 -1.4194  0.4814
11294TIP3   OH255372   3.582   1.989  12.856  0.7525 -0.1183  0.3900
11294TIP3    H155373   3.514   2.049  12.824  0.0554 -1.7897 -1.4363
11294TIP3    H255374   3.551   1.961  12.942 -0.1674  0.2020  0.1687
11295TIP3   OH255375   4.116   4.624  11.712  0.1163 -0.3274 -0.5567
11295TIP3    H155376   4.104   4.608  11.618  0.4529 -0.9017 -0.5058
11295TIP3    H255377   4.028   4.624  11.748 -0.0901  0.9261 -1.0326
11296TIP3   OH255378   0.787   6.122   0.250 -0.5981 -0.1330 -0.0525
11296TIP3    H155379   0.824   6.083   0.330  0.0725  0.1885 -0.1948
11296TIP3    H255380   0.816   6.214   0.253  0.8013 -0.4816 -1.4430
11297TIP3   OH255381   4.890   1.738  15.840 -0.0994  0.2035  0.1138
11297TIP3    H155382   4.846   1.665  15.797 -1.6144  0.8496  0.4955
11297TIP3    H255383   4.833   1.813  15.823  0.2670  0.8494  1.6136
11298TIP3   OH255384   5.987   6.787  11.895 -0.2058 -0.4764 -0.4799
11298TIP3    H155385   5.908   6.825  11.856  0.1229  0.0039 -0.6826
11298TIP3    H255386   6.043   6.862  11.914  0.1015 -0.7955 -0.1053
11299TIP3   OH255387   3.985   3.476  11.448 -0.1987  0.4144  0.0454
11299TIP3    H155388   3.963   3.419  11.375  1.6569 -0.5077  0.1422
11299TIP3    H255389   3.940   3.438  11.523 -1.1547  0.6752 -0.3904
11300TIP3   OH255390   2.162   0.849   5.135  0.0730  0.4314  0.6443
11300TIP3    H155391   2.225   0.892   5.077  1.2900 -0.9437  0.8655
11300TIP3    H255392   2.211   0.836   5.217 -1.2696  1.3920  1.6421
11301TIP3   OH255393   1.080   6.416  17.018  0.2312 -0.1329  0.7146
11301TIP3    H155394   1.050   6.375  16.937  0.8091 -0.3207  0.5911
11301TIP3    H255395   1.026   6.494  17.027 -0.8235 -0.8716  0.9056
11302TIP3   OH255396   1.165   2.305  12.172 -0.4926 -0.3451  0.1894
11302TIP3    H155397   1.166   2.315  12.267  0.1178 -0.5553  0.2034
11302TIP3    H255398   1.110   2.228  12.157  2.4448 -2.6961  0.6056
11303TIP3   OH255399   3.238   1.664  14.625  0.4156  0.4802 -0.3625
11303TIP3    H155400   3.153   1.681  14.665  1.1611  0.2566  1.3656
11303TIP3    H255401   3.217   1.618  14.543 -1.1114  0.3598  0.0694
11304TIP3   OH255402   4.442   1.245  13.609  0.0616 -0.1579  0.5962
11304TIP3    H155403   4.443   1.253  13.705  1.8450  0.9865  0.5320
11304TIP3    H255404   4.409   1.330  13.579  2.4384  0.6840  0.1848
11305TIP3   OH255405   1.208   5.144   5.891 -0.1142 -0.2631  0.1544
11305TIP3    H155406   1.177   5.176   5.807 -2.4206 -1.8773  0.3102
11305TIP3    H255407   1.249   5.060   5.871  2.8980  1.0275  0.2143
11306TIP3   OH255408   2.437   4.792  11.108  0.5204  0.0992  0.0025
11306TIP3    H155409   2.390   4.823  11.030  0.2829 -0.8020 -0.2181
11306TIP3    H255410   2.487   4.717  11.077 -1.1961 -1.6095  1.1289
11307TIP3   OH255411   0.296   0.572   2.503 -0.0457 -0.3043 -0.4931
11307TIP3    H155412   0.245   0.525   2.438 -1.0129  0.3381 -0.2228
11307TIP3    H255413   0.287   0.664   2.478 -0.0110 -0.0938  0.2511
11308TIP3   OH255414   0.479   4.559   0.113  0.0989  0.4163 -0.8692
11308TIP3    H155415   0.442   4.621   0.176  1.3646  1.8302 -1.4725
11308TIP3    H255416   0.562   4.531   0.153 -0.0200 -0.1873 -1.0325
11309TIP3   OH255417   3.042   6.644  17.213  0.0369 -0.9580  0.5989
11309TIP3    H155418   3.061   6.737  17.220 -1.0428 -0.5439 -1.3316
11309TIP3    H255419   3.124   6.601  17.240  1.4810  0.6014 -1.0274
11310TIP3   OH255420   4.224   6.298  14.787 -0.4447 -0.8590  0.4312
11310TIP3    H155421   4.216   6.282  14.693  0.1668  0.5530  0.1153
11310TIP3    H255422   4.145   6.258  14.824 -1.2646 -0.4851 -0.8136
11311TIP3   OH255423   6.658   2.525   2.340 -0.0181  0.5997  0.1217
11311TIP3    H155424   6.614   2.442   2.319  0.2699  0.4745  0.0035
11311TIP3    H255425   6.749   2.500   2.354 -0.0283  0.8249  0.5857
11312TIP3   OH255426   3.682   4.884   2.752  0.2111  0.1965  0.1597
11312TIP3    H155427   3.692   4.936   2.672  0.8210  1.2808  0.9063
11312TIP3    H255428   3.766   4.895   2.797  0.4704 -1.6892  0.2231
11313TIP3   OH255429   1.525   5.214  11.760 -0.1786 -0.3376 -0.3881
11313TIP3    H155430   1.544   5.295  11.712 -0.9526 -1.1642 -2.1888
11313TIP3    H255431   1.429   5.207  11.759 -0.1082 -1.4523 -0.5724
11314TIP3   OH255432   6.399   3.508   1.469 -0.0662  0.0665  0.0499
11314TIP3    H155433   6.318   3.559   1.459 -0.1333  0.6891  2.9278
11314TIP3    H255434   6.382   3.449   1.542  3.0009  2.4944  3.0739
11315TIP3   OH255435   3.815   1.772   0.689 -0.5655  0.7614  0.2016
11315TIP3    H155436   3.897   1.724   0.695 -0.5163  0.9041  0.7174
11315TIP3    H255437   3.790   1.765   0.597 -1.4276 -1.7055  0.5264
11316TIP3   OH255438   6.663   3.205   3.471  0.7905 -0.3445 -0.4653
11316TIP3    H155439   6.634   3.186   3.382  0.2377 -2.5491  0.1304
11316TIP3    H255440   6.691   3.121   3.506  1.9932  0.6544  1.1169
11317TIP3   OH255441   0.407   3.851   3.550  0.1206  0.0608  0.6394
11317TIP3    H155442   0.405   3.909   3.627 -0.8546  0.7474  0.1177
11317TIP3    H255443   0.328   3.875   3.501  1.3847  0.5397 -1.2381
11318TIP3   OH255444   0.192   0.107   5.654 -0.0121  0.6379 -0.6135
11318TIP3    H155445   0.109   0.074   5.620  0.1619 -1.5151  0.8783
11318TIP3    H255446   0.254   0.035   5.643  0.3354  0.2096  2.9968
11319TIP3   OH255447   4.246   2.465   1.402 -0.0456 -0.1704  0.5145
11319TIP3    H155448   4.249   2.471   1.498  1.0650  0.2133  0.4757
11319TIP3    H255449   4.153   2.464   1.381 -0.3207 -0.9112  1.6325
11320TIP3   OH255450   3.136   5.579  12.520 -0.5220  0.3249  0.2401
11320TIP3    H155451   3.212   5.536  12.480 -0.1474  1.3726 -0.2160
11320TIP3    H255452   3.173   5.632  12.591 -1.0039 -0.2446  0.9328
11321TIP3   OH255453   3.260   2.420  13.498  0.0001  0.3849  0.4143
11321TIP3    H155454   3.333   2.413  13.560 -0.6179  2.3245  1.4462
11321TIP3    H255455   3.219   2.503  13.519 -1.2183  0.3538 -1.5890
11322TIP3   OH255456   0.077   1.044   1.635  0.0894 -0.1908 -0.0801
11322TIP3    H155457   0.151   1.076   1.687  2.3092 -1.0128 -2.4938
11322TIP3    H255458   0.085   1.091   1.552 -0.9416 -1.7145 -1.0849
11323TIP3   OH255459   5.658   3.441  15.184  0.0526 -0.0747 -0.8190
11323TIP3    H155460   5.717   3.412  15.114  1.2772  0.2504  0.0482
11323TIP3    H255461   5.615   3.519  15.148  0.8832  0.2553 -1.1141
11324TIP3   OH255462   0.523   1.472  16.061 -0.3763 -0.2704  0.1055
11324TIP3    H155463   0.561   1.412  15.997  0.6387 -0.7855  1.1506
11324TIP3    H255464   0.435   1.439  16.076 -0.1963 -0.8727 -0.1198
11325TIP3   OH255465   1.895   3.142  14.385 -0.3254  0.4355  0.4113
11325TIP3    H155466   1.827   3.195  14.342 -0.7328  0.2450  0.8162
11325TIP3    H255467   1.928   3.197  14.455  1.0783  1.1606 -0.7617
11326TIP3   OH255468   6.541   4.642  14.075 -0.0699  0.0706 -0.4645
11326TIP3    H155469   6.604   4.619  14.006  0.2769 -0.5596  0.0503
11326TIP3    H255470   6.482   4.567  14.079  1.0678 -0.8009  1.2320
11327TIP3   OH255471   6.501   4.586   4.977 -0.0563 -0.2929  0.4204
11327TIP3    H155472   6.520   4.633   5.058  0.0757 -0.1167  0.2882
11327TIP3    H255473   6.415   4.618   4.950  0.2119  0.1887  0.1101
11328TIP3   OH255474   1.083   5.441  14.371 -0.0004  0.1162 -0.4278
11328TIP3    H155475   1.161   5.482  14.409  3.2291 -0.8457 -5.0843
11328TIP3    H255476   1.096   5.347  14.383 -0.7028 -0.0411 -0.8121
11329TIP3   OH255477   6.753   5.039   3.114 -0.2100 -0.5563 -0.1271
11329TIP3    H155478   6.840   5.071   3.091  0.1968 -1.6256 -0.1529
11329TIP3    H255479   6.699   5.059   3.037 -0.0843  0.4274  0.0297
11330TIP3   OH255480   6.365   1.228   5.773  0.1152  0.0647  0.2662
11330TIP3    H155481   6.451   1.214   5.734 -0.3767 -0.9533 -0.4970
11330TIP3    H255482   6.308   1.250   5.699 -0.8196 -1.8356  0.3652
11331TIP3   OH255483   3.168   1.647  16.545 -0.1656  0.0061  0.0853
11331TIP3    H155484   3.143   1.638  16.453  1.6902  1.7955 -0.6746
11331TIP3    H255485   3.085   1.651  16.593 -1.2580  1.7778 -1.8301
11332TIP3   OH255486   2.573   0.930   3.701  0.0807 -0.2903  0.4321
11332TIP3    H155487   2.572   1.012   3.650 -0.2954  0.0824  1.0320
11332TIP3    H255488   2.662   0.897   3.690 -0.8654 -2.2296 -3.5848
11333TIP3   OH255489   2.412   5.350  16.660  0.0817  0.1080  0.2810
11333TIP3    H155490   2.391   5.291  16.732  2.1490 -0.4247  0.5220
11333TIP3    H255491   2.365   5.314  16.585  0.9898 -1.6839  0.5139
11334TIP3   OH255492   1.591   2.874  11.603  0.3216 -0.6786 -0.2326
11334TIP3    H155493   1.535   2.838  11.671  0.0499  0.4110  0.1394
11334TIP3    H255494   1.537   2.872  11.524 -0.7751  1.5347  0.3718
11335TIP3   OH255495   4.148   5.931  11.499 -0.1967  0.4514 -0.2700
11335TIP3    H155496   4.142   5.942  11.404  1.6765  1.3811 -0.3088
11335TIP3    H255497   4.116   6.014  11.535 -0.9305  0.0900 -0.0518
11336TIP3   OH255498   1.251   2.494   1.911  0.3235 -0.5700  0.2345
11336TIP3    H155499   1.161   2.506   1.943  0.0243  0.2600 -0.8374
11336TIP3    H255500   1.293   2.579   1.925  0.1967 -0.1934 -1.4633
11337TIP3   OH255501   1.765   1.037  16.351  0.3218  0.0575  0.0558
11337TIP3    H155502   1.824   1.111  16.336 -1.0342  1.0182 -0.7632
11337TIP3    H255503   1.696   1.047  16.285 -1.0529 -0.7038  1.3030
11338TIP3   OH255504   4.582   6.636  12.366 -0.0009 -0.0758  0.5151
11338TIP3    H155505   4.584   6.560  12.308 -0.7817 -0.2864  0.7473
11338TIP3    H255506   4.496   6.676  12.351 -1.4299 -1.6789  3.4007
11339TIP3   OH255507   3.885   2.667  16.912  0.2840  0.3561  0.5642
11339TIP3    H155508   3.910   2.616  16.989 -0.9411 -1.0634  0.0731
11339TIP3    H255509   3.900   2.608  16.838 -1.1958  0.6608 -0.0152
11340TIP3   OH255510   6.798   4.459  13.937  0.1227  0.0278  0.4538
11340TIP3    H155511   6.875   4.436  13.884  0.6498 -1.5323  1.8274
11340TIP3    H255512   6.829   4.527  13.997  0.2306 -0.0815  0.5220
11341TIP3   OH255513   2.524   3.167   5.228  0.0059 -1.0524 -0.0115
11341TIP3    H155514   2.559   3.151   5.141  0.7323 -0.2276  0.1105
11341TIP3    H255515   2.445   3.113   5.233  0.0919 -1.2946 -1.0842
11342TIP3   OH255516   3.559   6.034  10.819 -0.1666  0.1524  0.2575
11342TIP3    H155517   3.626   6.084  10.772 -0.3641  0.0225 -0.1787
11342TIP3    H255518   3.477   6.080  10.798 -0.4565 -0.7746 -0.7852
11343TIP3   OH255519   1.275   0.945  11.044 -0.0184  0.7150  0.3104
11343TIP3    H155520   1.303   0.985  10.962 -1.6660 -0.5411 -0.9515
11343TIP3    H255521   1.220   1.012  11.086 -2.2299  0.1303 -1.4679
11344TIP3   OH255522   0.286   0.383  15.615 -0.8063  0.1647 -0.1081
11344TIP3    H155523   0.195   0.354  15.603 -1.0370  1.1032 -0.7065
11344TIP3    H255524   0.334   0.340  15.544 -1.3787  2.1896 -1.8021
11345TIP3   OH255525   3.114   3.200  12.193  0.3538  0.1384  0.3088
11345TIP3    H155526   3.190   3.204  12.252  0.9190  1.2821 -0.4637
11345TIP3    H255527   3.114   3.111  12.159  0.9980 -0.0414  0.7711
11346TIP3   OH255528   0.459   4.881   4.442 -0.0638  0.5902 -0.2203
11346TIP3    H155529   0.369   4.896   4.413 -0.1926 -0.6718 -0.5612
11346TIP3    H255530   0.484   4.799   4.399  1.1375  0.7568  0.1264
11347TIP3   OH255531   0.127   2.334  12.062  0.6226  0.1463 -0.2307
11347TIP3    H155532   0.045   2.371  12.096  0.7335 -0.5011  0.8058
11347TIP3    H255533   0.196   2.386  12.104  0.7562 -0.4548  0.3202
11348TIP3   OH255534   3.658   4.585   4.339 -0.2238 -0.5494  0.3046
11348TIP3    H155535   3.679   4.596   4.246 -1.2480  1.8171  0.2694
11348TIP3    H255536   3.721   4.641   4.384  0.4072 -1.8464  1.0939
11349TIP3   OH255537   4.114   3.180   2.537  0.6235 -0.3977  0.4507
11349TIP3    H155538   4.076   3.139   2.615 -1.8142  0.4219 -0.2201
11349TIP3    H255539   4.103   3.274   2.551  0.6664 -0.2201 -0.6169
11350TIP3   OH255540   5.340   4.564   4.664  0.8465 -0.3244  0.4510
11350TIP3    H155541   5.270   4.511   4.701  0.9997 -0.2743  0.8220
11350TIP3    H255542   5.295   4.629   4.610  0.5381  0.2951  1.4293
11351TIP3   OH255543   0.370   1.414   1.545 -0.7729  0.0885  0.3025
11351TIP3    H155544   0.448   1.462   1.519 -1.4743  0.7607 -0.6562
11351TIP3    H255545   0.325   1.395   1.462 -3.1611  2.3597  0.9356
11352TIP3   OH255546   6.574   5.095   2.902  0.0395 -0.0957  0.7605
11352TIP3    H155547   6.495   5.067   2.856  0.0467 -0.8572  1.1844
11352TIP3    H255548   6.635   5.119   2.833 -0.4124  0.0704  0.4137
11353TIP3   OH255549   2.039   2.127   2.478  0.2217 -0.5232 -0.2303
11353TIP3    H155550   2.059   2.207   2.526  1.1387 -0.9671  0.1387
11353TIP3    H255551   2.096   2.129   2.401 -0.3252 -0.4380 -0.6410
11354TIP3   OH255552   0.937   3.921   1.185  0.0779 -0.8416  0.8091
11354TIP3    H155553   0.990   3.966   1.119  1.5957 -0.6690  2.1186
11354TIP3    H255554   0.852   3.966   1.181  0.8834  0.7226  0.5894
11355TIP3   OH255555   1.426   0.111   4.114  0.4325 -0.2790 -0.6299
11355TIP3    H155556   1.440   0.202   4.088 -0.5689  0.1637  0.3394
11355TIP3    H255557   1.482   0.061   4.054  1.0376  0.9627 -1.1460
11356TIP3   OH255558   4.484   1.077  13.416 -0.1003  0.9000 -0.4340
11356TIP3    H155559   4.449   1.143  13.475 -0.7788 -0.5587  0.8832
11356TIP3    H255560   4.482   0.996  13.467  1.4458 -0.0039 -1.6999
11357TIP3   OH255561   1.364   3.985  13.829  0.1567 -0.3143  0.1223
11357TIP3    H155562   1.293   3.951  13.884  0.2433 -0.1865  0.3147
11357TIP3    H255563   1.370   4.077  13.851  0.3762 -0.3210  0.0988
11358TIP3   OH255564   6.008   5.995   1.124 -0.5664  0.5566 -0.1814
11358TIP3    H155565   5.964   6.029   1.046  0.1524  0.1058 -0.8165
11358TIP3    H255566   5.946   5.932   1.161 -1.0436  1.0055 -0.2052
11359TIP3   OH255567   5.135   4.999  11.573 -0.1972  0.6126  0.1850
11359TIP3    H155568   5.080   4.934  11.617  0.7136  0.0549  0.5438
11359TIP3    H255569   5.188   4.947  11.512 -0.9812  1.3022 -1.1239
11360TIP3   OH255570   2.899   2.807   5.283  0.0895 -0.3432  0.8136
11360TIP3    H155571   2.936   2.794   5.195 -0.9294 -0.4671  0.3901
11360TIP3    H255572   2.887   2.901   5.290 -1.2178 -0.4393  0.2115
11361TIP3   OH255573   4.876   5.579   2.848  0.0116 -0.5007 -0.0877
11361TIP3    H155574   4.830   5.643   2.902 -0.4992 -0.8824 -0.0599
11361TIP3    H255575   4.891   5.624   2.765  1.3847  0.3161  0.5733
11362TIP3   OH255576   1.786   1.779   4.216 -0.1522 -0.0538  0.3600
11362TIP3    H155577   1.698   1.789   4.178  1.2924  0.5073 -3.1964
11362TIP3    H255578   1.810   1.867   4.245 -0.4210 -0.0278  0.5069
11363TIP3   OH255579   1.386   5.329   3.531  0.5055 -0.5163  0.3308
11363TIP3    H155580   1.294   5.347   3.514  0.6221  0.2561  0.4660
11363TIP3    H255581   1.385   5.259   3.597 -0.0135  0.4998  1.4397
11364TIP3   OH255582   3.988   5.785  12.691  0.1871  1.0017  0.2034
11364TIP3    H155583   3.924   5.814  12.626 -0.1554  1.5276  0.7632
11364TIP3    H255584   3.943   5.793  12.775 -0.1119 -1.6404  0.3886
11365TIP3   OH255585   0.478   0.573   5.407  0.3119 -0.6255  0.0246
11365TIP3    H155586   0.488   0.563   5.501 -2.0498 -4.5714  0.0875
11365TIP3    H255587   0.384   0.584   5.393  0.3539 -2.0290 -1.8786
11366TIP3   OH255588   2.936   6.016  16.878 -0.2590  0.7347  0.4870
11366TIP3    H155589   2.995   5.987  16.947 -0.9416 -2.3458 -0.0732
11366TIP3    H255590   2.866   6.063  16.925 -0.8992 -1.5874  2.0547
11367TIP3   OH255591   5.418   2.541  10.543 -0.6505  0.2987 -0.1868
11367TIP3    H155592   5.396   2.466  10.599 -1.4393  0.2847 -0.5059
11367TIP3    H255593   5.369   2.526  10.462 -1.7201  1.7100  0.1642
11368TIP3   OH255594   4.932   3.444  13.751  0.2420 -0.4159 -0.4841
11368TIP3    H155595   5.012   3.479  13.712 -0.0537 -0.9631 -1.6181
11368TIP3    H255596   4.929   3.352  13.724 -0.5547 -0.5200 -0.1025
11369TIP3   OH255597   6.298   3.704  11.499 -0.8326  0.2399  0.0075
11369TIP3    H155598   6.252   3.654  11.432  0.4168 -0.3057 -0.4716
11369TIP3    H255599   6.379   3.655  11.514 -0.9318  0.5377  1.6789
11370TIP3   OH255600   1.763   1.854  10.537  0.5403 -0.3669 -0.2868
11370TIP3    H155601   1.764   1.839  10.631  0.1837 -0.6601 -0.3285
11370TIP3    H255602   1.768   1.766  10.499  1.0012 -0.2328 -0.5432
11371TIP3   OH255603   1.744   1.020  11.565 -0.2385  0.4189  0.0794
11371TIP3    H155604   1.785   1.061  11.489 -0.3593  0.7501  0.1949
11371TIP3    H255605   1.658   1.060  11.571 -0.1854  0.4777  0.4639
11372TIP3   OH255606   1.965   4.965  15.237  0.0292  0.0174 -0.5216
11372TIP3    H155607   1.930   5.050  15.213 -0.9221 -0.1133  0.3281
11372TIP3    H255608   1.996   4.927  15.154 -1.9810  0.0922 -1.3687
11373TIP3   OH255609   0.394   0.811   4.370  0.0866  0.4922  0.0720
11373TIP3    H155610   0.378   0.746   4.301  0.7170 -0.0876  0.4599
11373TIP3    H255611   0.315   0.809   4.424 -0.0189  0.2607 -0.0910
11374TIP3   OH255612   1.452   5.944   0.534 -0.2436  0.2228  0.6981
11374TIP3    H155613   1.497   5.928   0.451 -2.0367  3.0452 -0.9642
11374TIP3    H255614   1.517   5.921   0.601  1.7371 -0.8655 -1.4478
11375TIP3   OH255615   2.224   1.741   3.724 -0.0049  0.2710 -0.2489
11375TIP3    H155616   2.164   1.666   3.725  0.8192 -0.3976  0.4652
11375TIP3    H255617   2.266   1.739   3.810 -0.2615  1.8110 -0.0532
11376TIP3   OH255618   1.194   0.990  14.123 -0.0018  0.2505 -0.1823
11376TIP3    H155619   1.217   1.012  14.033  1.1568 -1.4937 -0.3630
11376TIP3    H255620   1.268   1.021  14.175  0.0523 -0.1548 -0.0174
11377TIP3   OH255621   5.356   6.178  13.691 -0.5493 -0.3888 -0.0172
11377TIP3    H155622   5.397   6.093  13.676 -0.7592 -0.5687  0.4135
11377TIP3    H255623   5.425   6.242  13.672 -0.6954 -0.6059 -1.3753
11378TIP3   OH255624   3.006   4.417  14.571  0.0857 -0.3703  0.1419
11378TIP3    H155625   2.930   4.381  14.525 -0.5222  0.4302  0.4920
11378TIP3    H255626   3.010   4.366  14.652  1.4547 -2.1187 -0.9562
11379TIP3   OH255627   0.709   2.914  16.652 -0.6242 -0.3936 -0.1817
11379TIP3    H155628   0.790   2.867  16.672 -0.7609 -0.6084 -0.1396
11379TIP3    H255629   0.721   3.000  16.692  0.4779  0.3422 -1.9452
11380TIP3   OH255630   2.482   1.344  15.515  0.5124 -0.1830 -0.4050
11380TIP3    H155631   2.396   1.320  15.551  0.8337 -0.4775  0.1834
11380TIP3    H255632   2.544   1.321  15.584  1.1133 -0.4046 -1.0066
11381TIP3   OH255633   2.607   0.049   6.329 -0.4356 -0.4234 -0.3063
11381TIP3    H155634   2.637   0.080   6.244 -0.5981  0.5343 -0.0249
11381TIP3    H255635   2.581   0.128   6.376 -1.0775 -1.0053  0.3540
11382TIP3   OH255636   5.709   2.182  14.164 -0.4772  0.1689 -0.0647
11382TIP3    H155637   5.649   2.149  14.096 -0.9893  0.4616  0.2334
11382TIP3    H255638   5.775   2.231  14.115 -0.0650 -0.7608 -0.4564
11383TIP3   OH255639   6.618   2.673  14.493  0.2791  0.4090  0.1469
11383TIP3    H155640   6.562   2.644  14.422 -0.5550 -0.2486  1.0495
11383TIP3    H255641   6.660   2.753  14.460 -2.3044  1.8112 -0.0357
11384TIP3   OH255642   6.605   4.465  13.410  0.0463 -0.0237 -0.3463
11384TIP3    H155643   6.553   4.443  13.487  0.8930  1.0362  0.5704
11384TIP3    H255644   6.555   4.533  13.366  0.2014  0.3559  0.0462
11385TIP3   OH255645   4.583   6.697   2.655 -1.1491  0.4022 -0.3642
11385TIP3    H155646   4.597   6.738   2.569  0.0662  0.0635 -0.3586
11385TIP3    H255647   4.619   6.609   2.644  0.6822  0.9303  0.9958
11386TIP3   OH255648   4.833   5.743   2.587 -0.2615 -0.5585 -0.0530
11386TIP3    H155649   4.773   5.669   2.593 -1.9344  0.7090 -0.4889
11386TIP3    H255650   4.777   5.818   2.565  1.3741  0.8409  0.3598
11387TIP3   OH255651   5.418   4.298   0.446  0.8175 -0.2286  0.1901
11387TIP3    H155652   5.477   4.364   0.411  0.6463  0.0467  0.4135
11387TIP3    H255653   5.350   4.348   0.490  0.6140 -0.5524  0.2449
11388TIP3   OH255654   6.738   6.204  11.904 -0.2308  0.2966 -0.2760
11388TIP3    H155655   6.651   6.198  11.864 -0.5726  2.4725  0.0209
11388TIP3    H255656   6.799   6.182  11.832 -0.9904 -0.4203 -0.7101
11389TIP3   OH255657   1.146   5.761  14.313 -0.2499 -0.4673 -0.3259
11389TIP3    H155658   1.148   5.835  14.374 -0.1025 -0.3580 -0.4640
11389TIP3    H255659   1.238   5.743  14.294 -0.2517 -1.1199  0.2302
11390TIP3   OH255660   1.568   6.717  16.596 -0.0574  0.4289  0.3628
11390TIP3    H155661   1.582   6.793  16.540  1.1583  1.1328  1.5634
11390TIP3    H255662   1.489   6.737  16.646 -0.5290  0.2697 -0.3053
11391TIP3   OH255663   3.683   6.720  16.352  0.2533 -0.5678 -0.4989
11391TIP3    H155664   3.699   6.738  16.260 -0.5040  0.5026 -0.4422
11391TIP3    H255665   3.760   6.672  16.381  0.7775 -0.3750 -1.5378
11392TIP3   OH255666   6.434   5.966  11.160 -0.3741  0.0854 -0.1081
11392TIP3    H155667   6.385   6.048  11.156 -0.9079 -0.2560 -0.7187
11392TIP3    H255668   6.507   5.979  11.100  0.2329  0.5516  0.7140
11393TIP3   OH255669   5.315   2.022   4.372  0.1658 -0.1104  0.0206
11393TIP3    H155670   5.302   2.065   4.456  1.6517  0.4518 -0.0204
11393TIP3    H255671   5.226   2.006   4.340 -0.4164  0.6675  1.1809
11394TIP3   OH255672   0.756   5.008   0.731 -0.0178  0.1890  0.5593
11394TIP3    H155673   0.820   4.984   0.664  0.5695 -0.7428  1.4281
11394TIP3    H255674   0.710   5.083   0.694  1.0714  0.4143 -0.4041
11395TIP3   OH255675   3.724   3.781  15.374  0.6434 -0.2035  0.6698
11395TIP3    H155676   3.761   3.864  15.406  0.5435  0.9194 -1.8702
11395TIP3    H255677   3.741   3.782  15.279 -0.6393 -2.4429  0.3380
11396TIP3   OH255678   3.412   4.760  14.343  0.2199 -0.6044  0.1874
11396TIP3    H155679   3.459   4.741  14.261 -0.6691 -1.8743 -0.0607
11396TIP3    H255680   3.361   4.839  14.323 -0.5401 -1.3007 -0.7418
11397TIP3   OH255681   6.598   1.694   1.926  0.7794 -0.2409  0.0803
11397TIP3    H155682   6.657   1.634   1.972  0.3661 -1.1658 -0.5399
11397TIP3    H255683   6.610   1.672   1.833 -0.5487 -0.4782 -0.0566
11398TIP3   OH255684   2.792   6.197  17.030 -0.3523  0.0155  0.0087
11398TIP3    H155685   2.881   6.233  17.024 -0.5972  0.4966 -1.1333
11398TIP3    H255686   2.741   6.267  17.070 -0.4044  0.1244 -0.2443
11399TIP3   OH255687   0.395   5.400  15.927 -0.2517 -0.2041 -0.2651
11399TIP3    H155688   0.330   5.469  15.943 -0.0718  0.0726 -0.7004
11399TIP3    H255689   0.435   5.424  15.843 -0.1052 -0.7781 -0.3634
11400TIP3   OH255690   6.716   4.906  10.751 -0.3683 -0.0438 -0.4421
11400TIP3    H155691   6.663   4.986  10.745  1.4966  1.2377 -0.9720
11400TIP3    H255692   6.688   4.853  10.676  0.5509  1.5937 -2.0345
11401TIP3   OH255693   2.010   0.257   2.724  0.0755 -0.1245  0.2826
11401TIP3    H155694   2.023   0.166   2.751  0.5997 -1.0988 -2.8183
11401TIP3    H255695   1.985   0.252   2.632  2.7253  2.9223 -0.8205
11402TIP3   OH255696   3.126   0.723   0.739  0.2291 -0.0779 -0.7182
11402TIP3    H155697   3.059   0.786   0.765  0.9894  0.3290  0.3180
11402TIP3    H255698   3.140   0.740   0.646 -2.5002 -1.5146 -1.4803
11403TIP3   OH255699   3.973   1.592   1.164  0.5520  0.4859  0.3999
11403TIP3    H155700   3.982   1.539   1.084 -0.0867 -1.7537  1.7299
11403TIP3    H255701   4.008   1.536   1.233 -0.5034  1.6619  1.9387
11404TIP3   OH255702   4.106   1.089  16.238 -0.1068  0.2765 -0.0486
11404TIP3    H155703   4.016   1.120  16.232 -0.0769  0.2366 -0.8632
11404TIP3    H255704   4.122   1.046  16.154  0.9045  0.9313 -0.2175
11405TIP3   OH255705   6.031   1.039  12.188  0.5835  0.2341  0.0447
11405TIP3    H155706   6.114   1.068  12.227  1.3641 -0.6737 -0.8713
11405TIP3    H255707   6.045   0.946  12.170 -0.5959  0.1018 -0.2502
11406TIP3   OH255708   2.650   6.419  16.423 -0.2845 -0.1664 -0.2381
11406TIP3    H155709   2.584   6.428  16.354  0.1140 -0.7328 -0.7058
11406TIP3    H255710   2.733   6.419  16.375  0.1042  1.1222  0.3832
11407TIP3   OH255711   5.870   3.686   2.984 -0.5024 -0.2699 -0.1056
11407TIP3    H155712   5.935   3.708   2.918  1.1384  2.7609  2.2742
11407TIP3    H255713   5.920   3.669   3.064 -2.5088  0.8820  1.5047
11408TIP3   OH255714   2.824   0.162   3.994 -0.3544 -0.2540 -0.1196
11408TIP3    H155715   2.862   0.174   3.907  0.0287 -1.3005 -0.1180
11408TIP3    H255716   2.757   0.230   4.001 -2.0707 -1.5970 -2.1788
11409TIP3   OH255717   1.976   1.611  12.139  0.8658 -0.1986 -0.6561
11409TIP3    H155718   1.986   1.600  12.233  1.0751  2.1677 -0.3570
11409TIP3    H255719   2.047   1.670  12.113 -0.8295  1.4810 -1.7569
11410TIP3   OH255720   4.976   3.267   1.636  0.4783 -0.7890  0.0735
11410TIP3    H155721   4.934   3.189   1.674  1.7817 -1.2730  0.5700
11410TIP3    H255722   4.998   3.322   1.711  0.2999 -0.3122 -0.2189
11411TIP3   OH255723   6.092   2.866   4.973 -0.4153  0.2643  0.0468
11411TIP3    H155724   6.155   2.931   5.002  0.4871 -0.8025  0.5577
11411TIP3    H255725   6.081   2.882   4.880  2.8671 -1.2903 -0.7426
11412TIP3   OH255726   4.043   0.442  14.326 -0.1912 -0.4499  0.2921
11412TIP3    H155727   3.983   0.435  14.400  0.0354 -3.4929  0.3005
11412TIP3    H255728   4.002   0.508  14.269 -2.3094 -0.7438  1.3708
11413TIP3   OH255729   6.008   2.016   3.305  0.3902 -0.2062 -0.1725
11413TIP3    H155730   6.064   2.085   3.269 -0.6610 -0.0477 -1.6150
11413TIP3    H255731   5.922   2.058   3.316  0.1917 -0.8104  0.6558
11414TIP3   OH255732   2.326   0.619  14.110  0.0144 -0.8556 -0.4996
11414TIP3    H155733   2.384   0.634  14.184 -0.7159 -0.1428 -0.0602
11414TIP3    H255734   2.294   0.530  14.122 -0.4441 -0.5903  0.2949
11415TIP3   OH255735   4.885   5.783   1.927  0.5685  0.2016 -0.8781
11415TIP3    H155736   4.977   5.772   1.953  0.1763 -2.5318 -0.2877
11415TIP3    H255737   4.872   5.877   1.922  3.5173  0.6545 -1.4167
11416TIP3   OH255738   0.347   4.159  14.394 -0.0770  0.3955 -0.4595
11416TIP3    H155739   0.272   4.182  14.339  1.1155 -0.1301 -2.4197
11416TIP3    H255740   0.339   4.064  14.405  0.4859  0.2769 -1.0143
11417TIP3   OH255741   4.460   5.994   6.120  0.0050  0.0576 -0.0524
11417TIP3    H155742   4.519   5.918   6.123  0.5908  0.5276  1.7709
11417TIP3    H255743   4.372   5.956   6.120  0.2853 -0.6327 -1.0890
11418TIP3   OH255744   2.709   0.113   1.670  0.8346  0.0857  0.0285
11418TIP3    H155745   2.765   0.184   1.703  0.2168 -0.8924  3.7046
11418TIP3    H255746   2.624   0.129   1.710  0.1393 -1.6554 -0.6592
11419TIP3   OH255747   4.463   4.670  11.848 -0.0778  0.4635  0.7892
11419TIP3    H155748   4.403   4.744  11.837 -1.0607 -0.4058  0.1354
11419TIP3    H255749   4.412   4.594  11.822  0.8518 -0.4842  1.6384
11420TIP3   OH255750   4.290   2.335  12.719  0.7330  0.8397 -0.4342
11420TIP3    H155751   4.377   2.367  12.696  0.5090  0.9834 -1.0984
11420TIP3    H255752   4.230   2.399  12.680  0.2648 -0.5030 -1.9994
11421TIP3   OH255753   5.680   3.678   0.860 -0.9817  0.4991 -0.1913
11421TIP3    H155754   5.678   3.706   0.951  0.1856 -1.1046  0.3800
11421TIP3    H255755   5.682   3.760   0.810 -0.3839  1.4233  1.2637
11422TIP3   OH255756   0.896   2.417   0.971 -0.3181 -0.1563 -0.3763
11422TIP3    H155757   0.854   2.416   1.057  1.2464  0.4792  0.4276
11422TIP3    H255758   0.922   2.508   0.957 -1.0470 -0.1287 -1.8013
11423TIP3   OH255759   4.974   2.538  14.830 -0.3270  0.3139  0.1440
11423TIP3    H155760   5.028   2.460  14.818 -0.5811  0.1536  0.0418
11423TIP3    H255761   4.899   2.508  14.882 -0.9058  0.2806 -0.6953
11424TIP3   OH255762   6.239   3.356  16.995 -0.8420 -0.8095 -0.0183
11424TIP3    H155763   6.330   3.330  16.982 -0.6658 -0.0002 -0.4948
11424TIP3    H255764   6.214   3.396  16.911 -1.3367 -0.1894  0.4198
11425TIP3   OH255765   5.582   1.085  16.848 -0.4645 -0.4638  0.3778
11425TIP3    H155766   5.564   1.005  16.798  0.7822 -0.3695 -0.2463
11425TIP3    H255767   5.532   1.074  16.929 -0.8628 -1.5599 -0.0036
11426TIP3   OH255768   0.022   1.308   1.454  0.0698  0.3149  0.4647
11426TIP3    H155769   0.061   1.377   1.508  1.0759  1.0699 -1.1665
11426TIP3    H255770   0.096   1.270   1.407 -0.4660 -1.8667  1.2627
11427TIP3   OH255771   5.806   3.260  15.602 -0.2547 -0.2218  0.6856
11427TIP3    H155772   5.833   3.309  15.679  1.2345  0.9667 -0.5116
11427TIP3    H255773   5.713   3.279  15.592 -0.0239  1.2645  1.0693
11428TIP3   OH255774   4.088   1.241   5.765 -0.4464 -0.4976 -0.2104
11428TIP3    H155775   4.075   1.206   5.677 -0.7132  1.2311 -0.9050
11428TIP3    H255776   4.030   1.317   5.769  2.1037  1.5550  0.1775
11429TIP3   OH255777   4.096   4.410  15.049  0.4084 -0.3216 -0.8625
11429TIP3    H155778   4.186   4.378  15.035  0.4433  0.2475 -2.0292
11429TIP3    H255779   4.051   4.391  14.967 -0.6339 -0.8555 -0.1822
11430TIP3   OH255780   2.547   1.675  14.884  0.1182  0.1428 -0.1585
11430TIP3    H155781   2.462   1.700  14.849  0.2516  1.0780  0.1638
11430TIP3    H255782   2.602   1.752  14.872  0.3931  0.2235  1.3528
11431TIP3   OH255783   6.730   4.100  15.666 -0.4100 -0.1010  0.4784
11431TIP3    H155784   6.744   4.191  15.642 -0.4281 -0.0587  0.6252
11431TIP3    H255785   6.636   4.093  15.684 -0.3356 -0.0423  0.9013
11432TIP3   OH255786   6.448   5.915  16.342  0.2121 -0.1791  0.3347
11432TIP3    H155787   6.513   5.846  16.327  0.0989 -0.1951 -0.0882
11432TIP3    H255788   6.363   5.870  16.334  0.1486 -0.3094  1.6069
11433TIP3   OH255789   0.555   5.748  14.826 -0.5197  0.4533 -0.2690
11433TIP3    H155790   0.621   5.802  14.783  1.9291 -1.5251  0.7975
11433TIP3    H255791   0.527   5.800  14.902 -0.4451  1.4186 -0.8785
11434TIP3   OH255792   5.295   0.888   3.910  0.3707 -0.5578 -0.1224
11434TIP3    H155793   5.255   0.939   3.980  1.7259  0.8976 -0.3408
11434TIP3    H255794   5.247   0.806   3.909 -0.2341 -0.2746  1.9369
11435TIP3   OH255795   1.773   4.525   5.517  0.7407  0.0565  0.0078
11435TIP3    H155796   1.720   4.453   5.552 -1.1167  1.2437 -0.2232
11435TIP3    H255797   1.860   4.511   5.554 -0.3939 -0.4011  2.7409
11436TIP3   OH255798   4.184   4.443  16.431 -0.6556  0.7174 -0.4272
11436TIP3    H155799   4.186   4.353  16.464 -0.5544  0.4834 -1.0467
11436TIP3    H255800   4.138   4.493  16.498  0.4231  0.4580  0.5351
11437TIP3   OH255801   3.123   3.460  17.020  0.5667  0.3224 -0.1406
11437TIP3    H155802   3.150   3.426  16.935 -1.5739 -0.0097 -0.7492
11437TIP3    H255803   3.047   3.407  17.044  1.1866  0.3311  2.0657
11438TIP3   OH255804   3.844   1.710  11.338  0.0649  0.5508  0.0894
11438TIP3    H155805   3.781   1.645  11.307  0.4067  0.1084  0.3069
11438TIP3    H255806   3.793   1.791  11.347 -0.8044 -0.1258  1.6013
11439TIP3   OH255807   4.765   1.058  10.328  0.5790 -0.3158  0.4228
11439TIP3    H155808   4.725   1.055  10.241 -0.6220  0.6468  0.9199
11439TIP3    H255809   4.831   0.988  10.326 -1.7674 -2.7136 -0.1347
11440TIP3   OH255810   4.338   3.281   1.817  0.6163 -0.5845  0.0911
11440TIP3    H155811   4.399   3.224   1.864  0.6749  0.0180  0.7600
11440TIP3    H255812   4.264   3.293   1.877  0.6924  0.1976  0.0484
11441TIP3   OH255813   0.037   6.741   5.507 -0.3260 -0.8964 -0.4852
11441TIP3    H155814  -0.003   6.814   5.460 -2.3310 -1.5987  0.0442
11441TIP3    H255815   0.020   6.665   5.452 -0.8666 -1.4068  0.3738
11442TIP3   OH255816   5.824   1.300  16.333  0.3987  0.3154 -0.0455
11442TIP3    H155817   5.775   1.218  16.323 -0.9690  1.0367  0.5106
11442TIP3    H255818   5.900   1.275  16.386 -0.3479 -0.4862  0.7007
11443TIP3   OH255819   3.119   6.541  14.988 -0.4828 -0.2745 -0.1325
11443TIP3    H155820   3.147   6.561  15.078 -0.5147  0.0757 -0.2006
11443TIP3    H255821   3.026   6.518  14.998 -0.7682  0.7949 -0.2113
11444TIP3   OH255822   2.768   3.098  12.582  0.7506 -0.4176  0.7549
11444TIP3    H155823   2.809   3.056  12.657  2.1232 -1.2300 -0.4055
11444TIP3    H255824   2.755   3.028  12.519 -3.2256 -0.3984  1.2878
11445TIP3   OH255825   1.735   2.023  13.411 -0.0264 -0.8466 -0.3199
11445TIP3    H155826   1.746   1.983  13.497 -1.0143 -0.6259 -0.0795
11445TIP3    H255827   1.646   2.001  13.386 -0.3926  0.6750 -0.4463
11446TIP3   OH255828   3.199   2.367   5.668  0.0603 -0.0938  0.4617
11446TIP3    H155829   3.119   2.351   5.718 -0.0421  0.2511  0.4086
11446TIP3    H255830   3.224   2.457   5.689  0.5735 -0.2769  0.6664
11447TIP3   OH255831   1.252   4.585  16.716  0.2093  0.4682  0.4305
11447TIP3    H155832   1.315   4.573  16.644  0.6844  2.5306  0.4327
11447TIP3    H255833   1.292   4.653  16.770 -0.8336 -0.0407  1.8778
11448TIP3   OH255834   5.089   5.036   5.539  0.0338 -0.1499 -0.4971
11448TIP3    H155835   5.071   5.051   5.447  3.3677 -4.7838 -2.2993
11448TIP3    H255836   5.154   5.103   5.562  1.0607 -0.4448 -2.3549
11449TIP3   OH255837   2.557   0.137  16.762  0.0902 -0.1670  0.2503
11449TIP3    H155838   2.511   0.097  16.688 -1.6993  0.6803  0.8267
11449TIP3    H255839   2.600   0.214  16.724  0.6424 -0.6915 -0.2101
11450TIP3   OH255840   6.217   4.253  13.984 -0.1446 -0.2515 -0.0144
11450TIP3    H155841   6.297   4.212  13.951 -1.0007 -1.6826 -0.4009
11450TIP3    H255842   6.225   4.345  13.958  0.9479 -0.5671 -0.8843
11451TIP3   OH255843   4.614   2.550  14.087 -0.1800 -0.1579  0.3029
11451TIP3    H155844   4.550   2.621  14.082 -0.1119 -0.0873  0.4112
11451TIP3    H255845   4.642   2.550  14.179  0.1161 -0.0602  0.2150
11452TIP3   OH255846   0.688   3.541   2.953 -0.3784 -0.4101  0.4245
11452TIP3    H155847   0.721   3.452   2.935  2.0970  0.4932  0.1077
11452TIP3    H255848   0.663   3.538   3.045 -0.7837 -1.5619  0.2948
11453TIP3   OH255849   1.082   2.290  13.328  0.4089  0.5429 -0.3117
11453TIP3    H155850   1.029   2.221  13.368  0.4256  0.2988 -0.7102
11453TIP3    H255851   1.091   2.356  13.397 -0.3505  0.5561 -0.2073
11454TIP3   OH255852   4.989   0.282   4.853 -0.3146 -0.0642  0.1346
11454TIP3    H155853   4.957   0.247   4.936  0.1092  0.7297  0.6463
11454TIP3    H255854   5.005   0.375   4.871  1.0767 -0.1743 -0.4513
11455TIP3   OH255855   1.414   1.343  14.428 -0.1355  0.0991  0.2045
11455TIP3    H155856   1.416   1.344  14.332 -0.8685 -1.5623  0.1306
11455TIP3    H255857   1.491   1.290  14.452  0.6691  1.4014  0.6106
11456TIP3   OH255858   0.201   4.662   4.657  0.9073  0.0599  0.1168
11456TIP3    H155859   0.224   4.729   4.593 -1.7223  2.8780  1.8292
11456TIP3    H255860   0.283   4.617   4.676  2.0430 -0.0509 -4.0945
11457TIP3   OH255861   6.113   4.080   1.670  0.4914 -0.2433  0.1257
11457TIP3    H155862   6.149   4.160   1.632  1.8912 -0.2849  1.2401
11457TIP3    H255863   6.078   4.031   1.596 -0.8790  1.6117 -0.5260
11458TIP3   OH255864   6.267   6.205   3.662 -0.2695 -0.3149 -0.4655
11458TIP3    H155865   6.313   6.263   3.722  1.2357 -1.1294 -0.7856
11458TIP3    H255866   6.255   6.124   3.712 -0.9837 -0.2493 -0.5289
11459TIP3   OH255867   4.925   5.322   1.635 -0.3899  0.3897  0.4245
11459TIP3    H155868   4.835   5.309   1.664 -0.4230 -2.8629 -0.7065
11459TIP3    H255869   4.934   5.264   1.559  2.2695  1.6619 -0.3348
11460TIP3   OH255870   4.519   2.933   3.632  0.5534  0.2557  0.3332
11460TIP3    H155871   4.480   3.020   3.621  1.1646  0.4027 -0.8782
11460TIP3    H255872   4.567   2.938   3.714 -0.9925  0.4409  1.2477
11461TIP3   OH255873   6.076   2.796   3.682  0.1950 -0.2707 -0.4967
11461TIP3    H155874   6.042   2.885   3.694 -0.7109 -0.5945 -0.5740
11461TIP3    H255875   6.067   2.780   3.588  0.7769 -0.2850 -0.5521
11462TIP3   OH255876   1.282   4.462  12.519  0.7018 -1.1224 -0.1566
11462TIP3    H155877   1.326   4.433  12.439 -0.6805 -2.7397 -0.3725
11462TIP3    H255878   1.195   4.424  12.514 -1.7274  3.7116 -0.8393
11463TIP3   OH255879   6.252   4.212   3.566 -0.4492 -0.2713 -0.2200
11463TIP3    H155880   6.272   4.297   3.604 -1.2615 -0.2677  0.2058
11463TIP3    H255881   6.261   4.151   3.639 -0.2089 -0.5086 -0.4460
11464TIP3   OH255882   5.602   3.674  10.975 -0.0445  0.5099  0.4114
11464TIP3    H155883   5.528   3.719  11.016 -2.4424 -1.2582 -1.6128
11464TIP3    H255884   5.629   3.731  10.904 -0.8058  0.3469 -0.0283
11465TIP3   OH255885   6.443   6.658  14.885 -0.1878 -0.0992 -0.4328
11465TIP3    H155886   6.382   6.588  14.859 -0.3020  0.3526 -1.4338
11465TIP3    H255887   6.496   6.673  14.807 -1.8898  2.7378 -1.1927
11466TIP3   OH255888   1.028   0.871   4.900 -0.0815  0.3453  0.1213
11466TIP3    H155889   1.079   0.880   4.819  1.8881  0.7742  1.3442
11466TIP3    H255890   1.020   0.776   4.913 -0.4263  0.2727 -0.5634
11467TIP3   OH255891   1.333   4.350   5.551 -0.4530 -0.2407 -0.2840
11467TIP3    H155892   1.278   4.389   5.483  1.4092  1.6819 -0.7512
11467TIP3    H255893   1.313   4.400   5.629 -0.7495 -0.8227  0.0226
11468TIP3   OH255894   3.777   6.671  12.959  0.1733 -0.0478  0.5643
11468TIP3    H155895   3.693   6.691  12.999 -0.1981 -1.3783  0.5181
11468TIP3    H255896   3.788   6.736  12.889 -1.8493 -1.1187 -0.8396
11469TIP3   OH255897   6.324   0.878   3.968 -0.0923 -0.2243 -0.3819
11469TIP3    H155898   6.366   0.959   3.995 -0.1310  0.2279 -1.6307
11469TIP3    H255899   6.325   0.823   4.047 -0.4539  1.1342  0.6023
11470TIP3   OH255900   5.027   0.186   0.762  0.5184  0.6821  0.1659
11470TIP3    H155901   4.976   0.257   0.800  0.7957  1.2181 -0.4314
11470TIP3    H255902   5.050   0.218   0.675 -0.3369 -0.6102 -0.5756
11471TIP3   OH255903   4.941   3.128   6.767  0.3786  0.5411  0.3240
11471TIP3    H155904   4.859   3.155   6.725 -0.2341 -1.4958  0.0869
11471TIP3    H255905   4.916   3.109   6.858  1.1851  2.4908  1.0062
11472TIP3   OH255906   2.445   5.780   3.734  0.9061  0.6899 -0.4508
11472TIP3    H155907   2.525   5.824   3.707  1.3593 -0.1306 -0.5050
11472TIP3    H255908   2.432   5.712   3.667  0.8579  0.0156  0.2335
11473TIP3   OH255909   1.795   5.178   5.116  0.2936 -0.0441  0.2027
11473TIP3    H155910   1.837   5.257   5.149 -0.8549  1.1450 -1.0552
11473TIP3    H255911   1.829   5.168   5.027 -1.2900  0.3884 -0.4874
11474TIP3   OH255912   6.307   1.791  14.459 -0.5354 -0.1808  0.9288
11474TIP3    H155913   6.308   1.861  14.394  1.4645 -1.8121 -0.9166
11474TIP3    H255914   6.248   1.725  14.423  0.2752 -0.9284  0.9561
11475TIP3   OH255915   6.158   4.370   5.259  0.1348  0.3496 -0.4637
11475TIP3    H155916   6.088   4.420   5.217 -0.8880 -0.5607  0.0771
11475TIP3    H255917   6.216   4.344   5.187 -0.2320  0.8817 -0.9619
11476TIP3   OH255918   2.188   4.885   4.140 -0.0756  0.5447  0.0987
11476TIP3    H155919   2.282   4.872   4.128 -0.3188  0.1064 -1.6202
11476TIP3    H255920   2.156   4.802   4.173  0.2438  0.9738  1.5609
11477TIP3   OH255921   6.554   4.789   1.639  0.1562 -0.3466  0.0519
11477TIP3    H155922   6.590   4.707   1.670 -0.4102 -0.1747  1.2174
11477TIP3    H255923   6.552   4.780   1.544  1.6497 -1.0141  0.0628
11478TIP3   OH255924   0.523   3.792   2.730 -0.4932  0.0350  0.0720
11478TIP3    H155925   0.564   3.815   2.814 -0.6609 -1.0737  0.4828
11478TIP3    H255926   0.562   3.852   2.667  1.2156 -0.4793  0.5768
11479TIP3   OH255927   5.917   1.813  16.230 -0.0378 -0.4878 -0.1587
11479TIP3    H155928   6.006   1.847  16.223 -0.2745  0.2639  0.4014
11479TIP3    H255929   5.909   1.752  16.157 -0.3851  2.3697 -2.6978
11480TIP3   OH255930   6.003   4.410  15.982  0.2665 -0.7528 -0.2788
11480TIP3    H155931   6.005   4.506  15.983  0.4349 -0.7038  2.9544
11480TIP3    H255932   5.924   4.389  15.931 -0.6169  1.1473  0.2137
11481TIP3   OH255933   1.092   2.902   3.204  0.0818 -0.0643 -0.0887
11481TIP3    H155934   1.090   2.980   3.147  0.3148 -0.2382 -0.3367
11481TIP3    H255935   1.087   2.828   3.143  0.0722 -0.2478  0.1351
11482TIP3   OH255936   3.248   5.838   5.605  0.0606  0.0400  0.2165
11482TIP3    H155937   3.279   5.834   5.696 -0.4983 -3.1470  0.3863
11482TIP3    H255938   3.328   5.832   5.552  0.3290  1.1760  0.4552
11483TIP3   OH255939   2.354   3.510   1.510  0.2371 -0.3691 -0.0418
11483TIP3    H155940   2.429   3.466   1.470 -0.8659 -1.9242 -0.5063
11483TIP3    H255941   2.322   3.448   1.576 -0.6088  0.2959  0.1922
11484TIP3   OH255942   4.953   4.380  14.927  0.0815  0.6364  0.1283
11484TIP3    H155943   5.045   4.394  14.952  1.6971 -0.5731 -4.2390
11484TIP3    H255944   4.923   4.466  14.899  0.7507  0.6043 -0.7268
11485TIP3   OH255945   4.798   3.970   0.247  0.2156  0.2764  0.6622
11485TIP3    H155946   4.719   3.922   0.274 -0.2664  0.7855  0.1773
11485TIP3    H255947   4.776   4.007   0.162  1.2202 -0.1401  0.1995
11486TIP3   OH255948   3.650   1.750   5.035 -0.1421 -0.4613  0.0421
11486TIP3    H155949   3.688   1.777   5.118 -0.5445 -0.9633  0.3958
11486TIP3    H255950   3.706   1.791   4.968 -0.9995  1.6307  0.5354
11487TIP3   OH255951   5.423   0.776   5.342  0.4704  0.4631 -0.2295
11487TIP3    H155952   5.484   0.702   5.338  2.2241  1.8646 -1.6713
11487TIP3    H255953   5.396   0.780   5.433  1.9707 -0.6839  0.3170
11488TIP3   OH255954   0.123   2.516  16.922  0.2610  1.1201  0.0546
11488TIP3    H155955   0.081   2.564  16.994 -0.2671 -0.1976  0.6505
11488TIP3    H255956   0.188   2.461  16.965 -0.7791 -0.4689 -0.3323
11489TIP3   OH255957   4.070   3.724   5.283 -0.3461 -0.1424 -0.2510
11489TIP3    H155958   4.069   3.795   5.219 -0.2438  0.8590  0.8267
11489TIP3    H255959   4.162   3.718   5.310 -0.3566 -0.6856 -0.3342
11490TIP3   OH255960   5.533   4.786   3.930 -0.1449 -0.3388  0.4736
11490TIP3    H155961   5.483   4.726   3.874  1.0040 -0.8786 -0.0115
11490TIP3    H255962   5.483   4.867   3.928 -0.6820 -0.6708 -0.4910
11491TIP3   OH255963   0.540   1.169  14.468  0.1285 -0.0284 -0.4083
11491TIP3    H155964   0.594   1.219  14.407  0.0256 -1.8104 -2.0269
11491TIP3    H255965   0.466   1.138  14.415  0.0730 -1.6854  0.5883
11492TIP3   OH255966   0.065   5.939   2.201  0.3881 -0.5953 -0.5015
11492TIP3    H155967   0.092   5.938   2.110 -0.9372  1.1699 -0.9761
11492TIP3    H255968   0.054   6.032   2.222 -1.4006 -1.0393  0.7786
11493TIP3   OH255969   3.933   4.947   1.603  0.1221  0.3775  0.1464
11493TIP3    H155970   3.869   5.010   1.570  0.2861  1.0646  1.1058
11493TIP3    H255971   4.015   4.972   1.561 -0.0321  0.0957 -0.3357
11494TIP3   OH255972   3.259   3.225   0.107 -0.2389  0.0268 -0.2808
11494TIP3    H155973   3.183   3.196   0.057 -0.8000 -0.5017  0.8651
11494TIP3    H255974   3.302   3.288   0.049 -1.5790  0.3886 -0.9220
11495TIP3   OH255975   3.385   5.984  14.607 -0.3786 -0.6774 -0.2252
11495TIP3    H155976   3.393   5.983  14.702  0.7976  0.6397 -0.2749
11495TIP3    H255977   3.475   5.975  14.576 -0.4484  1.2441 -1.1456
11496TIP3   OH255978   5.523   0.945   0.155 -0.0680 -0.2278  0.0715
11496TIP3    H155979   5.538   0.918   0.245 -0.0635  2.4277  0.9538
11496TIP3    H255980   5.604   0.987   0.128 -0.3432 -0.2895 -0.9119
11497TIP3   OH255981   2.650   4.246  11.440  0.2656 -0.2001 -0.1298
11497TIP3    H155982   2.639   4.159  11.479 -1.4234 -0.8629 -1.9182
11497TIP3    H255983   2.598   4.303  11.496 -0.9980 -0.8979 -0.5349
11498TIP3   OH255984   4.329   3.812  17.167 -0.6248 -0.1690 -0.3119
11498TIP3    H155985   4.342   3.733  17.114  0.9012 -0.8620  1.0258
11498TIP3    H255986   4.404   3.814  17.226 -1.2941  1.6177  0.5424
11499TIP3   OH255987   3.321   5.038   4.151 -0.0373  0.3845 -0.0026
11499TIP3    H155988   3.414   5.059   4.157 -0.0240 -0.1084  2.7142
11499TIP3    H255989   3.279   5.097   4.213 -1.4251 -0.0551 -0.4903
11500TIP3   OH255990   3.925   3.163   1.802  0.2928  0.2604 -0.6446
11500TIP3    H155991   3.877   3.227   1.750 -0.7489 -0.5056 -0.6744
11500TIP3    H255992   3.977   3.114   1.738 -0.6271 -0.3740 -0.9272
11501TIP3   OH255993   4.730   3.447   4.838 -0.4989  0.3347 -0.1591
11501TIP3    H155994   4.806   3.399   4.805  0.9796  1.7987  0.8728
11501TIP3    H255995   4.690   3.486   4.761 -0.8081 -1.2777 -0.8279
11502TIP3   OH255996   3.827   5.117   5.208 -0.4013  0.3937 -0.4694
11502TIP3    H155997   3.769   5.193   5.203 -1.9883 -0.8457 -1.7267
11502TIP3    H255998   3.777   5.052   5.259  1.0301  0.2266  0.8116
11503TIP3   OH255999   2.940   4.014  17.257  0.4717 -0.1719 -1.3611
11503TIP3    H156000   3.005   4.068  17.211  0.3298  2.5934  1.3478
11503TIP3    H256001   2.987   3.980  17.333 -0.6751  0.0988 -0.5041
11504TIP3   OH256002   5.065   3.962  15.857 -0.1506  0.0870  0.6319
11504TIP3    H156003   5.031   3.904  15.925  1.0946 -1.3683  0.0795
11504TIP3    H256004   5.021   4.046  15.872 -0.9189 -0.5810  2.3654
11505TIP3   OH256005   0.944   1.069  15.906 -0.1472 -0.2804  0.0364
11505TIP3    H156006   1.001   1.006  15.949 -0.3266 -0.4007  0.1023
11505TIP3    H256007   0.996   1.104  15.833 -0.2966 -1.0545 -0.4538
11506TIP3   OH256008   2.964   2.714   4.322  0.0863 -0.0656  0.7058
11506TIP3    H156009   2.972   2.697   4.229 -0.9233 -1.0380  0.7807
11506TIP3    H256010   2.994   2.804   4.332  0.1356  0.0799 -0.5653
11507TIP3   OH256011   4.821   2.110   4.690 -0.0451  0.1425 -0.2671
11507TIP3    H156012   4.805   2.172   4.761  0.4556  1.1298 -0.9875
11507TIP3    H256013   4.915   2.119   4.672 -0.3919  0.8944 -1.9115
11508TIP3   OH256014   0.010   3.199  17.094 -0.8892 -0.9162 -0.3379
11508TIP3    H156015  -0.035   3.171  17.174 -0.5114 -0.8098 -0.0834
11508TIP3    H256016  -0.019   3.139  17.027 -1.2635 -0.9680 -0.1308
11509TIP3   OH256017   5.534   5.744   5.052  0.7843  0.2475  0.1932
11509TIP3    H156018   5.558   5.651   5.053  1.5024  0.4039 -0.7887
11509TIP3    H256019   5.441   5.744   5.028  0.6660 -0.2315  0.6278
11510TIP3   OH256020   4.647   4.178  16.940 -0.2071  0.0099  0.0316
11510TIP3    H156021   4.594   4.183  16.860 -0.1000 -0.7450 -0.0921
11510TIP3    H256022   4.720   4.121  16.916  0.5223  0.8241  0.2803
11511TIP3   OH256023   1.377   3.507   0.909  0.2416 -0.4168  0.1491
11511TIP3    H156024   1.385   3.583   0.967  1.4335  0.5489 -1.2389
11511TIP3    H256025   1.417   3.435   0.958 -0.2853 -0.0267  1.1926
11512TIP3   OH256026   4.228   2.187   3.317 -0.1803 -0.2185  0.3313
11512TIP3    H156027   4.165   2.146   3.258  0.4432  0.2283 -0.6662
11512TIP3    H256028   4.297   2.121   3.327  0.1445  0.0461 -0.1532
11513TIP3   OH256029   1.637   1.994   5.980  0.3449 -0.1935 -0.0192
11513TIP3    H156030   1.668   1.960   6.064 -0.0829 -1.1515 -0.2349
11513TIP3    H256031   1.642   1.919   5.921 -3.3269 -0.7989  0.1649
11514TIP3   OH256032   6.578   2.590  13.574 -0.1567 -0.4040  0.5845
11514TIP3    H156033   6.619   2.574  13.659  1.5178 -1.1128 -0.2987
11514TIP3    H256034   6.507   2.526  13.569 -1.1030  0.4835  1.9351
11515TIP3   OH256035   3.613   2.892   1.664  0.7227 -0.5992 -0.3340
11515TIP3    H156036   3.599   2.844   1.746 -1.7773 -0.7576 -0.7608
11515TIP3    H256037   3.537   2.950   1.658  1.0725 -0.2844 -2.3302
11516TIP3   OH256038   5.351   1.621   0.610  0.0132 -0.0410  0.2137
11516TIP3    H156039   5.287   1.642   0.542  0.0627 -0.9246 -0.1133
11516TIP3    H256040   5.329   1.679   0.683 -0.6161  0.2597 -0.2106
11517TIP3   OH256041   0.696   5.730   0.268 -0.2263 -0.0545  0.1259
11517TIP3    H156042   0.784   5.766   0.257  0.6417 -1.6592  1.2743
11517TIP3    H256043   0.653   5.745   0.185  1.1581  0.7445 -0.4861
11518TIP3   OH256044   5.750   3.414   2.219  0.3579  0.0764  0.5450
11518TIP3    H156045   5.671   3.385   2.264  1.0189 -0.1296  1.5824
11518TIP3    H256046   5.795   3.470   2.282  1.4276 -0.4261  0.2470
11519TIP3   OH256047   4.348   6.411  14.160  0.3505  0.0411  0.0398
11519TIP3    H156048   4.317   6.404  14.070 -2.3380 -0.3901  0.9136
11519TIP3    H256049   4.398   6.493  14.162 -0.0936  0.3800 -1.6992
11520TIP3   OH256050   2.285   6.520  12.435  0.6021  0.4998 -0.5695
11520TIP3    H156051   2.374   6.509  12.402  0.7212  1.6736 -0.6690
11520TIP3    H256052   2.284   6.608  12.472 -0.7117  0.7379 -1.1544
11521TIP3   OH256053   1.661   0.699   2.299  0.8809  1.0257  0.1415
11521TIP3    H156054   1.604   0.761   2.253 -2.2094 -1.3612  0.3541
11521TIP3    H256055   1.701   0.647   2.228 -1.0339 -0.2963 -0.0653
11522TIP3   OH256056   6.057   2.605  11.473 -0.1352 -0.1081 -0.0375
11522TIP3    H156057   6.104   2.566  11.547  0.4913  0.7395  0.0219
11522TIP3    H256058   5.999   2.669  11.512 -0.1070  0.0480 -0.2507
11523TIP3   OH256059   0.596   1.779   4.339 -0.3863 -0.2189  0.4654
11523TIP3    H156060   0.670   1.840   4.348  0.8397 -1.2516 -1.6797
11523TIP3    H256061   0.623   1.702   4.389  1.2788 -1.5935 -2.3266
11524TIP3   OH256062   4.621   3.567   4.624 -0.0025 -0.0795  0.1137
11524TIP3    H156063   4.712   3.539   4.610 -0.3599 -0.3198 -2.0772
11524TIP3    H256064   4.621   3.661   4.608  0.0067  0.0645  0.9457
11525TIP3   OH256065   6.376   5.896   3.130  0.4269 -0.0615  0.5142
11525TIP3    H156066   6.472   5.901   3.128  0.4372  1.3941  2.2264
11525TIP3    H256067   6.353   5.911   3.222 -1.4990  0.8488 -0.0648
11526TIP3   OH256068   2.008   3.506   2.619 -0.0791  0.3206  0.0038
11526TIP3    H156069   2.059   3.555   2.684 -0.6684 -0.1072  0.8088
11526TIP3    H256070   1.980   3.572   2.556  1.6450  0.5395 -0.5935
11527TIP3   OH256071   1.855   0.070  13.329 -0.8458 -0.3033 -0.5322
11527TIP3    H156072   1.883  -0.017  13.301  0.8945  0.2299 -0.5729
11527TIP3    H256073   1.800   0.101  13.257  2.5689  0.5647 -3.0545
11528TIP3   OH256074   0.337   6.618  17.102  0.1365  0.0730  0.0005
11528TIP3    H156075   0.397   6.673  17.052 -2.0985  0.3598 -2.5898
11528TIP3    H256076   0.255   6.666  17.102 -0.6509 -1.1777  1.7754
11529TIP3   OH256077   4.887   5.605  10.528 -0.4524  0.6069 -0.4051
11529TIP3    H156078   4.829   5.615  10.604 -0.4527 -1.7403 -0.0344
11529TIP3    H256079   4.827   5.595  10.454 -0.4554  2.2555 -0.6494
11530TIP3   OH256080   5.056   6.699   4.254  0.2234 -0.3129  0.0166
11530TIP3    H156081   5.042   6.754   4.177 -1.2137  0.5248  0.8245
11530TIP3    H256082   5.000   6.623   4.239 -0.9388  0.3787  0.7063
11531TIP3   OH256083   3.852   1.741  13.777  0.5247  0.8019  0.2115
11531TIP3    H156084   3.758   1.746  13.759  0.3834  0.0920  0.6919
11531TIP3    H256085   3.878   1.654  13.747  1.2558  1.3770 -0.8771
11532TIP3   OH256086   4.485   2.146   3.547  0.1575  0.0078 -0.3795
11532TIP3    H156087   4.519   2.165   3.459 -0.3419 -0.9759 -0.7991
11532TIP3    H256088   4.411   2.206   3.557 -0.2334 -0.3690 -0.9315
11533TIP3   OH256089   1.805   0.272  11.698  0.0944  0.1014 -0.1892
11533TIP3    H156090   1.828   0.248  11.608  1.1516 -0.3548  0.1805
11533TIP3    H256091   1.760   0.356  11.690 -0.4544 -0.2826 -1.2042
11534TIP3   OH256092   6.491   0.548   0.429 -0.0553  0.1776 -0.1234
11534TIP3    H156093   6.456   0.480   0.487 -2.8767 -0.4067 -2.2402
11534TIP3    H256094   6.574   0.513   0.398 -0.8044 -1.7168 -0.1084
11535TIP3   OH256095   3.864   5.209  12.191  0.1949 -0.9060 -0.1947
11535TIP3    H156096   3.812   5.288  12.206  2.1529  0.0856  2.0969
11535TIP3    H256097   3.799   5.140  12.176 -1.6893  0.5920  0.6176
11536TIP3   OH256098   2.194   2.621  17.263  0.3762 -0.3386  0.0451
11536TIP3    H156099   2.246   2.699  17.284 -1.5765  1.3473 -1.0311
11536TIP3    H256100   2.166   2.588  17.348  1.2904  0.0685  0.5283
11537TIP3   OH256101   6.614   3.714   3.665 -0.0892  0.0497  0.4752
11537TIP3    H156102   6.686   3.764   3.703  1.7596 -0.3408 -2.2070
11537TIP3    H256103   6.579   3.663   3.737  3.8138 -1.4266  1.5796
11538TIP3   OH256104   4.465   3.850   1.719  0.0185 -0.0273  0.1700
11538TIP3    H156105   4.372   3.844   1.744  0.0074  0.3891  0.2300
11538TIP3    H256106   4.502   3.767   1.749 -0.2130  0.0413  0.6627
11539TIP3   OH256107   3.024   0.873   3.309 -0.4551  0.1304  0.6519
11539TIP3    H156108   3.056   0.829   3.230  0.1311 -0.7161  1.3395
11539TIP3    H256109   3.038   0.809   3.379 -0.1747  1.1779  1.5807
11540TIP3   OH256110   2.784   1.606  14.432  0.2520  0.1049  0.1229
11540TIP3    H156111   2.713   1.651  14.386 -0.6540 -2.1386 -0.8195
11540TIP3    H256112   2.743   1.568  14.510  0.8026  0.1872  0.4622
11541TIP3   OH256113   2.287   4.907   0.409  0.2027 -0.4595  0.4213
11541TIP3    H156114   2.273   4.973   0.341  0.7272 -1.9963 -1.2394
11541TIP3    H256115   2.227   4.836   0.387  0.2216 -0.8979  1.7094
11542TIP3   OH256116   5.044   1.892   1.861  0.4685  0.3283 -0.4536
11542TIP3    H156117   5.098   1.942   1.922  0.9780  0.0623 -0.6805
11542TIP3    H256118   5.103   1.826   1.825  0.2033  0.5374 -1.3012
11543TIP3   OH256119   5.366   3.476  11.410 -0.1529  0.1122  0.1384
11543TIP3    H156120   5.367   3.572  11.411 -1.2925  0.3572 -3.6650
11543TIP3    H256121   5.444   3.452  11.359 -0.0246 -0.9854  0.8239
11544TIP3   OH256122   0.712   1.572   3.057  0.2513 -0.1199 -0.1157
11544TIP3    H156123   0.658   1.516   3.001  2.2653 -0.0018 -2.3505
11544TIP3    H256124   0.744   1.640   2.999  0.3189  1.6256  1.8546
11545TIP3   OH256125   0.393   1.765  17.063 -0.6096 -0.1242  0.5868
11545TIP3    H156126   0.449   1.805  16.996 -0.0023 -2.0500 -0.1207
11545TIP3    H256127   0.416   1.811  17.144  1.1866 -0.0852  0.0944
11546TIP3   OH256128   1.989   0.135  14.881  0.1325  0.0714  0.0820
11546TIP3    H156129   2.029   0.049  14.869 -0.3293 -0.1959  0.4217
11546TIP3    H256130   2.043   0.194  14.828  1.6075 -0.0900  1.3337
11547TIP3   OH256131   4.609   0.917  15.105 -0.4420 -0.1686 -0.5282
11547TIP3    H156132   4.659   0.864  15.043  1.3986 -0.2777  0.9584
11547TIP3    H256133   4.608   0.865  15.186 -0.3006  1.1752  0.3783
11548TIP3   OH256134   6.696   0.663  14.511 -0.0570  0.5250  0.1638
11548TIP3    H156135   6.676   0.747  14.470 -1.6892  0.2123  0.2803
11548TIP3    H256136   6.741   0.687  14.592  0.2274  1.2516 -0.2000
11549TIP3   OH256137   2.316   4.411  15.853  0.1817  0.1749  0.4376
11549TIP3    H156138   2.262   4.334  15.834 -0.4727  0.9795 -1.1868
11549TIP3    H256139   2.257   4.473  15.895  0.5636  0.0268  1.2124
11550TIP3   OH256140   0.685   1.627  16.917  0.1842 -0.2379  0.1526
11550TIP3    H156141   0.649   1.715  16.905  1.3194  0.2082 -0.1012
11550TIP3    H256142   0.704   1.621  17.010 -0.7409 -0.5691  0.3346
11551TIP3   OH256143   2.035   4.294   3.947  0.2022 -0.4808 -0.1001
11551TIP3    H156144   2.072   4.308   4.034 -0.0824 -0.3795  0.0059
11551TIP3    H256145   1.978   4.218   3.957 -2.5495  1.5225  0.6565
11552TIP3   OH256146   3.000   3.425  13.579 -0.0732  0.1886  0.1280
11552TIP3    H156147   2.969   3.352  13.526  0.0823 -0.9480  1.5409
11552TIP3    H256148   3.053   3.477  13.519 -3.1575  1.2491 -1.9058
11553TIP3   OH256149   6.219   0.688   4.815 -0.3261 -0.6771 -0.0246
11553TIP3    H156150   6.194   0.636   4.891  1.6958  0.3981  1.4985
11553TIP3    H256151   6.209   0.779   4.843 -1.6885 -0.1870 -1.8735
11554TIP3   OH256152   6.728   2.689   0.862 -0.2071 -0.1140 -0.1386
11554TIP3    H156153   6.640   2.651   0.854  0.1044 -0.7608 -0.6166
11554TIP3    H256154   6.766   2.646   0.939 -0.4068  0.3858  0.2478
11555TIP3   OH256155   4.469   4.707   4.542 -0.3626 -0.0881  0.0325
11555TIP3    H156156   4.521   4.764   4.485 -1.7614  2.1004  0.8119
11555TIP3    H256157   4.498   4.729   4.631  0.5167 -2.1535  0.3227
11556TIP3   OH256158   3.959   2.066   1.618  0.3336 -0.1130  0.0118
11556TIP3    H156159   4.016   1.989   1.610 -0.3823 -0.9001  1.8097
11556TIP3    H256160   4.005   2.125   1.677  0.8342  0.8438 -1.2851
11557TIP3   OH256161   0.753   4.312  11.385 -0.8749  0.0269  0.4130
11557TIP3    H156162   0.821   4.378  11.366 -1.4386  0.1574 -1.3575
11557TIP3    H256163   0.775   4.280  11.472 -0.4384  2.3953  1.2698
11558TIP3   OH256164   6.241   3.152  15.019 -0.2315  0.0560 -0.3729
11558TIP3    H156165   6.274   3.086  14.957 -0.3972 -0.9663  0.5806
11558TIP3    H256166   6.291   3.135  15.099 -1.3506  0.0788  0.3536
11559TIP3   OH256167   0.983   2.120  12.045  0.6325  0.1642 -0.0515
11559TIP3    H156168   1.024   2.133  11.960 -0.9665  1.2466 -0.7116
11559TIP3    H256169   0.909   2.181  12.046 -1.0642 -1.7491  0.9866
11560TIP3   OH256170   5.115   2.131  16.344 -0.1597  0.3069 -0.3392
11560TIP3    H156171   5.167   2.093  16.274 -1.2005 -0.8740 -0.5195
11560TIP3    H256172   5.178   2.154  16.412  0.6045 -1.0212 -0.5662
11561TIP3   OH256173   1.687   4.730  16.563  0.8433  0.1117 -0.7836
11561TIP3    H156174   1.639   4.787  16.502 -0.0463  1.6896  1.2527
11561TIP3    H256175   1.778   4.760  16.557  1.1706 -1.0741 -2.6835
11562TIP3   OH256176   3.738   3.866   2.082  0.0911  0.5136  0.3371
11562TIP3    H156177   3.774   3.884   1.995 -0.9784  0.2318 -0.1797
11562TIP3    H256178   3.658   3.918   2.087 -0.9198 -0.9640  0.3597
11563TIP3   OH256179   2.115   2.214  16.090 -0.1890 -0.1453  0.3741
11563TIP3    H156180   2.098   2.267  16.168 -0.0155  0.1379  0.2210
11563TIP3    H256181   2.183   2.262  16.042 -0.3664 -0.2664 -0.0022
11564TIP3   OH256182   4.536   3.434  13.673  0.2170 -0.4577 -0.3011
11564TIP3    H156183   4.446   3.412  13.646  0.5202 -0.8764 -1.0096
11564TIP3    H256184   4.579   3.460  13.592  0.8176 -0.5498 -0.0133
11565TIP3   OH256185   5.226   6.511  11.000 -0.5022  0.3734  0.4923
11565TIP3    H156186   5.139   6.473  11.011 -0.8206  1.2568  1.0757
11565TIP3    H256187   5.210   6.599  10.966  0.1063  0.8258  1.3261
11566TIP3   OH256188   0.278   4.315  16.545  0.0749 -0.0065  0.6437
11566TIP3    H156189   0.335   4.374  16.497  0.3838 -0.1005  0.8917
11566TIP3    H256190   0.259   4.362  16.626  2.0134 -1.0833  1.7996
11567TIP3   OH256191   0.461   1.469  16.871 -0.2541  0.9791 -0.3884
11567TIP3    H156192   0.508   1.415  16.807  0.0675 -0.5862  1.0770
11567TIP3    H256193   0.520   1.541  16.891  0.9929 -0.2105  0.3982
11568TIP3   OH256194   1.469   2.221  15.135 -0.0897  0.1975  0.4223
11568TIP3    H156195   1.451   2.288  15.069 -2.0541  1.5879  2.2374
11568TIP3    H256196   1.422   2.143  15.104  0.2131  0.3768 -0.5130
11569TIP3   OH256197   4.158   3.199  14.212  0.3507  0.2398  0.0297
11569TIP3    H156198   4.135   3.287  14.242  0.1089 -0.4010  1.8661
11569TIP3    H256199   4.175   3.209  14.119 -1.6546  1.8586 -0.2398
11570TIP3   OH256200   3.139   0.390   1.361 -0.4499 -0.4192  0.1345
11570TIP3    H156201   3.220   0.416   1.315 -0.1013  0.3934  1.1814
11570TIP3    H256202   3.075   0.456   1.335 -0.0596  0.4714  1.3338
11571TIP3   OH256203   6.551   4.339  14.522  0.5043 -0.0823  0.3582
11571TIP3    H156204   6.527   4.367  14.434 -0.1727  0.3698  0.6756
11571TIP3    H256205   6.470   4.349  14.573  0.6739 -1.0781  0.8598
11572TIP3   OH256206   3.442   5.528  12.392 -0.1852 -0.8556 -0.2371
11572TIP3    H156207   3.438   5.556  12.484  2.8396 -2.8475  0.6386
11572TIP3    H256208   3.523   5.567  12.359 -0.4369 -1.4606 -1.6040
11573TIP3   OH256209   0.710   1.755   2.246  0.4208 -0.3324 -0.3846
11573TIP3    H156210   0.725   1.797   2.331  0.3960  0.2813 -0.6742
11573TIP3    H256211   0.774   1.685   2.241  0.6793 -0.1231 -0.0190
11574TIP3   OH256212   2.348   4.816  12.078  0.5455 -0.0857 -0.0817
11574TIP3    H156213   2.267   4.825  12.027  1.5165  0.7147 -1.5361
11574TIP3    H256214   2.367   4.905  12.108  2.1257  0.2038 -1.7763
11575TIP3   OH256215   3.561   0.884  15.634  0.0873  0.6928 -0.1588
11575TIP3    H156216   3.489   0.922  15.584  0.9441  1.5635 -0.7488
11575TIP3    H256217   3.624   0.856  15.568  0.1557 -0.3681  0.3399
11576TIP3   OH256218   4.412   1.437   1.953 -0.3119  0.3736 -0.1526
11576TIP3    H156219   4.349   1.443   1.881 -2.3653 -0.9078  1.4333
11576TIP3    H256220   4.441   1.346   1.952 -1.2837  0.0188  1.3253
11577TIP3   OH256221   2.904   1.491  11.808  0.1214 -0.7428  0.1772
11577TIP3    H156222   2.972   1.426  11.826 -0.2383 -0.7242  1.7457
11577TIP3    H256223   2.949   1.575  11.815  0.2926 -0.7699 -0.5083
11578TIP3   OH256224   5.749   3.489   2.838 -0.6365 -0.0832  0.1798
11578TIP3    H156225   5.762   3.557   2.904  0.1568  0.5484 -0.6065
11578TIP3    H256226   5.723   3.411   2.889  2.0031 -0.2167  1.4914
11579TIP3   OH256227   6.630   2.606  12.585 -0.2264  0.1857  0.2378
11579TIP3    H156228   6.707   2.560  12.549 -0.7736  0.2761 -1.0821
11579TIP3    H256229   6.667   2.682  12.631  0.4444  0.7534 -1.1812
11580TIP3   OH256230   2.261   2.145  14.155  0.1204  0.4033  0.4533
11580TIP3    H156231   2.290   2.231  14.123  0.6986  1.0626  2.5503
11580TIP3    H256232   2.224   2.102  14.078  0.3643  2.2889 -0.7987
11581TIP3   OH256233   3.135   6.256  11.715  0.3919 -0.0363  0.3247
11581TIP3    H156234   3.067   6.310  11.675  1.1503  1.1267  0.5640
11581TIP3    H256235   3.212   6.269  11.660  0.4815 -1.2493  0.1268
11582TIP3   OH256236   3.792   4.335   1.098 -0.2846 -0.0463  0.3147
11582TIP3    H156237   3.709   4.330   1.049 -0.5023  0.3480  0.6394
11582TIP3    H256238   3.788   4.262   1.159 -0.3808 -0.0454  0.3096
11583TIP3   OH256239   2.434   1.823   1.818  0.0297 -0.8526  0.2996
11583TIP3    H156240   2.416   1.793   1.728  1.1011  0.0856 -0.2598
11583TIP3    H256241   2.350   1.858   1.848 -0.0959 -0.2137 -0.7376
11584TIP3   OH256242   1.173   4.259  15.277  0.0118 -0.6496 -0.4938
11584TIP3    H156243   1.264   4.285  15.297 -0.3800  0.2454  0.2149
11584TIP3    H256244   1.128   4.342  15.262 -0.8060 -1.0613 -0.3208
11585TIP3   OH256245   4.985   0.099  12.485  0.0480 -0.2836  0.6509
11585TIP3    H156246   4.930   0.063  12.555 -0.3853  1.2634  1.1684
11585TIP3    H256247   4.961   0.049  12.407 -0.2014 -1.3684  1.3982
11586TIP3   OH256248   0.753   1.024  15.448  0.1589  0.2355 -0.1058
11586TIP3    H156249   0.786   0.935  15.459  1.2696  0.6901  0.3918
11586TIP3    H256250   0.711   1.024  15.362 -2.1042 -1.4236  0.9134
11587TIP3   OH256251   5.360   1.965   5.572  0.3469  0.2957 -0.3615
11587TIP3    H156252   5.410   1.962   5.654  0.3967  0.4423 -0.3874
11587TIP3    H256253   5.398   1.894   5.519  0.5931  0.4716 -0.4198
11588TIP3   OH256254   0.900   3.001   2.575 -0.1376 -0.1124  0.0671
11588TIP3    H156255   0.883   3.089   2.543 -0.7178 -0.7501 -1.4720
11588TIP3    H256256   0.996   2.997   2.583  0.0471  0.1245 -1.5856
11589TIP3   OH256257   4.238   4.820   2.772  0.1352 -0.7000 -0.6191
11589TIP3    H156258   4.151   4.826   2.733 -0.4090 -0.9833  0.5196
11589TIP3    H256259   4.284   4.755   2.719 -0.2378 -0.3280 -1.4103
11590TIP3   OH256260   2.605   0.377  15.512 -0.4762  0.4739 -0.4424
11590TIP3    H156261   2.601   0.438  15.585 -0.6821  0.0135 -0.0691
11590TIP3    H256262   2.624   0.292  15.551 -1.5534  0.0428 -0.8115
11591TIP3   OH256263   1.340   5.093   3.682 -0.5265 -0.6238 -0.4505
11591TIP3    H156264   1.434   5.078   3.687 -0.1177  1.7020  0.4694
11591TIP3    H256265   1.302   5.008   3.660  1.6788 -1.8755  0.3388
11592TIP3   OH256266   5.980   2.474  13.421 -0.2586  0.7513 -0.2547
11592TIP3    H156267   5.954   2.506  13.507  2.6504  0.7178  0.7608
11592TIP3    H256268   5.971   2.550  13.363 -1.4014  1.0230  0.2598
11593TIP3   OH256269   5.571   3.560  14.163 -0.3226 -0.1934 -0.4630
11593TIP3    H156270   5.570   3.655  14.157  0.4672  0.0401  1.9060
11593TIP3    H256271   5.489   3.537  14.206  1.4926 -0.0138  3.5136
11594TIP3   OH256272   6.064   1.355  13.608  0.2533 -0.0934  0.3634
11594TIP3    H156273   6.134   1.359  13.543 -0.5089  0.2026 -0.4526
11594TIP3    H256274   6.016   1.275  13.587 -0.3975  0.3477  0.1333
11595TIP3   OH256275   6.551   0.286  13.566  0.4462 -0.2981  0.1189
11595TIP3    H156276   6.502   0.212  13.530 -0.4966 -0.3357  1.4062
11595TIP3    H256277   6.484   0.339  13.610  1.4466  0.0941  1.1978
11596TIP3   OH256278   2.872   1.928   5.879 -0.4148  0.3671  0.7496
11596TIP3    H156279   2.952   1.929   5.931  0.9100 -1.3128 -1.1301
11596TIP3    H256280   2.871   1.843   5.837 -3.7828 -0.1200  1.4954
11597TIP3   OH256281   0.594   0.229  15.191 -0.5182 -0.4757  0.0624
11597TIP3    H156282   0.607   0.322  15.171  0.8252 -0.6712 -0.0111
11597TIP3    H256283   0.675   0.186  15.164  0.6712 -1.0899  3.9621
11598TIP3   OH256284   1.256   5.239  16.431 -0.2296 -0.3579  0.3047
11598TIP3    H156285   1.255   5.199  16.518 -1.3149 -1.5067 -0.2043
11598TIP3    H256286   1.190   5.190  16.381  0.4792  0.1652 -1.2115
11599TIP3   OH256287   3.420   4.503   4.481  0.1083  0.1625  0.4294
11599TIP3    H156288   3.343   4.543   4.442 -0.4971 -1.7020 -0.4211
11599TIP3    H256289   3.491   4.564   4.463 -0.9232  1.3160  0.1105
11600TIP3   OH256290   5.297   5.031  13.887 -0.5732 -0.4537  0.3368
11600TIP3    H156291   5.213   5.013  13.845 -0.8476  2.0728 -0.3445
11600TIP3    H256292   5.361   5.025  13.816 -0.6904  1.1765  0.0568
11601TIP3   OH256293   5.778   5.371   6.540 -0.2585 -0.3144 -0.5977
11601TIP3    H156294   5.803   5.354   6.632  0.4760 -0.8909 -0.8898
11601TIP3    H256295   5.707   5.435   6.546  0.6331  0.6328  0.3317
11602TIP3   OH256296   6.208   5.275   0.211 -0.6496 -0.1282  0.1059
11602TIP3    H156297   6.147   5.342   0.240 -0.0012  1.2074 -1.4775
11602TIP3    H256298   6.151   5.207   0.173 -1.2139  1.3108 -1.7905
11603TIP3   OH256299   3.615   6.234   2.568  0.1948 -0.1015 -0.6781
11603TIP3    H156300   3.527   6.211   2.538  0.1168  0.0976 -0.6077
11603TIP3    H256301   3.657   6.150   2.586 -0.0620 -0.1920 -0.4828
11604TIP3   OH256302   0.150   6.212   0.224 -0.6280 -0.0248 -0.0001
11604TIP3    H156303   0.108   6.243   0.305 -1.0100  1.2319 -0.6569
11604TIP3    H256304   0.212   6.281   0.202  0.0410 -0.7369 -0.3581
11605TIP3   OH256305   4.291   6.412   0.229  0.6560  0.2353 -0.8336
11605TIP3    H156306   4.357   6.469   0.189 -0.2471  1.6656 -0.3522
11605TIP3    H256307   4.249   6.467   0.295  0.3572 -1.2802  0.2983
11606TIP3   OH256308   3.509   5.291   5.623 -0.1068  0.0046 -0.4915
11606TIP3    H156309   3.596   5.317   5.593  0.0335  0.8973  0.6200
11606TIP3    H256310   3.502   5.327   5.711 -1.2162 -0.9406 -0.1664
11607TIP3   OH256311   5.693   3.746   2.157 -0.0773 -0.3614  0.0564
11607TIP3    H156312   5.623   3.762   2.220  0.8168 -1.4480  1.3909
11607TIP3    H256313   5.767   3.717   2.210  0.7090 -1.3516 -1.4903
11608TIP3   OH256314   6.603   1.125  13.257  0.0651  0.0795 -0.5346
11608TIP3    H156315   6.640   1.068  13.325 -0.8416  1.0259  0.8098
11608TIP3    H256316   6.547   1.067  13.205 -0.0412 -0.4729  0.1748
11609TIP3   OH256317   0.026   6.023   4.204  0.1113  0.0550  0.4997
11609TIP3    H156318  -0.053   5.982   4.170  1.7009 -2.2605 -0.6275
11609TIP3    H256319   0.060   5.961   4.268  0.2628  1.7146  2.0962
11610TIP3   OH256320   3.587   4.079   5.672 -0.6257  0.1825 -0.1550
11610TIP3    H156321   3.579   4.157   5.617 -0.5210  0.7369  0.6165
11610TIP3    H256322   3.500   4.067   5.710 -0.4122  0.4278  0.4109
11611TIP3   OH256323   0.139   3.710  12.087  0.0479  0.1032  0.5784
11611TIP3    H156324   0.109   3.652  12.158  0.6145 -1.8858 -0.7410
11611TIP3    H256325   0.075   3.696  12.017  0.1897  1.1226  0.2350
11612TIP3   OH256326   1.897   2.494   0.118 -0.3575  0.7972  0.3009
11612TIP3    H156327   1.967   2.451   0.167  0.9641  2.3070 -0.1691
11612TIP3    H256328   1.824   2.498   0.180  0.4572  0.4784  1.3198
11613TIP3   OH256329   6.330   4.027  17.161 -0.0351 -0.5896 -0.8858
11613TIP3    H156330   6.287   3.953  17.204 -3.6332  2.4867  1.5555
11613TIP3    H256331   6.411   4.040  17.210  0.5694 -2.7038 -1.2467
11614TIP3   OH256332   4.817   2.679  12.151  0.4375  0.0365  0.3076
11614TIP3    H156333   4.891   2.728  12.115  0.3290  0.6843  0.9440
11614TIP3    H256334   4.759   2.664  12.077  0.2637  1.2670  0.1869
11615TIP3   OH256335   0.457   1.796   0.264 -1.4121  0.0908 -0.0313
11615TIP3    H156336   0.485   1.887   0.275 -0.2542 -0.3139  0.6267
11615TIP3    H256337   0.507   1.748   0.330 -1.8264 -1.0573 -0.5266
11616TIP3   OH256338   1.550   6.792   3.362 -0.5353 -0.0219  0.3865
11616TIP3    H156339   1.646   6.791   3.356 -0.5922  1.1638 -1.4943
11616TIP3    H256340   1.530   6.736   3.438  1.6354 -0.1247  0.9500
11617TIP3   OH256341   6.681   0.239   4.780 -0.4696  0.2411  0.6152
11617TIP3    H156342   6.711   0.290   4.704  0.1271  0.3491  0.9165
11617TIP3    H256343   6.698   0.148   4.755 -2.0007  0.1262 -0.1279
11618TIP3   OH256344   3.431   0.840  13.288  0.3767  0.5371 -0.7220
11618TIP3    H156345   3.456   0.749  13.271  1.4431  0.5291  0.7099
11618TIP3    H256346   3.455   0.855  13.379  0.0128  2.1978 -0.8676
11619TIP3   OH256347   5.080   6.427  13.180  0.1243  0.1653  0.3066
11619TIP3    H156348   5.014   6.495  13.166 -0.0469  0.5092  2.5468
11619TIP3    H256349   5.029   6.346  13.188  0.0253  0.2982  1.1100
11620TIP3   OH256350   4.567   1.856   2.452  0.2387 -0.3580  0.0069
11620TIP3    H156351   4.600   1.791   2.515  3.1739  0.9254 -0.0770
11620TIP3    H256352   4.641   1.874   2.394 -1.3233  1.0978 -1.6682
11621TIP3   OH256353   5.206   3.763   0.031  0.1515 -0.3446  0.2378
11621TIP3    H156354   5.236   3.683  -0.014 -0.4887 -0.6384  0.3127
11621TIP3    H256355   5.207   3.740   0.124 -0.8100 -0.5587  0.2130
11622TIP3   OH256356   0.606   1.909  12.889  0.1322  0.8282 -0.1227
11622TIP3    H156357   0.530   1.961  12.915  0.2973  1.4942 -0.9036
11622TIP3    H256358   0.650   1.887  12.970 -2.1491 -1.6089  0.6036
11623TIP3   OH256359   0.366   5.349  15.454 -0.4127  0.1537  0.6868
11623TIP3    H156360   0.307   5.288  15.497  0.4080  0.3870  2.2061
11623TIP3    H256361   0.360   5.429  15.506  1.5414  0.0427  1.1313
11624TIP3   OH256362   4.320   6.380  12.727  0.3585 -0.8188 -0.3942
11624TIP3    H156363   4.344   6.470  12.747  1.5753 -1.4482  1.1775
11624TIP3    H256364   4.404   6.333  12.722 -0.2727 -1.9605 -0.7324
11625TIP3   OH256365   3.801   2.324  13.046 -0.0708  0.2753  0.3047
11625TIP3    H156366   3.844   2.239  13.046 -0.5093  0.0494  0.7076
11625TIP3    H256367   3.775   2.337  12.954  0.3910  0.1827  0.1585
11626TIP3   OH256368   0.946   1.637  16.183 -0.2373  0.6633  0.0308
11626TIP3    H156369   1.010   1.614  16.115 -1.4801 -0.4531 -0.7994
11626TIP3    H256370   0.878   1.571  16.175 -1.5529  1.8796  0.8342
11627TIP3   OH256371   0.337   1.489  12.385  0.4367 -0.1344  0.0872
11627TIP3    H156372   0.289   1.420  12.341 -0.9781 -1.2565  3.1518
11627TIP3    H256373   0.428   1.458  12.388  0.0474 -1.2653  0.2975
11628TIP3   OH256374   4.401   4.570  16.592 -0.3867 -0.2370 -0.1679
11628TIP3    H156375   4.359   4.652  16.563 -1.9474 -0.0580  2.3459
11628TIP3    H256376   4.466   4.552  16.524 -0.0883  2.9904 -0.9250
11629TIP3   OH256377   0.092   5.000   2.409  0.0865 -0.8309 -1.1298
11629TIP3    H156378   0.186   5.015   2.420 -0.1775  1.2811 -1.3890
11629TIP3    H256379   0.057   5.001   2.498  0.1759 -0.6468 -1.0969
11630TIP3   OH256380   6.673   5.818  11.536 -0.4363  0.3573 -0.4441
11630TIP3    H156381   6.648   5.746  11.594 -2.0194  1.1028 -0.1687
11630TIP3    H256382   6.672   5.779  11.448 -0.1770 -0.2212 -0.1976
11631TIP3   OH256383   0.765   4.384  12.036 -0.3699 -0.1783 -0.6373
11631TIP3    H156384   0.731   4.319  12.097  1.1915 -0.0912  0.3690
11631TIP3    H256385   0.839   4.341  11.994  1.8396  1.4446  1.3351
11632TIP3   OH256386   3.571   2.534   5.456  0.4299 -0.3229  0.4527
11632TIP3    H156387   3.622   2.453   5.464 -0.8340 -1.2030 -0.0588
11632TIP3    H256388   3.589   2.582   5.537  1.7587 -0.7638  0.4530
11633TIP3   OH256389   6.243   0.065  13.240  0.3508 -0.0332 -0.3331
11633TIP3    H156390   6.247  -0.003  13.173  0.8434  0.2593 -0.6075
11633TIP3    H256391   6.273   0.144  13.196  1.3493  0.0219  0.3918
11634TIP3   OH256392   3.555   1.607   3.165 -0.7271 -0.5396  0.2871
11634TIP3    H156393   3.576   1.523   3.125  0.8282 -0.0225 -0.0265
11634TIP3    H256394   3.638   1.639   3.201 -1.3840  0.6387  0.8384
11635TIP3   OH256395   6.357   1.477  14.473  0.3423  0.0616 -0.3015
11635TIP3    H156396   6.430   1.518  14.425  0.7268 -0.0645  0.1645
11635TIP3    H256397   6.279   1.502  14.423  0.9141 -2.3022 -2.5607
11636TIP3   OH256398   1.264   5.403  14.094 -0.4593  0.7293 -0.0018
11636TIP3    H156399   1.278   5.382  14.186 -1.5320 -1.0505 -0.1856
11636TIP3    H256400   1.280   5.321  14.048 -0.4268  1.4615 -1.3539
11637TIP3   OH256401   3.631   2.944  13.087 -0.0987  0.0555 -0.1961
11637TIP3    H156402   3.608   3.030  13.122 -0.6281 -0.9525  2.1391
11637TIP3    H256403   3.719   2.927  13.121  0.0374 -0.3043 -0.7109
11638TIP3   OH256404   0.098   5.859  13.368 -0.0500  0.2148 -0.3636
11638TIP3    H156405   0.055   5.943  13.387 -1.8803 -0.9946  1.3593
11638TIP3    H256406   0.183   5.865  13.411 -0.4086  0.9744  0.2638
11639TIP3   OH256407   3.433   0.166  10.725  0.7548 -0.1277 -0.3915
11639TIP3    H156408   3.501   0.225  10.757  0.5811 -0.9044  1.5524
11639TIP3    H256409   3.475   0.116  10.655  2.1820 -0.5154  0.6879
11640TIP3   OH256410   3.900   1.115  15.986 -0.0111 -0.6575  0.0221
11640TIP3    H156411   3.867   1.047  15.926  0.4582 -1.1723  0.3433
11640TIP3    H256412   3.866   1.090  16.072  1.4778 -1.3940  0.4268
11641TIP3   OH256413   5.159   4.849  11.139  0.1933 -0.1487 -0.0140
11641TIP3    H156414   5.166   4.820  11.230  1.6396  1.7397  0.5369
11641TIP3    H256415   5.244   4.830  11.100 -0.1478 -0.2160 -0.7504
11642TIP3   OH256416   2.986   6.044  14.965  0.0112 -0.3626  0.2219
11642TIP3    H156417   3.015   6.023  14.877  0.8954 -1.5718  0.7735
11642TIP3    H256418   2.905   5.994  14.977 -0.4610  0.3123 -0.1218
11643TIP3   OH256419   5.370   6.773   3.644  0.3330 -0.4068 -0.3311
11643TIP3    H156420   5.450   6.818   3.618 -1.5516  2.3614 -1.7907
11643TIP3    H256421   5.334   6.826   3.715 -1.2186 -0.4022 -1.0790
11644TIP3   OH256422   0.555   5.870  11.151 -0.2468  0.7374  0.1509
11644TIP3    H156423   0.566   5.937  11.218 -0.2676  0.5908  0.3030
11644TIP3    H256424   0.564   5.916  11.068 -1.3888  1.1397  0.2357
11645TIP3   OH256425   4.133   2.851  16.060  0.5115  0.0356  0.3074
11645TIP3    H156426   4.172   2.936  16.080  0.3037  0.3034 -0.4001
11645TIP3    H256427   4.039   2.866  16.067  0.3698  0.4087 -1.7914
11646TIP3   OH256428   6.202   6.073  10.934 -0.2914 -0.6688  0.0377
11646TIP3    H156429   6.275   6.095  10.876 -0.1240 -0.8072  0.1931
11646TIP3    H256430   6.128   6.056  10.875 -0.5924  0.8989 -0.0632
11647TIP3   OH256431   6.589   2.675   1.728 -0.1314 -0.2376  0.4564
11647TIP3    H156432   6.533   2.601   1.754 -0.0790  0.0667  1.4498
11647TIP3    H256433   6.668   2.665   1.780 -0.3248  0.7946  0.9766
11648TIP3   OH256434   0.081   0.641   5.996 -0.0954  0.4386  0.5672
11648TIP3    H156435   0.070   0.641   6.091 -1.2818  1.7828  0.4641
11648TIP3    H256436   0.075   0.733   5.971  0.8694  0.1688 -0.7587
11649TIP3   OH256437   4.595   2.997   2.335 -0.1962  0.2261 -0.4160
11649TIP3    H156438   4.500   2.993   2.342 -0.2076  0.6066 -0.3705
11649TIP3    H256439   4.627   2.939   2.405 -0.3434  2.4996  1.6647
11650TIP3   OH256440   2.133   5.941  13.932  0.2360  0.4430  0.5571
11650TIP3    H156441   2.155   6.031  13.958 -1.2660  0.5802  1.4729
11650TIP3    H256442   2.102   5.950  13.841  1.2586  0.6515  0.2190
11651TIP3   OH256443   3.761   6.707  12.083  0.2485  0.1524  0.0857
11651TIP3    H156444   3.846   6.712  12.127  0.3076  0.9608 -0.1117
11651TIP3    H256445   3.709   6.777  12.122 -0.5827 -0.7835  0.7205
11652TIP3   OH256446   4.147   0.878   4.575  0.4379 -0.4919  0.2977
11652TIP3    H156447   4.057   0.907   4.592 -0.2118 -0.7733 -2.2669
11652TIP3    H256448   4.195   0.904   4.654 -1.3580  1.9402  0.7346
11653TIP3   OH256449   2.376   1.209  11.715 -0.0047  0.3216  0.4043
11653TIP3    H156450   2.335   1.154  11.648  0.4002  0.4785  0.0235
11653TIP3    H256451   2.454   1.160  11.742 -0.2123  0.2174  0.8306
11654TIP3   OH256452   6.244   5.547  12.291  0.2395  0.1114 -0.1202
11654TIP3    H156453   6.324   5.537  12.341 -0.0629 -0.3100  0.2895
11654TIP3    H256454   6.216   5.457  12.272  0.2473  0.2575 -0.8859
11655TIP3   OH256455   6.371   4.373   3.374  0.0390 -0.0728  0.1132
11655TIP3    H156456   6.340   4.283   3.385 -2.4278  0.7254  0.2751
11655TIP3    H256457   6.299   4.418   3.329  1.0406  1.9330  0.4096
11656TIP3   OH256458   4.826   2.607   4.496 -0.4366  0.1770  0.1582
11656TIP3    H156459   4.734   2.620   4.471 -0.3339  1.0026  0.1644
11656TIP3    H256460   4.853   2.528   4.450 -0.9420  0.3458 -0.4429
11657TIP3   OH256461   4.168   4.045  14.290 -0.6286  0.1489  0.3273
11657TIP3    H156462   4.157   4.139  14.277 -0.0054  0.3432  1.1585
11657TIP3    H256463   4.250   4.037  14.338 -0.4643 -0.8486 -0.1050
11658TIP3   OH256464   3.179   5.483  14.241 -0.0226  0.1032 -0.5022
11658TIP3    H156465   3.263   5.498  14.199  0.3591  2.0130  0.8627
11658TIP3    H256466   3.117   5.534  14.189 -0.1886 -0.4961 -0.9051
11659TIP3   OH256467   4.106   3.631  15.767  0.5162 -0.5323  0.3562
11659TIP3    H156468   4.051   3.608  15.692 -0.5169  1.6355  0.3680
11659TIP3    H256469   4.075   3.575  15.838 -1.1481  0.0706  0.1335
11660TIP3   OH256470   3.763   0.532   0.528  0.3346 -0.4155 -0.2955
11660TIP3    H156471   3.796   0.608   0.480  0.8236 -0.1545  0.4444
11660TIP3    H256472   3.725   0.476   0.460  2.1632 -0.6665 -1.1771
11661TIP3   OH256473   5.766   1.388  14.269 -0.0188  1.1277 -0.1530
11661TIP3    H156474   5.846   1.427  14.303  0.0619  0.4612  0.4352
11661TIP3    H256475   5.724   1.349  14.346  0.1471 -0.3714 -0.7868
11662TIP3   OH256476   2.463   3.180   1.083 -0.7216  0.2268  0.5306
11662TIP3    H156477   2.410   3.100   1.083 -1.2019  0.5228 -0.7781
11662TIP3    H256478   2.405   3.247   1.117 -0.9610  0.3994 -0.1993
11663TIP3   OH256479   1.177   1.595  17.112 -0.0173 -0.4681  0.1177
11663TIP3    H156480   1.257   1.607  17.062 -0.7363  0.4953 -0.8473
11663TIP3    H256481   1.107   1.594  17.047 -0.8203 -1.0320  0.9565
11664TIP3   OH256482   5.874   5.374   5.746 -0.0289  0.5580 -0.2841
11664TIP3    H156483   5.928   5.302   5.713 -0.0425  0.1323  0.5848
11664TIP3    H256484   5.835   5.412   5.668 -1.2067 -1.3270 -0.6829
11665TIP3   OH256485   3.905   1.028   0.479  0.1856  0.5118 -0.4842
11665TIP3    H156486   3.815   1.057   0.496 -0.6904 -0.6268 -2.7382
11665TIP3    H256487   3.959   1.101   0.508 -1.5874  2.0035 -0.7040
11666TIP3   OH256488   1.830   6.598   4.174  0.3151  0.3436  0.0523
11666TIP3    H156489   1.738   6.569   4.180  0.0027  1.3191  0.0846
11666TIP3    H256490   1.869   6.568   4.256 -0.4183  1.4152  0.8213
11667TIP3   OH256491   3.626   5.920   0.847 -0.0933  0.0928  0.0017
11667TIP3    H156492   3.570   5.864   0.793  1.4065 -1.2931 -0.1580
11667TIP3    H256493   3.564   5.976   0.894 -1.5313 -0.1982 -1.4621
11668TIP3   OH256494   6.699   1.903   3.653 -0.2329 -0.0182 -0.0165
11668TIP3    H156495   6.758   1.932   3.583 -0.2119 -0.3477 -0.1371
11668TIP3    H256496   6.651   1.829   3.616 -1.2247  0.6894 -0.1446
11669TIP3   OH256497   3.694   6.127   5.656  0.1934  0.0539 -0.3121
11669TIP3    H156498   3.601   6.146   5.670  0.1542 -0.1489 -0.2946
11669TIP3    H256499   3.737   6.212   5.666 -0.1827  0.4848 -1.9589
11670TIP3   OH256500   2.188   4.715  13.105  0.0156 -0.4467 -0.1008
11670TIP3    H156501   2.177   4.747  13.195 -2.2527  0.0619 -0.4703
11670TIP3    H256502   2.232   4.631  13.114 -0.5263 -0.5965  1.5260
11671TIP3   OH256503   5.036   4.380  14.360 -0.0739 -0.0437 -0.1568
11671TIP3    H156504   5.035   4.394  14.455 -0.1594 -0.5602 -0.0780
11671TIP3    H256505   5.024   4.285  14.350  2.4957 -0.4051 -0.5796
11672TIP3   OH256506   3.327   2.550   5.377  0.1730  0.1010  0.6074
11672TIP3    H156507   3.301   2.464   5.408 -2.3422  0.3612 -0.4997
11672TIP3    H256508   3.406   2.571   5.426  1.3075 -3.1258  0.3264
11673TIP3   OH256509   6.458   4.018   6.018 -0.1782 -0.2276 -0.2832
11673TIP3    H156510   6.389   4.084   6.006 -0.6215 -0.9678 -2.3632
11673TIP3    H256511   6.421   3.955   6.080 -0.2623  0.7797  0.7149
11674TIP3   OH256512   2.524   2.006  12.344 -0.1956 -0.2259 -0.4953
11674TIP3    H156513   2.537   2.027  12.436 -0.3636 -1.0415 -0.2733
11674TIP3    H256514   2.566   2.077  12.296 -1.0802  0.7900  0.1997
11675TIP3   OH256515   3.686   6.297   3.944 -0.1279 -0.1753  0.1345
11675TIP3    H156516   3.723   6.209   3.941 -2.3826 -1.1646 -1.5289
11675TIP3    H256517   3.606   6.288   3.996  0.3119  1.2469  1.1384
11676TIP3   OH256518   5.611   1.846  12.426 -0.4009  0.0268  0.1696
11676TIP3    H156519   5.585   1.889  12.507 -1.1977  0.6239 -0.3767
11676TIP3    H256520   5.528   1.827  12.382  0.0278 -0.0069 -0.6424
11677TIP3   OH256521   4.566   3.764  17.286  0.0172 -0.0264 -0.7556
11677TIP3    H156522   4.600   3.691  17.338 -0.6840 -1.0884 -1.7181
11677TIP3    H256523   4.642   3.798  17.239  1.2593  2.7072  2.7923
11678TIP3   OH256524   0.216   6.721   2.420 -0.2731 -0.0616 -0.6469
11678TIP3    H156525   0.306   6.736   2.390 -0.0501  0.2256  0.1409
11678TIP3    H256526   0.211   6.627   2.437 -0.9525 -0.5819 -3.2858
11679TIP3   OH256527   4.206   5.915   4.242 -0.0414 -0.0816  0.0239
11679TIP3    H156528   4.271   5.963   4.293 -1.6148  1.2309  0.9271
11679TIP3    H256529   4.256   5.856   4.187  1.8757  0.7309  0.8256
11680TIP3   OH256530   6.784   5.303  13.499  0.8204 -0.3134  0.1454
11680TIP3    H156531   6.722   5.322  13.428  0.7564 -0.9627  0.0199
11680TIP3    H256532   6.841   5.379  13.501  0.8170 -0.2769 -0.6076
11681TIP3   OH256533   4.163   3.349   2.287  0.5802  0.1374  0.4677
11681TIP3    H156534   4.182   3.313   2.374 -1.2471  0.8249  1.2026
11681TIP3    H256535   4.097   3.290   2.251  3.3477 -1.8636 -1.7696
11682TIP3   OH256536   6.066   3.616  12.329 -0.4579 -0.2740 -0.1294
11682TIP3    H156537   6.048   3.563  12.251 -1.8484 -0.6152  0.3807
11682TIP3    H256538   6.094   3.552  12.395  0.8917  0.0344 -0.3733
11683TIP3   OH256539   2.128   4.558   5.857 -0.7253 -0.1583 -0.2365
11683TIP3    H156540   2.194   4.505   5.901 -0.8106  0.1118  0.2328
11683TIP3    H256541   2.119   4.519   5.770 -0.0371 -0.2635 -0.2640
11684TIP3   OH256542   3.103   0.161   5.292  0.7433  0.2098 -0.0915
11684TIP3    H156543   3.110   0.115   5.375  1.1324  0.1673 -0.1460
11684TIP3    H256544   3.036   0.112   5.243  0.3443  0.3780  0.2856
11685TIP3   OH256545   3.638   1.289   6.193  0.4637 -0.6305  0.2489
11685TIP3    H156546   3.652   1.225   6.263 -0.4069  0.4784  1.4670
11685TIP3    H256547   3.678   1.370   6.225 -0.5966  0.0921 -0.1871
11686TIP3   OH256548   3.496   2.365   1.965 -0.3641  0.6558  0.3687
11686TIP3    H156549   3.568   2.309   1.938 -0.2895  0.2294  1.3981
11686TIP3    H256550   3.534   2.423   2.031 -1.0450  0.1289  1.2502
11687TIP3   OH256551   0.940   0.992   5.408  0.2725 -0.2627  0.3182
11687TIP3    H156552   1.031   1.020   5.407  0.2422 -0.1244 -0.8569
11687TIP3    H256553   0.939   0.911   5.356  0.1419 -1.7740  2.5710
11688TIP3   OH256554   6.302   4.329  15.486 -0.7778  0.7443 -0.0173
11688TIP3    H156555   6.362   4.358  15.555  0.0747 -1.8045  0.4228
11688TIP3    H256556   6.314   4.392  15.415  0.5273  1.7256  1.0237
11689TIP3   OH256557   5.332   5.888   1.861 -0.2608 -0.3255  0.3939
11689TIP3    H156558   5.413   5.865   1.816 -0.7499 -0.5329 -0.3966
11689TIP3    H256559   5.287   5.805   1.875  0.5993 -0.4762  2.7369
11690TIP3   OH256560   3.694   1.628  17.159 -0.2637 -0.0820 -0.2542
11690TIP3    H156561   3.646   1.559  17.112 -2.0343  0.1602  1.0905
11690TIP3    H256562   3.765   1.582  17.203 -2.5670 -1.5209  2.2547
11691TIP3   OH256563   3.000   5.678  13.194 -0.7101 -0.5070  0.1342
11691TIP3    H156564   3.035   5.739  13.129  0.0111 -1.5868 -0.5103
11691TIP3    H256565   3.013   5.591  13.156  0.3968 -1.2220  1.9972
11692TIP3   OH256566   5.831   1.290  11.502  0.0169 -0.1375 -0.3013
11692TIP3    H156567   5.879   1.289  11.585  1.0397  0.2181 -0.8703
11692TIP3    H256568   5.860   1.210  11.457 -0.3128 -0.1810 -0.4378
11693TIP3   OH256569   0.552   6.043   0.976  0.4527  0.0313 -0.1731
11693TIP3    H156570   0.592   6.070   0.893 -0.9087  0.5805 -0.6800
11693TIP3    H256571   0.520   5.955   0.960 -0.5123  0.4258 -0.5196
11694TIP3   OH256572   0.116   3.871  10.851 -1.0554  0.0884 -0.0185
11694TIP3    H156573   0.073   3.951  10.882 -1.1080  0.0210  0.0814
11694TIP3    H256574   0.205   3.899  10.829 -0.7163 -0.0630  1.1189
11695TIP3   OH256575   3.078   4.654   3.503 -0.5880 -0.3269  0.4862
11695TIP3    H156576   3.071   4.707   3.423  0.0587 -2.0413 -0.7910
11695TIP3    H256577   3.172   4.656   3.524 -0.7028 -0.1862  0.9857
11696TIP3   OH256578   0.805   3.787  12.454  0.3807  0.6583  0.4088
11696TIP3    H156579   0.777   3.877  12.469  0.4361  0.6563  0.5281
11696TIP3    H256580   0.897   3.794  12.428  0.0442  0.7295 -0.8323
11697TIP3   OH256581   0.065   1.041   0.711 -0.3890  0.0005 -0.3807
11697TIP3    H156582  -0.023   1.004   0.711 -0.6734  0.4218 -3.3062
11697TIP3    H256583   0.057   1.120   0.765 -1.4165 -0.7453  0.6002
11698TIP3   OH256584   0.082   2.697   0.239 -0.4680  0.1274 -0.8889
11698TIP3    H156585   0.026   2.645   0.181 -1.0265  0.7345 -0.9075
11698TIP3    H256586   0.125   2.759   0.181 -0.8861  0.6136 -0.6851
11699TIP3   OH256587   2.594   1.513  12.267 -0.3348  0.0943  0.3282
11699TIP3    H156588   2.581   1.469  12.183 -1.0266  0.1513  0.3952
11699TIP3    H256589   2.591   1.443  12.332  0.1014  0.0617  0.3139
11700TIP3   OH256590   5.821   1.645  12.549  0.7478  0.2262  0.3155
11700TIP3    H156591   5.862   1.705  12.612 -0.1126  2.0683 -0.8213
11700TIP3    H256592   5.771   1.701  12.491 -0.1568 -1.6262 -0.7816
11701TIP3   OH256593   3.298   5.457   3.486 -0.5442  0.2613  0.3373
11701TIP3    H156594   3.329   5.544   3.512 -0.2855 -0.1281  1.3997
11701TIP3    H256595   3.255   5.470   3.402  2.0671  0.9332 -1.0000
11702TIP3   OH256596   1.607   5.514   6.472  0.0205  0.8657 -0.7440
11702TIP3    H156597   1.564   5.591   6.437  2.0816  2.3690 -0.1641
11702TIP3    H256598   1.543   5.475   6.531 -0.3475  3.4439  0.7013
11703TIP3   OH256599   5.634   3.879  15.922 -0.2114 -0.2321  0.5027
11703TIP3    H156600   5.595   3.855  16.006 -1.1453  2.6516  0.9983
11703TIP3    H256601   5.567   3.931  15.879  1.1307  0.3144 -1.0105
11704TIP3   OH256602   4.078   1.592  17.254  0.1770 -0.5434  0.2100
11704TIP3    H156603   4.147   1.579  17.320  1.0602  0.7145 -0.4190
11704TIP3    H256604   4.119   1.647  17.188 -2.0709  2.1355  0.8565
11705TIP3   OH256605   2.221   5.284   0.359  0.0886  0.0342  0.0496
11705TIP3    H156606   2.267   5.351   0.409 -0.0003  2.1091 -2.4495
11705TIP3    H256607   2.280   5.262   0.288 -0.6934 -1.1352 -0.2733
11706TIP3   OH256608   1.546   0.715   3.821 -0.5368 -0.6037 -0.0720
11706TIP3    H156609   1.495   0.666   3.757  0.5574 -1.5644 -0.2513
11706TIP3    H256610   1.488   0.726   3.896 -2.4908  2.1037 -1.8141
11707TIP3   OH256611   3.389   1.115  15.743  0.4008 -0.4625  0.3220
11707TIP3    H156612   3.417   1.027  15.768  1.3313 -0.5404 -0.9241
11707TIP3    H256613   3.354   1.105  15.655 -1.7040  0.0262  1.0309
11708TIP3   OH256614   0.843   4.272  13.841  0.7280  0.6358 -0.0217
11708TIP3    H156615   0.757   4.279  13.883  0.6333 -1.5506  0.2620
11708TIP3    H256616   0.846   4.345  13.780 -1.8312  0.1017 -0.8994
11709TIP3   OH256617   6.080   4.452  16.881 -0.2538 -0.0870  0.1605
11709TIP3    H156618   6.056   4.365  16.913  1.4023 -0.5008  0.3424
11709TIP3    H256619   6.158   4.438  16.827 -0.6057  1.1475 -0.7254
11710TIP3   OH256620   1.963   2.360   5.157  0.4080  0.5409 -0.3464
11710TIP3    H156621   1.924   2.445   5.133  0.9263  0.9772  0.3480
11710TIP3    H256622   2.044   2.382   5.203  0.6085 -0.3374 -0.2577
11711TIP3   OH256623   2.366   1.505   4.495  0.5823  0.4271 -0.4429
11711TIP3    H156624   2.446   1.480   4.542 -0.1263 -1.0644  0.0031
11711TIP3    H256625   2.382   1.479   4.404 -0.7787 -3.5025  0.2735
11712TIP3   OH256626   5.326   5.929   3.622 -0.0575  0.3766 -0.2976
11712TIP3    H156627   5.240   5.945   3.582 -0.7700  0.2441  1.1121
11712TIP3    H256628   5.312   5.853   3.679  1.3533 -0.4957 -1.0719
11713TIP3   OH256629   3.593   4.548  11.584  0.5003  0.8762  0.3080
11713TIP3    H156630   3.676   4.588  11.558 -0.7527  1.2794 -3.5820
11713TIP3    H256631   3.608   4.454  11.575  0.6601  0.9265  0.0401
11714TIP3   OH256632   2.059   3.779  13.757 -0.3940  0.5872 -0.2410
11714TIP3    H156633   2.114   3.830  13.817 -1.0732  0.2734  0.6623
11714TIP3    H256634   1.983   3.836  13.740 -0.2196  0.6664 -0.8080
11715TIP3   OH256635   3.906   4.365  11.923 -0.5211 -0.2083 -0.4144
11715TIP3    H156636   3.855   4.339  11.846  0.6350 -2.3417 -0.5536
11715TIP3    H256637   3.997   4.346  11.898 -0.1757 -1.6732  1.7010
11716TIP3   OH256638   6.294   2.377  16.208 -0.6562  0.3748  0.3429
11716TIP3    H156639   6.257   2.393  16.295 -0.8772  2.2292 -0.0329
11716TIP3    H256640   6.387   2.362  16.223 -0.9278 -0.6857  1.0054
11717TIP3   OH256641   5.456   6.572  15.200  0.1724  0.6780  0.3460
11717TIP3    H156642   5.519   6.603  15.265 -1.1803  0.4123  1.8524
11717TIP3    H256643   5.439   6.482  15.225 -3.1071  1.6146  1.9574
11718TIP3   OH256644   4.784   6.122  14.992  0.3405  0.3547  0.3864
11718TIP3    H156645   4.775   6.139  14.898  0.6101 -2.8551 -0.3396
11718TIP3    H256646   4.869   6.160  15.015  0.8625  0.0804 -0.9815
11719TIP3   OH256647   0.558   2.419   2.403 -0.2076  0.1815 -0.1074
11719TIP3    H156648   0.626   2.424   2.471 -0.5818 -0.4558  0.3290
11719TIP3    H256649   0.575   2.494   2.346  1.7769 -0.7649 -0.8726
11720TIP3   OH256650   2.305   6.224  11.266 -0.6153  0.0892 -1.2125
11720TIP3    H156651   2.345   6.279  11.199  1.3648 -0.5026 -0.5737
11720TIP3    H256652   2.360   6.236  11.343 -1.7759 -0.6674 -0.2278
11721TIP3   OH256653   5.144   4.556  14.689 -0.4987 -0.1700  0.3215
11721TIP3    H156654   5.190   4.474  14.672  0.9385  0.3721  1.3718
11721TIP3    H256655   5.060   4.546  14.645  0.7317 -1.0865 -2.0163
11722TIP3   OH256656   1.683   4.134  13.796  0.2348  0.2096 -0.0031
11722TIP3    H156657   1.637   4.113  13.877  1.8437  0.2091  0.9405
11722TIP3    H256658   1.613   4.154  13.733 -1.1064 -1.2348  0.9488
11723TIP3   OH256659   6.164   2.171  12.133  0.1560  0.4704 -0.0849
11723TIP3    H156660   6.110   2.096  12.108  0.6777  0.2565 -0.5836
11723TIP3    H256661   6.105   2.247  12.126 -0.6066  0.0375  1.1967
11724TIP3   OH256662   6.432   2.836   1.132 -0.0019  0.5320 -0.2078
11724TIP3    H156663   6.423   2.742   1.115  1.6946  0.2314  0.3122
11724TIP3    H256664   6.446   2.874   1.045 -0.5294  0.2763 -0.4063
11725TIP3   OH256665   3.473   2.849   4.148 -0.1652  0.3308  0.0382
11725TIP3    H156666   3.558   2.805   4.158 -1.1160 -1.5020  0.6533
11725TIP3    H256667   3.454   2.885   4.235 -0.0721  0.5920 -0.0525
11726TIP3   OH256668   3.446   4.738  13.341  0.3595  0.0079 -0.4625
11726TIP3    H156669   3.524   4.683  13.351  1.5247  1.4267 -1.4507
11726TIP3    H256670   3.398   4.697  13.269  0.8310 -0.1526 -0.6923
11727TIP3   OH256671   0.253   6.354  17.013 -0.0645  0.1391  0.4639
11727TIP3    H156672   0.165   6.370  17.046 -0.3882 -0.6966  0.0290
11727TIP3    H256673   0.281   6.438  16.978 -0.8567  0.3155  0.2326
11728TIP3   OH256674   5.474   1.113  16.030 -0.6326  0.0646 -0.0257
11728TIP3    H156675   5.565   1.144  16.032 -0.3240 -0.8182  1.7617
11728TIP3    H256676   5.422   1.192  16.016  0.3138  0.9010  0.9559
11729TIP3   OH256677   2.469   1.211  14.449  0.1741  0.0056  0.2057
11729TIP3    H156678   2.465   1.116  14.433  0.4834  0.1156 -0.5765
11729TIP3    H256679   2.552   1.238  14.410  0.1130  0.5930  0.4747
11730TIP3   OH256680   2.262   4.959   3.539 -0.0191  0.1244 -0.4243
11730TIP3    H156681   2.217   4.903   3.603  1.2302  0.5812  0.8849
11730TIP3    H256682   2.279   4.900   3.465  0.6577 -1.0883  0.6449
11731TIP3   OH256683   1.919   4.401  13.283  0.0357 -0.3905 -0.0578
11731TIP3    H156684   1.837   4.436  13.318  0.8455  1.8278 -0.2338
11731TIP3    H256685   1.926   4.439  13.195  1.4574 -0.1493  0.1309
11732TIP3   OH256686   3.532   0.802   0.340 -0.1202  0.2117  0.0003
11732TIP3    H156687   3.617   0.838   0.365 -0.8843  0.5065  2.5542
11732TIP3    H256688   3.523   0.822   0.247  2.2603  0.8071 -0.1652
11733TIP3   OH256689   0.539   4.822  12.447  0.1119  0.0743  0.4128
11733TIP3    H156690   0.514   4.904  12.405  0.5496  0.9234  1.7351
11733TIP3    H256691   0.626   4.840  12.484  1.2410 -1.7224 -1.2055
11734TIP3   OH256692   6.150   5.279   4.744 -0.5793 -0.1086 -0.4999
11734TIP3    H156693   6.124   5.234   4.663 -0.4913  0.1132 -0.6537
11734TIP3    H256694   6.238   5.247   4.762 -1.4470 -1.9446  0.8009
11735TIP3   OH256695   6.190   5.482  14.930 -0.9735  0.5097  0.1073
11735TIP3    H156696   6.223   5.571  14.918  0.0872  0.3167  1.3644
11735TIP3    H256697   6.263   5.436  14.972 -2.4426 -0.2705  1.9076
11736TIP3   OH256698   5.515   5.106  15.986 -0.3743  0.3323 -0.5029
11736TIP3    H156699   5.504   5.164  15.910  0.8427  0.9996 -0.1943
11736TIP3    H256700   5.425   5.091  16.017 -0.8607  0.3848 -1.8054
11737TIP3   OH256701   0.255   2.365  12.799  0.5946  1.1373 -0.4780
11737TIP3    H156702   0.343   2.400  12.785  1.0241 -0.2907 -1.5571
11737TIP3    H256703   0.267   2.270  12.807 -0.9621  0.7186 -2.1884
11738TIP3   OH256704   5.999   4.824  11.872 -0.2611 -0.0770 -0.3525
11738TIP3    H156705   6.037   4.828  11.960  3.3012  1.2130 -1.7738
11738TIP3    H256706   5.943   4.747  11.873  1.3277 -1.3213  2.4432
11739TIP3   OH256707   4.128   4.416  15.365 -0.5227 -0.1577 -0.5291
11739TIP3    H156708   4.181   4.495  15.368 -1.8202  0.7649 -0.7943
11739TIP3    H256709   4.155   4.372  15.284 -0.0156  0.1817 -0.5470
11740TIP3   OH256710   1.359   5.263  14.762 -0.3683  0.2689 -0.6055
11740TIP3    H156711   1.366   5.201  14.689 -0.3417  0.4270 -0.7360
11740TIP3    H256712   1.415   5.226  14.830  0.6373  0.8010 -1.1346
11741TIP3   OH256713   6.428   1.870   5.339 -0.3989  0.7879  0.2785
11741TIP3    H156714   6.514   1.827   5.348  0.5676  2.4323 -0.6988
11741TIP3    H256715   6.448   1.956   5.302 -2.3905  1.6219  1.0303
11742TIP3   OH256716   1.933   0.522   6.458 -0.4951 -0.2633 -0.1963
11742TIP3    H156717   1.928   0.428   6.474 -0.2099 -0.2228  0.1559
11742TIP3    H256718   1.844   0.554   6.478  0.0839 -0.0560  2.5170
11743TIP3   OH256719   0.188   0.840   4.551 -0.1050  0.4365 -0.2532
11743TIP3    H156720   0.184   0.852   4.646  0.7736  1.0164 -0.2767
11743TIP3    H256721   0.142   0.758   4.535 -0.6804  0.5718  0.6237
11744TIP3   OH256722   6.644   0.837  15.486 -0.3016 -0.4925  0.1773
11744TIP3    H156723   6.565   0.788  15.508 -1.0499 -0.3485 -1.9739
11744TIP3    H256724   6.715   0.773  15.494 -0.5886 -0.6211  2.1227
11745TIP3   OH256725   6.595   5.267   1.122 -0.1497  0.3880  0.0827
11745TIP3    H156726   6.520   5.243   1.068  0.5524 -0.3728 -0.5858
11745TIP3    H256727   6.659   5.198   1.105  0.1535  0.2075  1.7810
11746TIP3   OH256728   0.627   4.436  13.454  0.1831  0.1958 -0.2555
11746TIP3    H156729   0.685   4.361  13.440 -0.5672 -0.4187 -0.1539
11746TIP3    H256730   0.636   4.488  13.374  0.2009 -0.3528 -0.6138
11747TIP3   OH256731   2.354   3.390   0.338  0.3716  0.5809 -0.1369
11747TIP3    H156732   2.301   3.469   0.329 -0.3851  0.0546 -0.4588
11747TIP3    H256733   2.424   3.400   0.274 -0.0659  0.7315 -0.6048
11748TIP3   OH256734   0.229   5.935   4.707  0.4329  0.3241  0.0750
11748TIP3    H156735   0.322   5.912   4.712  0.7551  0.6147 -2.9412
11748TIP3    H256736   0.196   5.918   4.795  2.8971 -1.6955  0.7379
11749TIP3   OH256737   4.265   4.506  11.290 -0.5019  0.2355 -0.3185
11749TIP3    H156738   4.258   4.601  11.282  4.1700  0.8163 -0.2029
11749TIP3    H256739   4.249   4.473  11.202  1.2489  1.5854 -1.2063
11750TIP3   OH256740   5.929   0.938   5.116 -0.3611  0.0367 -0.3961
11750TIP3    H156741   6.014   0.898   5.136 -0.9319 -0.6758  0.6815
11750TIP3    H256742   5.865   0.871   5.139 -1.2175  0.4315 -1.5260
11751TIP3   OH256743   4.932   6.541  16.724  0.6041  0.1593 -0.0978
11751TIP3    H156744   4.852   6.560  16.676  0.7396 -0.0328 -0.4003
11751TIP3    H256745   4.985   6.490  16.663  0.5052 -0.6606  0.4734
11752TIP3   OH256746   3.789   2.396  14.751 -0.2186 -0.4876  0.4150
11752TIP3    H156747   3.760   2.311  14.718  1.2038 -0.4123 -1.1348
11752TIP3    H256748   3.710   2.451  14.750 -1.6698 -2.2193  3.3206
11753TIP3   OH256749   3.145   3.717   6.239 -0.6332 -0.5044 -0.4909
11753TIP3    H156750   3.132   3.628   6.271  0.9221 -1.4942 -2.3967
11753TIP3    H256751   3.058   3.744   6.207 -0.8139 -1.9529 -1.3070
11754TIP3   OH256752   6.485   5.392   1.668  0.3132  0.4588  0.0802
11754TIP3    H156753   6.391   5.405   1.677 -0.1672 -2.5958  0.3219
11754TIP3    H256754   6.498   5.373   1.575  0.4183 -0.6970  0.3137
11755TIP3   OH256755   6.041   2.896  16.496  0.2799 -0.3231 -0.2290
11755TIP3    H156756   6.052   2.884  16.402 -1.3294  0.0667 -0.4916
11755TIP3    H256757   6.116   2.850  16.535 -0.5133 -2.9871 -1.5767
11756TIP3   OH256758   0.130   1.383   1.693 -0.3685  0.0564 -0.0727
11756TIP3    H156759   0.220   1.376   1.661 -0.2104  2.1465 -0.2216
11756TIP3    H256760   0.136   1.359   1.786  0.1776 -0.5642 -0.2532
11757TIP3   OH256761   5.486   6.532  13.137  0.2597 -0.1407 -0.0590
11757TIP3    H156762   5.521   6.577  13.214  1.6525 -1.5809  0.1967
11757TIP3    H256763   5.511   6.589  13.064  0.5544  0.3257  0.3950
11758TIP3   OH256764   4.463   5.354   1.171 -0.5543  0.3973  0.3565
11758TIP3    H156765   4.498   5.433   1.129  1.0147  0.1133  1.0906
11758TIP3    H256766   4.479   5.367   1.264 -2.7598  0.3940  0.7866
11759TIP3   OH256767   4.362   1.828   0.540 -0.1708  0.0653  0.0027
11759TIP3    H156768   4.417   1.883   0.485 -0.1670 -0.3219 -0.3849
11759TIP3    H256769   4.377   1.860   0.629  1.1510 -0.4140 -0.0207
11760TIP3   OH256770   3.008   1.676  14.305 -0.1142  0.0091 -0.9020
11760TIP3    H156771   2.928   1.637  14.340  0.4885 -0.5883 -0.1613
11760TIP3    H256772   3.074   1.607  14.311  0.9462  1.0746  0.3345
11761TIP3   OH256773   5.069   2.032  13.636  0.0670 -0.1806 -0.6441
11761TIP3    H156774   5.103   2.117  13.609 -2.1717  0.9214 -0.2609
11761TIP3    H256775   5.144   1.973  13.632  1.6074  1.7294 -1.2562
11762TIP3   OH256776   2.382   1.514  12.727  0.2153  0.7182  0.3851
11762TIP3    H156777   2.367   1.592  12.782 -1.6874  1.4242 -1.0226
11762TIP3    H256778   2.394   1.443  12.790  0.5990  1.8993  1.7153
11763TIP3   OH256779   2.397   5.852   4.462  0.0623  0.1461  0.4113
11763TIP3    H156780   2.439   5.918   4.518  0.6106  0.5847 -0.4998
11763TIP3    H256781   2.460   5.780   4.460  0.7046  0.7169 -0.7817
11764TIP3   OH256782   2.843   5.769   4.473  0.3826  0.3879 -0.5877
11764TIP3    H156783   2.862   5.773   4.567  2.1171  0.3613 -0.9025
11764TIP3    H256784   2.875   5.852   4.439  1.7834 -0.4568 -1.4453
11765TIP3   OH256785   2.415   5.347  11.943 -0.1497 -0.2768  0.0147
11765TIP3    H156786   2.453   5.363  12.029  0.5695 -2.5472  0.1876
11765TIP3    H256787   2.365   5.265  11.954  1.4936 -1.6793 -2.1183
11766TIP3   OH256788   2.321   6.347   4.189 -0.5208 -0.3115 -0.5417
11766TIP3    H156789   2.247   6.374   4.134 -0.3524  1.5684  0.0773
11766TIP3    H256790   2.362   6.430   4.216  1.6604 -1.2984 -0.6335
11767TIP3   OH256791   2.429   2.517   1.782 -0.4934  0.1366 -0.0140
11767TIP3    H156792   2.376   2.554   1.711 -0.0067 -0.8273 -0.9036
11767TIP3    H256793   2.480   2.447   1.741  0.7609  0.3957  1.0221
11768TIP3   OH256794   6.647   3.972   2.173 -0.3192  0.0473 -0.0257
11768TIP3    H156795   6.720   3.931   2.219 -1.1329 -0.4135  0.8869
11768TIP3    H256796   6.594   3.898   2.142  0.7299  0.2809 -2.6698
11769TIP3   OH256797   6.355   3.479  12.558 -0.3871  0.5362 -0.3392
11769TIP3    H156798   6.399   3.469  12.643 -0.8085  1.2929 -0.0173
11769TIP3    H256799   6.319   3.392  12.539  1.9021 -0.3372 -1.0141
11770TIP3   OH256800   2.708   1.190   2.269  0.3630 -0.5046 -0.0663
11770TIP3    H156801   2.781   1.211   2.211  1.9538 -0.2329  1.9334
11770TIP3    H256802   2.718   1.096   2.286  0.5939 -0.3575  0.6379
11771TIP3   OH256803   5.101   3.513   5.171 -0.1340 -0.4480 -0.1809
11771TIP3    H156804   5.136   3.539   5.086  2.1349  0.0966  0.8479
11771TIP3    H256805   5.100   3.593   5.223 -1.2670 -0.8177  0.4155
11772TIP3   OH256806   6.055   6.680   3.809  0.5116 -0.2676 -0.0175
11772TIP3    H156807   6.146   6.698   3.788  0.3264  0.5668 -0.1607
11772TIP3    H256808   6.005   6.728   3.742 -0.0434  0.3039  0.7894
11773TIP3   OH256809   0.710   5.956  14.758  0.2564 -0.3655  0.8036
11773TIP3    H156810   0.644   6.000  14.705  0.5036 -1.9000 -0.8492
11773TIP3    H256811   0.693   5.987  14.847 -0.3933  2.0308 -0.0693
11774TIP3   OH256812   2.969   1.149   0.747 -0.2632  0.1725 -0.3507
11774TIP3    H156813   2.932   1.179   0.830  1.0263  0.2780  0.2060
11774TIP3    H256814   3.058   1.183   0.746  0.1431 -0.8416 -1.2313
11775TIP3   OH256815   4.769   1.610  15.050 -0.6997 -0.2541 -0.1263
11775TIP3    H156816   4.793   1.703  15.050 -2.2863  0.2555  2.3967
11775TIP3    H256817   4.700   1.603  15.116 -0.0809 -3.3881  0.3575
11776TIP3   OH256818   3.590   4.589  17.049  0.3379  0.1366 -0.2892
11776TIP3    H156819   3.597   4.499  17.017  1.4870  0.5437 -1.2673
11776TIP3    H256820   3.535   4.583  17.127 -0.4783 -1.2526 -0.9386
11777TIP3   OH256821   3.826   1.955   1.856  0.3991  0.6297 -0.1996
11777TIP3    H156822   3.850   1.945   1.764  1.0975  0.5930 -0.0195
11777TIP3    H256823   3.731   1.967   1.855  0.2245 -0.6210 -0.8244
11778TIP3   OH256824   6.124   2.325   2.963  0.3910  0.1283 -0.3274
11778TIP3    H156825   6.174   2.356   3.038  0.8026 -1.1225 -0.0713
11778TIP3    H256826   6.189   2.287   2.904  0.3395  2.6622 -2.1973
11779TIP3   OH256827   0.923   4.920   4.097  0.2085  0.5398  0.9424
11779TIP3    H156828   0.998   4.921   4.038 -1.9171 -1.3851 -2.0605
11779TIP3    H256829   0.961   4.912   4.184  3.4878 -2.6443 -0.5639
11780TIP3   OH256830   4.907   3.128  15.628  0.0489 -0.4716 -0.1961
11780TIP3    H156831   4.928   3.036  15.613  0.1326 -0.5164  0.1846
11780TIP3    H256832   4.983   3.163  15.674  2.5726  1.1817 -5.0027
11781TIP3   OH256833   4.443   2.205   1.803  0.3602 -0.4003  0.6219
11781TIP3    H156834   4.460   2.116   1.773 -1.5635  0.0452 -2.2418
11781TIP3    H256835   4.373   2.196   1.867 -0.3173 -0.9667 -0.1637
11782TIP3   OH256836   3.206   3.187   5.832  0.9109 -0.1119  0.2516
11782TIP3    H156837   3.160   3.118   5.879 -0.7457  0.9069  0.1977
11782TIP3    H256838   3.170   3.183   5.743  1.9080 -0.1423 -0.1673
11783TIP3   OH256839   4.745   2.283  13.738  0.1721 -0.1258  0.5383
11783TIP3    H156840   4.816   2.291  13.801 -0.1332 -0.8861  0.9824
11783TIP3    H256841   4.787   2.300  13.653  0.8766 -0.5191  0.7970
11784TIP3   OH256842   2.336   1.686   5.187 -0.4377 -0.0448 -0.2533
11784TIP3    H156843   2.372   1.643   5.265  1.0548  0.6067 -0.5540
11784TIP3    H256844   2.243   1.697   5.207 -0.0157  0.4976  1.6299
11785TIP3   OH256845   0.881   4.560   1.341 -0.0649  0.2823  0.2602
11785TIP3    H156846   0.804   4.557   1.284 -0.7106 -0.2546  1.1211
11785TIP3    H256847   0.879   4.648   1.379 -0.7739 -0.0107  0.9400
11786TIP3   OH256848   6.261   3.280   0.358 -0.5335 -0.0692  0.2450
11786TIP3    H156849   6.217   3.338   0.296 -0.0007 -0.3213 -0.3711
11786TIP3    H256850   6.191   3.252   0.417 -1.1948 -0.4116 -0.6773
11787TIP3   OH256851   1.674   0.941  13.476 -0.1920  0.2496 -0.0744
11787TIP3    H156852   1.769   0.931  13.482  0.0871  2.1628 -0.3764
11787TIP3    H256853   1.651   0.900  13.392  0.5236  0.5976 -0.4522
11788TIP3   OH256854   4.120   5.275   2.150 -0.2220 -0.0606 -0.5628
11788TIP3    H156855   4.068   5.214   2.202  0.7318 -1.3974 -1.1025
11788TIP3    H256856   4.117   5.239   2.061  1.0802  0.1747 -0.7225
11789TIP3   OH256857   3.181   1.379   5.281 -0.5134  0.3622 -0.2066
11789TIP3    H156858   3.103   1.405   5.329  0.6049 -1.3808  2.8402
11789TIP3    H256859   3.236   1.457   5.280 -1.7010  1.2063 -1.1584
11790TIP3   OH256860   2.197   2.304   3.855  0.1888  0.5063  0.4808
11790TIP3    H156861   2.178   2.210   3.861 -0.7525  0.6505 -0.1147
11790TIP3    H256862   2.134   2.338   3.792  0.3554  1.5911  0.8714
11791TIP3   OH256863   4.674   2.396   3.725  0.8112 -0.2003  0.0978
11791TIP3    H156864   4.588   2.435   3.742  1.3177  0.7634  0.5144
11791TIP3    H256865   4.724   2.466   3.684  1.1815 -0.9802 -0.8142
11792TIP3   OH256866   1.417   3.726  13.743  0.0927 -0.3027 -0.0363
11792TIP3    H156867   1.343   3.680  13.783 -0.0760  0.3436  0.4177
11792TIP3    H256868   1.408   3.816  13.773  0.4993 -0.0032 -0.7955
11793TIP3   OH256869   4.431   3.644  14.785 -0.2701  0.2026 -0.4613
11793TIP3    H156870   4.402   3.660  14.695  1.3137  0.0561 -1.0386
11793TIP3    H256871   4.497   3.574  14.777 -1.9577 -1.6999  1.1502
11794TIP3   OH256872   5.719   4.294   0.949 -0.2185  0.6789  0.0696
11794TIP3    H156873   5.782   4.226   0.925 -0.1897  0.4044  0.8856
11794TIP3    H256874   5.690   4.270   1.037  0.6169  2.2985  0.8467
11795TIP3   OH256875   1.451   0.450  16.605  0.2456  0.1956  0.0208
11795TIP3    H156876   1.442   0.545  16.598  2.5520  0.5395  0.5820
11795TIP3    H256877   1.498   0.437  16.688  1.2577 -1.3103 -0.7316
11796TIP3   OH256878   1.537   0.466   0.855 -0.4278 -0.3041  0.5407
11796TIP3    H156879   1.477   0.530   0.895 -0.8977  0.0494 -0.6942
11796TIP3    H256880   1.494   0.440   0.774  0.9926 -0.1868 -0.2914
11797TIP3   OH256881   6.666   4.859  16.792 -0.0484  0.3709  0.7813
11797TIP3    H156882   6.650   4.920  16.864  1.1103  1.7943 -0.1302
11797TIP3    H256883   6.657   4.911  16.713 -0.3447 -0.9519 -0.0941
11798TIP3   OH256884   2.576   2.775   3.064  0.0481 -0.1803 -0.1951
11798TIP3    H156885   2.644   2.796   3.128  1.7173  0.4568 -2.0825
11798TIP3    H256886   2.546   2.687   3.088  2.7750 -1.2256 -0.2879
11799TIP3   OH256887   4.168   1.568   4.320  0.5222  0.2745 -0.0737
11799TIP3    H156888   4.078   1.595   4.303  0.5298  0.6903  0.5015
11799TIP3    H256889   4.163   1.474   4.337  0.1970  0.2960 -0.0487
11800TIP3   OH256890   3.628   5.276   5.141  0.6344  0.2785  0.3716
11800TIP3    H156891   3.592   5.187   5.130  1.5297 -0.0869  0.3524
11800TIP3    H256892   3.554   5.327   5.175 -0.3079 -0.1264 -0.9760
11801TIP3   OH256893   5.144   3.625  14.321  0.4534  0.3726 -0.0097
11801TIP3    H156894   5.224   3.676  14.310  1.1279 -0.7368 -0.4407
11801TIP3    H256895   5.160   3.573  14.400  0.7303 -0.8172 -0.8171
11802TIP3   OH256896   2.321   2.826   3.140  0.1849 -0.4992 -0.0260
11802TIP3    H156897   2.402   2.813   3.091  0.2724 -1.3266  0.3248
11802TIP3    H256898   2.349   2.834   3.231 -0.0211  0.5632 -0.0376
11803TIP3   OH256899   5.008   2.816  17.159 -0.8007  0.4732  0.4644
11803TIP3    H156900   4.931   2.760  17.161  0.0782 -0.8159  0.1831
11803TIP3    H256901   5.029   2.825  17.066 -0.5366  0.6952  0.5433
11804TIP3   OH256902   0.057   4.911   4.925 -0.1731 -0.1910 -0.1790
11804TIP3    H156903   0.053   4.947   5.014  0.5749 -1.7133  0.5026
11804TIP3    H256904   0.149   4.918   4.901 -0.2169 -0.5988 -0.4720
11805TIP3   OH256905   6.680   4.962   3.777  0.4939 -0.1016  0.2344
11805TIP3    H156906   6.773   4.948   3.794  0.6506  0.6808  0.0959
11805TIP3    H256907   6.668   5.057   3.785  0.0688  0.0315 -1.4239
11806TIP3   OH256908   6.736   4.837   1.340 -0.3249  0.7379 -0.0782
11806TIP3    H156909   6.800   4.766   1.341  0.3481  1.2794 -1.5987
11806TIP3    H256910   6.779   4.909   1.386  0.3796  1.2378 -1.4521
11807TIP3   OH256911   6.406   3.648   5.140 -0.1618  0.5261 -0.2264
11807TIP3    H156912   6.392   3.667   5.047  0.2571  0.2379 -0.3536
11807TIP3    H256913   6.389   3.731   5.184 -0.1312  0.7280 -0.5871
11808TIP3   OH256914   1.897   6.019  15.364  0.9458 -0.1646  0.0462
11808TIP3    H156915   1.969   6.080  15.347 -0.8315  1.4238 -2.3907
11808TIP3    H256916   1.907   5.951  15.297 -0.1196  0.3726 -0.6698
11809TIP3   OH256917   1.352   5.069   2.977  0.0409 -0.3486  0.1975
11809TIP3    H156918   1.377   5.157   2.947 -1.7791 -0.3000 -1.3792
11809TIP3    H256919   1.385   5.010   2.910  0.0071 -0.7227  0.5065
11810TIP3   OH256920   2.120   6.482  10.651  0.2583  0.4718  0.4676
11810TIP3    H156921   2.130   6.390  10.628  1.9577  0.9425 -0.8603
11810TIP3    H256922   2.137   6.486  10.745 -0.0903 -0.5898  0.5826
11811TIP3   OH256923   5.970   5.487  13.447 -0.1187  0.8053 -0.1300
11811TIP3    H156924   5.947   5.425  13.377 -0.4949  0.0793  0.6253
11811TIP3    H256925   5.960   5.573  13.406 -0.7470  0.4052 -0.8541
11812TIP3   OH256926   5.480   6.389   5.332  0.1043  0.2074 -0.6788
11812TIP3    H156927   5.526   6.433   5.260 -0.8800  1.2361 -0.7121
11812TIP3    H256928   5.393   6.429   5.333  0.2558  0.6208  1.4350
11813TIP3   OH256929   6.378   2.974  10.676 -0.1167  0.2015  0.2589
11813TIP3    H156930   6.337   3.059  10.693 -0.7131 -0.0902  0.3194
11813TIP3    H256931   6.433   2.958  10.753  0.0638  0.5662  0.2109
11814TIP3   OH256932   4.984   1.505  11.265  0.4994 -0.7291 -0.0214
11814TIP3    H156933   4.957   1.475  11.352 -1.4342  1.7989  0.3575
11814TIP3    H256934   4.903   1.509  11.215  1.1048  0.8228 -0.9474
11815TIP3   OH256935   5.658   2.686   5.538  0.1769  0.0508  0.7906
11815TIP3    H156936   5.711   2.625   5.487  0.7998 -0.4410  1.9764
11815TIP3    H256937   5.665   2.769   5.490  1.1600 -0.2645  0.3469
11816TIP3   OH256938   0.815   5.605   1.046 -0.4837 -0.3055  0.1756
11816TIP3    H156939   0.795   5.640   0.959  0.0583  1.4048  0.6814
11816TIP3    H256940   0.819   5.683   1.102  1.1159 -1.1798  1.3527
11817TIP3   OH256941   2.838   2.189  14.554 -0.2526 -0.0624 -0.0291
11817TIP3    H156942   2.808   2.171  14.465  1.7285  0.8813 -0.9414
11817TIP3    H256943   2.926   2.151  14.558 -0.8940 -1.5497  2.1043
11818TIP3   OH256944   2.655   4.807   3.249 -0.5123 -0.0075 -0.4040
11818TIP3    H156945   2.618   4.813   3.161 -0.7304 -1.2679 -0.4224
11818TIP3    H256946   2.671   4.713   3.262  0.4010  0.2574  0.5399
11819TIP3   OH256947   1.222   5.873  12.837  0.3713 -0.0831 -0.1362
11819TIP3    H156948   1.230   5.967  12.854  1.9344 -0.2882  0.4854
11819TIP3    H256949   1.175   5.867  12.754  1.4888  1.3042 -0.9130
11820TIP3   OH256950   6.737   3.552   2.191  0.5208  0.1434 -0.2623
11820TIP3    H156951   6.708   3.461   2.202 -2.1159  0.6803 -2.0831
11820TIP3    H256952   6.778   3.574   2.275 -1.1704 -1.8923  1.1929
11821TIP3   OH256953   2.693   0.822  12.786 -0.3285 -0.1697  0.0306
11821TIP3    H156954   2.712   0.861  12.700  2.1688 -0.6557  0.2947
11821TIP3    H256955   2.720   0.889  12.849 -1.3052 -0.1706  0.4676
11822TIP3   OH256956   6.753   1.027  11.995 -0.2617  0.3778 -0.3236
11822TIP3    H156957   6.724   1.048  11.906 -0.8039 -1.1460 -0.5447
11822TIP3    H256958   6.754   0.931  11.997  0.5947  0.3981  1.0508
11823TIP3   OH256959   0.589   3.561  11.720  0.3765  0.5456 -0.4456
11823TIP3    H156960   0.621   3.506  11.791  1.1907  3.0921  1.2738
11823TIP3    H256961   0.668   3.590  11.674 -0.0432  0.2552 -1.3808
11824TIP3   OH256962   0.736   6.682  16.729  0.1054  0.4152  0.1728
11824TIP3    H156963   0.689   6.636  16.799 -0.2629  0.2103 -0.2095
11824TIP3    H256964   0.679   6.754  16.705  1.8564  2.8570  2.7020
11825TIP3   OH256965   0.238   2.765   2.332 -0.1866  0.0295  0.0685
11825TIP3    H156966   0.316   2.771   2.277 -0.2168 -0.4520 -0.0288
11825TIP3    H256967   0.169   2.806   2.280 -0.3464 -0.9344 -0.5052
11826TIP3   OH256968   3.520   1.766  13.019  0.1351 -0.0132 -0.1213
11826TIP3    H156969   3.594   1.739  12.964  0.5838  0.5807  0.1819
11826TIP3    H256970   3.445   1.723  12.980  0.3146  1.0213 -1.6901
11827TIP3   OH256971   3.885   6.139   3.788 -0.1097 -0.3826  0.3857
11827TIP3    H156972   3.929   6.090   3.857 -0.0631 -1.8333 -0.6094
11827TIP3    H256973   3.864   6.072   3.722 -0.7344  0.8426 -0.6962
11828TIP3   OH256974   2.388   2.457  10.740  0.2743  0.3828 -0.7172
11828TIP3    H156975   2.414   2.500  10.822 -1.7793 -1.0655  0.8131
11828TIP3    H256976   2.427   2.370  10.745  1.7646  0.9149 -2.2736
11829TIP3   OH256977   5.833   2.701  15.748 -0.9125 -0.3110  0.3440
11829TIP3    H156978   5.790   2.781  15.720  1.7036  1.3855  0.7832
11829TIP3    H256979   5.892   2.679  15.676  0.1116 -0.4437  1.1957
11830TIP3   OH256980   5.370   6.238   3.120 -0.0484 -0.1314 -0.2557
11830TIP3    H156981   5.454   6.243   3.167 -0.8025 -0.4631  1.1873
11830TIP3    H256982   5.393   6.255   3.029  1.3094  1.8465  0.3854
11831TIP3   OH256983   5.442   1.787  15.139  0.2895  0.2890  0.1792
11831TIP3    H156984   5.528   1.746  15.142  0.0469 -0.3561 -0.8868
11831TIP3    H256985   5.385   1.727  15.188  0.2885  0.3048  0.1977
11832TIP3   OH256986   3.036   4.840   2.028 -0.2050 -0.3703 -0.2684
11832TIP3    H156987   2.972   4.904   2.058 -2.2012 -1.1419 -2.5507
11832TIP3    H256988   3.001   4.756   2.058  1.2033 -0.6365  0.7391
11833TIP3   OH256989   2.851   1.799  13.041  0.4934 -0.1109  0.4244
11833TIP3    H156990   2.829   1.886  13.074 -0.2286  0.4903 -1.5122
11833TIP3    H256991   2.946   1.793  13.048  0.9618  2.1808 -2.3469
11834TIP3   OH256992   4.797   3.638   2.943 -0.4367  0.1180 -0.3362
11834TIP3    H156993   4.703   3.645   2.963 -0.7894  1.0974 -2.0947
11834TIP3    H256994   4.804   3.559   2.890 -0.1217 -0.3913  0.4500
11835TIP3   OH256995   4.157   5.195   4.653  0.5975  0.0148  0.5562
11835TIP3    H156996   4.146   5.111   4.698  1.2320 -1.3458 -1.6930
11835TIP3    H256997   4.242   5.188   4.609  0.3637  1.5825 -0.2259
11836TIP3   OH256998   4.270   4.014  14.676 -0.0496  0.0452 -0.2748
11836TIP3    H156999   4.351   4.028  14.627 -0.3065 -2.2575 -1.5090
11836TIP3    H257000   4.299   3.969  14.756  0.0446  0.9551  0.2206
11837TIP3   OH257001   3.482   0.166   6.474 -0.0436 -0.3609  0.1679
11837TIP3    H157002   3.418   0.105   6.509 -1.1512 -0.3177 -1.6417
11837TIP3    H257003   3.509   0.128   6.391 -0.1668  1.2070 -0.6263
11838TIP3   OH257004   4.922   2.821   6.234  0.3044  0.0894 -0.3846
11838TIP3    H157005   4.877   2.809   6.150  1.8488  1.0542 -1.3926
11838TIP3    H257006   4.956   2.733   6.255  1.6506  0.2112 -1.8448
11839TIP3   OH257007   3.271   3.798  15.059 -0.0873 -0.2350 -0.0260
11839TIP3    H157008   3.306   3.743  15.130  3.3457  0.0475 -1.2887
11839TIP3    H257009   3.318   3.881  15.068 -1.1497  0.5557 -1.4078
11840TIP3   OH257010   3.841   3.890   4.178 -0.0592  0.1961  0.2860
11840TIP3    H157011   3.811   3.938   4.101  1.7440  0.2715 -0.4210
11840TIP3    H257012   3.904   3.826   4.143 -0.3612 -0.8298  1.5324
11841TIP3   OH257013   6.415   1.617  12.429 -0.5535  0.2118  0.3658
11841TIP3    H157014   6.458   1.662  12.356  0.7529  1.5524  1.9001
11841TIP3    H257015   6.322   1.640  12.419 -0.4380  0.1451 -1.0147
11842TIP3   OH257016   4.846   1.341   5.311  0.2345 -0.4674  0.6064
11842TIP3    H157017   4.832   1.276   5.380 -0.5790 -0.2614  0.6478
11842TIP3    H257018   4.833   1.293   5.230 -0.5149 -0.3287  0.6405
11843TIP3   OH257019   0.524   6.125  13.937 -0.3306 -0.0605 -0.7245
11843TIP3    H157020   0.506   6.183  14.010 -1.0815 -1.2709  0.0968
11843TIP3    H257021   0.480   6.165  13.862 -2.5714 -0.5522  0.2553
11844TIP3   OH257022   4.634   5.090   3.405  0.4071  0.0111  0.2640
11844TIP3    H157023   4.553   5.088   3.457  0.0002  3.3931  0.0202
11844TIP3    H257024   4.614   5.037   3.328 -1.3889  0.2313  0.5239
11845TIP3   OH257025   1.706   2.056   0.487  0.2752  0.0997  0.3082
11845TIP3    H157026   1.629   2.051   0.545 -0.7237 -0.9412 -1.0466
11845TIP3    H257027   1.751   2.136   0.514 -0.4785 -0.0314  2.1060
11846TIP3   OH257028   1.354   1.775  16.559  0.1010  0.0988  0.2285
11846TIP3    H157029   1.273   1.825  16.546 -0.1527 -0.9187 -2.8362
11846TIP3    H257030   1.423   1.832  16.524  0.3467 -0.0725  0.4342
11847TIP3   OH257031   4.931   0.628   1.940  0.6789  0.1218 -0.8663
11847TIP3    H157032   4.983   0.628   2.020  0.9334  0.7444 -1.0308
11847TIP3    H257033   4.859   0.568   1.959  1.1349 -0.2956 -0.4323
11848TIP3   OH257034   1.521   1.633   2.584 -0.3467  0.4099  0.0873
11848TIP3    H157035   1.471   1.579   2.645  0.0837 -1.8265 -1.4162
11848TIP3    H257036   1.601   1.656   2.631  0.4142 -2.0685  0.1307
11849TIP3   OH257037   2.865   3.344   5.351  0.0812 -0.5769 -0.3851
11849TIP3    H157038   2.788   3.383   5.309 -0.4187 -0.4326  0.6450
11849TIP3    H257039   2.939   3.389   5.310 -0.4335  0.3094 -0.3678
11850TIP3   OH257040   1.883   5.517   0.679 -0.2168  0.3427 -0.0679
11850TIP3    H157041   1.919   5.432   0.707  1.0921 -0.1211 -2.7727
11850TIP3    H257042   1.954   5.579   0.693 -0.5275  0.6345  0.2232
11851TIP3   OH257043   2.095   0.961  12.735 -0.1069  0.1725 -0.6648
11851TIP3    H157044   2.024   0.907  12.700  1.2708 -3.1947  1.2544
11851TIP3    H257045   2.069   0.981  12.825  0.9597 -0.3910 -0.2075
11852TIP3   OH257046   0.247   2.716   3.408  0.1191 -0.4333 -0.3177
11852TIP3    H157047   0.308   2.788   3.425  0.6247 -0.8704 -0.2483
11852TIP3    H257048   0.208   2.697   3.493  1.8137 -1.8681  0.1958
11853TIP3   OH257049   3.952   6.730  13.950 -0.1416 -0.3663  0.3721
11853TIP3    H157050   3.958   6.644  13.990 -0.9813  0.4891  2.5056
11853TIP3    H257051   4.032   6.775  13.976  0.4040 -0.5518 -0.9280
11854TIP3   OH257052   6.629   6.494  12.651  0.1979  0.0396 -0.0299
11854TIP3    H157053   6.662   6.534  12.732  0.4688 -0.3999  0.0782
11854TIP3    H257054   6.673   6.543  12.582  0.3760  0.0645  0.0990
11855TIP3   OH257055   6.079   4.521   1.234 -0.4417 -0.0225 -0.1621
11855TIP3    H157056   6.000   4.467   1.234 -0.6600  0.2919 -0.3649
11855TIP3    H257057   6.125   4.495   1.154 -0.7448  0.3715 -0.4693
11856TIP3   OH257058   2.484   5.299   4.640  0.6689 -0.0655  0.4033
11856TIP3    H157059   2.452   5.380   4.678 -2.2672  0.6648 -3.0972
11856TIP3    H257060   2.410   5.238   4.645  1.4721 -1.1784 -0.5489
11857TIP3   OH257061   2.491   2.005   5.907 -0.8084  0.3679  0.0767
11857TIP3    H157062   2.496   2.099   5.925  1.3800  0.6721 -1.6911
11857TIP3    H257063   2.542   1.965   5.977 -2.1510  0.3939  1.1162
11858TIP3   OH257064   5.714   5.384  13.840 -0.3666  0.0544  0.4310
11858TIP3    H157065   5.808   5.374  13.834 -0.5816 -1.2370 -1.4263
11858TIP3    H257066   5.690   5.438  13.765 -1.2687 -1.1687 -0.2078
11859TIP3   OH257067   1.085   6.762   5.726 -0.3635 -0.2359  0.4915
11859TIP3    H157068   1.056   6.804   5.807  0.9823  0.1038  0.8084
11859TIP3    H257069   1.166   6.807   5.703 -0.7623 -0.2686 -1.1003
11860TIP3   OH257070   6.689   0.021  16.814  0.6011  0.3478  0.5139
11860TIP3    H157071   6.750  -0.041  16.774 -0.4043 -0.7341  0.6094
11860TIP3    H257072   6.679   0.090  16.749  1.9251  0.5523  0.5060
11861TIP3   OH257073   2.431   2.798  14.566  0.2968 -0.0820 -0.2432
11861TIP3    H157074   2.513   2.750  14.564 -0.4557 -1.4037 -0.6035
11861TIP3    H257075   2.441   2.861  14.638  1.9045  0.3370 -0.8148
11862TIP3   OH257076   5.129   2.647   3.140  0.2975  0.0123 -0.1372
11862TIP3    H157077   5.143   2.562   3.098  2.5277 -0.2320  0.9371
11862TIP3    H257078   5.192   2.705   3.099  1.0996  0.2808  1.4062
11863TIP3   OH257079   2.834   3.810  12.222 -0.2957 -0.4965  0.0910
11863TIP3    H157080   2.891   3.796  12.146 -1.2483 -3.5334 -0.1868
11863TIP3    H257081   2.893   3.841  12.291  0.7554  1.3738 -1.5219
11864TIP3   OH257082   1.937   5.959  14.626 -0.2471  0.0146  0.4994
11864TIP3    H157083   1.951   6.053  14.637  1.4801 -0.0865 -0.5282
11864TIP3    H257084   1.941   5.924  14.715  2.0445  0.5846  0.6889
11865TIP3   OH257085   3.179   3.126   0.409 -0.0796  0.2616  0.6460
11865TIP3    H157086   3.092   3.149   0.378 -0.6329 -1.8055  0.5647
11865TIP3    H257087   3.237   3.191   0.368 -1.1762 -0.3148 -2.0209
11866TIP3   OH257088   6.501   4.097  13.555  0.6607  0.1624 -0.2830
11866TIP3    H157089   6.582   4.146  13.570  0.2879  1.1628 -1.3952
11866TIP3    H257090   6.513   4.058  13.469  0.4463 -0.7137  0.0759
11867TIP3   OH257091   4.241   3.453   4.824  0.1912  0.0450 -0.0277
11867TIP3    H157092   4.315   3.397   4.800  0.0332 -1.8011  3.1070
11867TIP3    H257093   4.169   3.422   4.770  0.5029 -1.8676  0.5602
11868TIP3   OH257094   0.497   5.707   5.016  0.0300 -0.3287  0.2624
11868TIP3    H157095   0.463   5.619   4.998 -0.9300  0.4236 -1.9410
11868TIP3    H257096   0.418   5.759   5.035  0.7152 -0.2426  3.3008
11869TIP3   OH257097   6.128   3.700  10.932 -0.3667  0.4072 -0.5221
11869TIP3    H157098   6.195   3.702  10.864 -0.0948  0.7593 -0.2476
11869TIP3    H257099   6.058   3.647  10.894 -0.6043  1.3242 -1.4538
11870TIP3   OH257100   0.380   3.299  12.065  0.6066  0.0891 -0.0158
11870TIP3    H157101   0.454   3.304  12.125  1.5759 -1.9253 -0.9496
11870TIP3    H257102   0.306   3.270  12.119  0.9775  0.1637  0.5364
11871TIP3   OH257103   5.406   1.707  12.283  0.1791  0.3020  0.0609
11871TIP3    H157104   5.329   1.729  12.230  0.1136  0.0252  0.0373
11871TIP3    H257105   5.371   1.657  12.357  0.2650  0.7383  0.3982
11872TIP3   OH257106   3.131   3.330   1.151 -0.1818  0.6537 -0.4641
11872TIP3    H157107   3.139   3.277   1.230  0.0871 -0.0272 -0.9341
11872TIP3    H257108   3.221   3.342   1.120 -0.2808  0.9330 -0.6537
11873TIP3   OH257109   4.395   0.166  16.440  0.2171 -0.0509  0.0600
11873TIP3    H157110   4.392   0.072  16.424 -2.4693 -0.1558  0.6338
11873TIP3    H257111   4.388   0.206  16.353  0.1291 -0.4143 -0.0989
11874TIP3   OH257112   5.623   2.585  11.521  0.4377 -0.6731 -0.1077
11874TIP3    H157113   5.680   2.515  11.553  1.2199  0.5140  1.1629
11874TIP3    H257114   5.614   2.645  11.594  0.5418  1.0515 -1.4435
11875TIP3   OH257115   4.661   2.700   3.552  0.1236 -0.0626  0.4461
11875TIP3    H157116   4.751   2.710   3.582  1.3343  1.1347 -3.1336
11875TIP3    H257117   4.616   2.776   3.587  0.8546  0.0878  1.0856
11876TIP3   OH257118   0.053   6.260   5.869 -0.3009  0.2688  0.5286
11876TIP3    H157119   0.140   6.288   5.898 -0.0631  0.9706 -0.7639
11876TIP3    H257120  -0.002   6.268   5.946  0.4599  1.3005  0.9916
11877TIP3   OH257121   2.948   6.185  13.638 -0.0778 -0.1425  0.1534
11877TIP3    H157122   3.040   6.197  13.658 -0.1271  0.0651  0.2661
11877TIP3    H257123   2.922   6.266  13.594  0.7529 -1.7364 -3.5646
11878TIP3   OH257124   5.768   3.248  17.235  0.1061 -0.0355  0.1836
11878TIP3    H157125   5.757   3.247  17.330 -0.8301  1.0321  0.1098
11878TIP3    H257126   5.847   3.302  17.221  0.1234 -0.0167  0.3493
11879TIP3   OH257127   1.474   4.148   4.159 -0.6427  0.1512  0.1058
11879TIP3    H157128   1.496   4.171   4.068 -0.1926 -2.3054 -0.4954
11879TIP3    H257129   1.380   4.133   4.158 -0.6633  0.2808  0.0812
11880TIP3   OH257130   0.197   0.756  12.962  0.1397  0.1948  0.2515
11880TIP3    H157131   0.243   0.829  13.003  1.4447 -0.7328  0.5081
11880TIP3    H257132   0.128   0.797  12.910 -0.7115  1.4682  2.2827
11881TIP3   OH257133   3.427   4.684  15.763  0.2316  0.2423  0.2755
11881TIP3    H157134   3.381   4.758  15.725 -1.5097  0.0359  1.8355
11881TIP3    H257135   3.421   4.615  15.697 -2.9138 -0.1831  0.8593
11882TIP3   OH257136   0.239   5.226  12.885 -0.2998 -0.3798 -0.1357
11882TIP3    H157137   0.154   5.211  12.844 -0.7943 -1.4647  1.2217
11882TIP3    H257138   0.228   5.308  12.933  0.2031  0.7606 -1.8517
11883TIP3   OH257139   4.583   2.908   4.315 -0.2636 -0.2794 -0.1872
11883TIP3    H157140   4.605   2.933   4.405  0.4329 -2.3607  0.2877
11883TIP3    H257141   4.633   2.828   4.300 -2.7493 -1.7232 -1.3377
11884TIP3   OH257142   2.598   6.437   5.223 -0.3054 -0.5547 -0.1011
11884TIP3    H157143   2.663   6.367   5.233 -0.7243 -0.9309  0.0355
11884TIP3    H257144   2.626   6.486   5.146  0.4243 -0.4031  0.2510
11885TIP3   OH257145   4.107   0.853   4.274 -0.2313  0.0234 -0.0094
11885TIP3    H157146   4.135   0.827   4.361  1.4160 -0.3863 -0.6224
11885TIP3    H257147   4.066   0.938   4.286  2.3331  1.2418  0.8607
11886TIP3   OH257148   1.474   6.119   2.577 -0.4287 -0.3256  0.2588
11886TIP3    H157149   1.446   6.187   2.517 -1.1164 -1.8299 -1.2141
11886TIP3    H257150   1.403   6.111   2.640 -1.4326 -1.2160 -0.9373
11887TIP3   OH257151   4.264   6.338   5.455 -0.0592  0.0950 -0.8083
11887TIP3    H157152   4.217   6.401   5.400 -0.7462  2.0720  1.8337
11887TIP3    H257153   4.356   6.353   5.436 -0.2133  1.9291 -0.2784
11888TIP3   OH257154   0.634   0.638  15.381 -0.4380  0.3045  0.5669
11888TIP3    H157155   0.596   0.604  15.462 -0.2850  2.6205  1.6905
11888TIP3    H257156   0.564   0.689  15.341  0.1281  0.9384  0.3615
11889TIP3   OH257157   6.376   3.716   4.430  0.1245  0.3931  0.1159
11889TIP3    H157158   6.322   3.644   4.397  0.0705  0.8178 -0.7181
11889TIP3    H257159   6.315   3.771   4.479 -0.1828  0.8325 -0.7622
11890TIP3   OH257160   3.385   3.777  12.869 -0.3414 -0.1871  0.3277
11890TIP3    H157161   3.375   3.811  12.958 -0.6090  1.5973 -0.3441
11890TIP3    H257162   3.474   3.802  12.844 -0.2569 -0.7131  0.0848
11891TIP3   OH257163   4.502   3.450   2.475  0.1589 -0.5512 -0.2599
11891TIP3    H157164   4.491   3.429   2.382 -1.0330  0.6695 -0.4223
11891TIP3    H257165   4.588   3.492   2.481  0.6198 -1.4250 -0.6518
11892TIP3   OH257166   2.127   3.798   2.222 -0.3086 -0.1615  0.1466
11892TIP3    H157167   2.222   3.801   2.217 -0.3617  3.2730 -0.8790
11892TIP3    H257168   2.107   3.804   2.316  0.5556  2.3693  0.2362
11893TIP3   OH257169   5.826   5.613   1.499 -0.0120  0.1536  0.4826
11893TIP3    H157170   5.909   5.568   1.485 -1.0197 -1.6109 -0.2540
11893TIP3    H257171   5.760   5.549   1.470 -1.5547  2.0827 -0.4861
11894TIP3   OH257172   1.089   3.180   0.174 -0.2974  0.2093 -0.1249
11894TIP3    H157173   1.007   3.161   0.220 -0.4751 -2.3012 -1.3085
11894TIP3    H257174   1.141   3.099   0.184  1.9139  1.5926  0.2668
11895TIP3   OH257175   1.973   4.710   1.342  0.3457  0.1802 -0.1419
11895TIP3    H157176   1.902   4.768   1.370  1.0300  0.3546  1.3264
11895TIP3    H257177   2.053   4.761   1.357  0.7680  0.8296 -3.8216
11896TIP3   OH257178   6.696   0.696   0.042  0.3038 -0.5486 -0.1454
11896TIP3    H157179   6.770   0.757   0.040  1.3950 -1.8401 -1.0984
11896TIP3    H257180   6.630   0.737  -0.013  1.0520 -0.2543 -0.8434
11897TIP3   OH257181   3.277   1.448  16.695  0.2792 -0.5400  0.2085
11897TIP3    H157182   3.197   1.419  16.739  0.4240 -1.8952 -0.3657
11897TIP3    H257183   3.251   1.528  16.649 -1.5518 -2.3019 -2.1157
11898TIP3   OH257184   3.031   1.919   2.409 -0.0154  0.0710  0.2005
11898TIP3    H157185   3.072   1.836   2.382 -0.9965 -1.0063  1.8382
11898TIP3    H257186   3.105   1.977   2.428  0.6908 -0.1131 -1.7630
11899TIP3   OH257187   3.467   6.751  11.855 -0.0296 -0.3061 -0.5010
11899TIP3    H157188   3.428   6.787  11.934 -0.7711 -1.2185 -0.4283
11899TIP3    H257189   3.401   6.764  11.787  0.5299  0.3114 -0.9391
11900TIP3   OH257190   4.442   2.056  16.144 -0.3411  0.0394  0.1600
11900TIP3    H157191   4.379   2.057  16.217  0.3660  2.5066  0.8566
11900TIP3    H257192   4.417   2.132  16.091  2.0125  1.0976  0.4722
11901TIP3   OH257193   2.809   1.492   3.834 -0.1702  0.4692 -0.7213
11901TIP3    H157194   2.787   1.420   3.775  1.5779  0.4038 -1.3520
11901TIP3    H257195   2.787   1.571   3.785 -0.3450  0.3831 -0.7797
11902TIP3   OH257196   0.133   6.758  15.197 -0.0837 -0.3753  0.3786
11902TIP3    H157197   0.059   6.697  15.192 -0.4512  0.1202 -0.3597
11902TIP3    H257198   0.198   6.720  15.138 -0.2001 -0.2131  0.1428
11903TIP3   OH257199   5.981   1.323   0.190 -0.6133 -0.0564 -0.3936
11903TIP3    H157200   5.982   1.286   0.278 -0.0136 -0.0504 -0.3983
11903TIP3    H257201   5.998   1.248   0.132  0.7891  0.2438 -0.3927
11904TIP3   OH257202   1.807   3.614   5.037  0.3939 -0.2153  0.2631
11904TIP3    H157203   1.798   3.584   5.127  0.4143  0.3728  0.4658
11904TIP3    H257204   1.901   3.621   5.023  0.4170 -1.1699 -0.1000
11905TIP3   OH257205   4.237   4.492   0.723 -0.1416 -0.6214 -0.1201
11905TIP3    H157206   4.278   4.578   0.731 -0.7843 -0.2985 -0.2731
11905TIP3    H257207   4.307   4.430   0.745  0.8173 -0.1552 -1.7551
11906TIP3   OH257208   6.550   6.685   0.881  0.1544  0.1896 -0.2735
11906TIP3    H157209   6.483   6.748   0.854  0.6689  0.6132 -0.5790
11906TIP3    H257210   6.518   6.651   0.964  1.1373  2.8432  1.3187
11907TIP3   OH257211   5.935   5.677   0.700  0.3332  0.6998 -0.2975
11907TIP3    H157212   5.942   5.630   0.783  0.5618  1.1501 -0.0554
11907TIP3    H257213   5.860   5.637   0.656  1.2897 -0.7432 -0.6658
11908TIP3   OH257214   2.380   4.185   4.089  0.0001  0.1708 -0.3019
11908TIP3    H157215   2.297   4.221   4.120  0.7237  0.0883  1.9426
11908TIP3    H257216   2.411   4.249   4.025 -0.4106  1.7879  1.0250
11909TIP3   OH257217   3.011   5.256   5.307  0.1388  0.0019 -0.6689
11909TIP3    H157218   3.015   5.168   5.270 -0.4332 -1.3777  2.2439
11909TIP3    H257219   2.918   5.274   5.316  0.1710 -0.7236  2.0315
11910TIP3   OH257220   4.237   3.510   1.193  0.1872  0.5295  0.2729
11910TIP3    H157221   4.174   3.526   1.122  0.8372  0.8792 -0.2351
11910TIP3    H257222   4.255   3.417   1.189  0.8094  0.6765 -0.5295
11911TIP3   OH257223   3.247   0.350  12.136  0.2404  0.5859 -0.1972
11911TIP3    H157224   3.181   0.398  12.086  1.2139  1.9065 -0.2411
11911TIP3    H257225   3.263   0.403  12.213 -0.6577 -1.0510  1.1837
11912TIP3   OH257226   6.453   4.085   4.693 -0.2951 -0.5247 -0.3539
11912TIP3    H157227   6.489   4.173   4.699  1.2750 -1.1004 -0.9000
11912TIP3    H257228   6.365   4.093   4.730  0.1647  1.0557  0.4977
11913TIP3   OH257229   6.331   0.895   0.948  0.1794  0.1768  0.4571
11913TIP3    H157230   6.284   0.977   0.931  0.7030  0.2166 -0.9153
11913TIP3    H257231   6.271   0.844   1.003  0.3572  1.9623  2.4296
11914TIP3   OH257232   1.883   6.424  11.723 -0.1896  0.3595  0.1547
11914TIP3    H157233   1.972   6.389  11.723  0.5270  1.8719  2.9041
11914TIP3    H257234   1.850   6.406  11.635  0.9498 -4.7935  0.4862
11915TIP3   OH257235   4.751   0.314  14.831  0.3133 -0.6297 -0.4618
11915TIP3    H157236   4.841   0.299  14.858 -0.1279  0.1255  1.5588
11915TIP3    H257237   4.720   0.384  14.888 -1.3512 -0.3818 -1.5947
11916TIP3   OH257238   1.094   3.939   5.030 -0.0851  0.0360 -0.2171
11916TIP3    H157239   1.061   3.998   4.962  1.6194  1.4403  0.0927
11916TIP3    H257240   1.178   3.978   5.056  0.9226 -2.3267  0.3013
11917TIP3   OH257241   6.389   0.892   2.396 -0.4345 -0.2285  0.1993
11917TIP3    H157242   6.444   0.817   2.415  1.4848  1.0099 -0.2050
11917TIP3    H257243   6.418   0.959   2.458 -0.8561  0.7531 -0.6434
11918TIP3   OH257244   1.584   1.509  17.169  0.1715  0.1962 -0.6492
11918TIP3    H157245   1.529   1.532  17.244  0.4329 -1.4759  0.1083
11918TIP3    H257246   1.533   1.533  17.092 -1.5455 -1.1437  0.0330
11919TIP3   OH257247   5.202   0.669  16.796  0.2300 -0.2946  0.2717
11919TIP3    H157248   5.145   0.745  16.803  0.5848 -0.0478  0.5181
11919TIP3    H257249   5.274   0.688  16.856 -0.3731 -1.4464  1.3959
11920TIP3   OH257250   5.079   2.215   0.867  0.0472  0.1823 -0.1194
11920TIP3    H157251   5.023   2.141   0.844 -0.5744  0.8197 -0.7033
11920TIP3    H257252   5.152   2.210   0.806 -0.1962  0.2730 -0.4231
11921TIP3   OH257253   4.792   6.030  15.549  0.1054 -0.1100 -0.0236
11921TIP3    H157254   4.788   6.098  15.616 -0.1702 -1.7934  1.7433
11921TIP3    H257255   4.805   5.948  15.597  1.1782 -1.2666 -2.1080
11922TIP3   OH257256   6.776   6.047  15.111 -0.2156 -0.0491  0.0850
11922TIP3    H157257   6.736   6.134  15.119  0.7564  0.5138 -0.8861
11922TIP3    H257258   6.803   6.042  15.020  1.2840 -0.6706  0.5281
11923TIP3   OH257259   0.410   1.814  10.364  1.0947 -0.3648  0.4369
11923TIP3    H157260   0.329   1.841  10.320 -0.6893 -4.2491  1.0022
11923TIP3    H257261   0.470   1.794  10.292 -0.7645 -3.6768 -0.3899
11924TIP3   OH257262   0.758   5.898   6.361  0.0983  0.3499  0.4376
11924TIP3    H157263   0.842   5.857   6.382 -0.0222  0.5312  1.3371
11924TIP3    H257264   0.750   5.969   6.426  0.1342  1.5709 -0.8424
11925TIP3   OH257265   5.807   0.824   3.902  0.0600  0.3074 -0.0393
11925TIP3    H157266   5.869   0.896   3.902 -0.6037  0.8906  0.2639
11925TIP3    H257267   5.732   0.856   3.953 -0.4134 -0.4450 -0.2365
11926TIP3   OH257268   3.107   5.171  16.201 -0.3252 -0.2329 -0.0664
11926TIP3    H157269   3.036   5.115  16.233  0.2007 -1.2759 -0.6810
11926TIP3    H257270   3.071   5.211  16.122 -0.8650  0.6814  0.6227
11927TIP3   OH257271   5.059   6.132  13.280 -0.1086 -0.2894 -0.2657
11927TIP3    H157272   5.118   6.063  13.310 -0.0858 -0.3731 -0.4954
11927TIP3    H257273   5.076   6.206  13.337  0.5556 -0.1554 -0.6284
11928TIP3   OH257274   1.386   2.098   2.923 -0.2046  0.8727  0.1905
11928TIP3    H157275   1.442   2.048   2.863  0.6279  0.5445  1.2270
11928TIP3    H257276   1.445   2.130   2.991 -1.4334 -0.6406  2.0774
11929TIP3   OH257277   5.457   6.622  15.604 -0.1745  0.4857 -0.0007
11929TIP3    H157278   5.518   6.632  15.677 -0.0121 -0.9418  0.0852
11929TIP3    H257279   5.387   6.566  15.638 -0.4692  0.4055 -0.7194
11930TIP3   OH257280   0.594   0.112  16.639 -0.0719  0.5054 -0.4298
11930TIP3    H157281   0.536   0.182  16.670 -0.1567 -0.3123  1.3857
11930TIP3    H257282   0.534   0.042  16.613  0.0452  0.3943 -0.4030
11931TIP3   OH257283   1.717   3.718  15.645 -0.0794 -0.4091  0.5998
11931TIP3    H157284   1.785   3.763  15.696 -0.0883  0.6066 -0.2627
11931TIP3    H257285   1.646   3.704  15.708  0.4817 -0.4909  1.2330
11932TIP3   OH257286   2.389   2.146   1.684 -0.1349  0.2905  0.3351
11932TIP3    H157287   2.469   2.114   1.727 -0.2096 -0.1653  0.1409
11932TIP3    H257288   2.420   2.188   1.604  0.0973  2.0435  1.3047
11933TIP3   OH257289   0.770   0.312  13.070  0.1438  0.3346 -0.0684
11933TIP3    H157290   0.740   0.259  13.144  0.0366  1.4571  0.7266
11933TIP3    H257291   0.720   0.280  12.995  0.6401 -1.1920  0.2073
11934TIP3   OH257292   5.325   4.860  15.708  0.2494 -0.1167 -0.0448
11934TIP3    H157293   5.266   4.860  15.633  1.2254 -0.1690 -0.8365
11934TIP3    H257294   5.270   4.835  15.782 -1.0091  1.1217 -0.5164
11935TIP3   OH257295   4.153   4.304  11.451 -0.6678  0.4031  0.1931
11935TIP3    H157296   4.077   4.284  11.397 -0.7757  0.8207  0.1850
11935TIP3    H257297   4.204   4.365  11.397 -0.8453  0.9339  0.6172
11936TIP3   OH257298   5.490   5.454   4.513  0.4394 -0.2075 -0.4931
11936TIP3    H157299   5.521   5.459   4.422 -0.1562 -0.7023 -0.7269
11936TIP3    H257300   5.527   5.372   4.546 -0.7885 -0.9370 -0.8540
11937TIP3   OH257301   1.498   2.652   4.402 -0.2812  0.1832  0.8754
11937TIP3    H157302   1.460   2.599   4.473 -2.4104  1.0499  0.4471
11937TIP3    H257303   1.453   2.623   4.323 -0.1169  1.3134  0.3430
11938TIP3   OH257304   5.065   6.114  12.769 -0.1851 -0.0033  0.1465
11938TIP3    H157305   5.064   6.059  12.848  0.1465  0.1048  0.2281
11938TIP3    H257306   4.987   6.170  12.778  0.6852  1.1050  1.1971
11939TIP3   OH257307   6.200   5.408   1.842 -0.0733  0.0387 -0.2709
11939TIP3    H157308   6.260   5.453   1.902  0.3408  1.8641 -1.9475
11939TIP3    H257309   6.114   5.414   1.885 -0.4071  4.0941 -1.0629
11940TIP3   OH257310   2.264   0.184  11.633  0.1654  0.3841  0.2547
11940TIP3    H157311   2.219   0.233  11.701  2.4616  0.5741  1.7728
11940TIP3    H257312   2.225   0.097  11.635  0.7502  0.1209  2.4903
11941TIP3   OH257313   3.355   6.499  14.835  0.8716  0.0774 -0.2093
11941TIP3    H157314   3.337   6.406  14.825  3.1830 -0.7490  2.1731
11941TIP3    H257315   3.277   6.535  14.875  0.5881 -1.2087  0.4431
11942TIP3   OH257316   0.989   3.321  17.235  0.2490 -0.8948  0.2815
11942TIP3    H157317   1.022   3.298  17.322  0.6624 -0.8183  0.1500
11942TIP3    H257318   1.060   3.371  17.195  0.5253 -1.8924 -0.5310
11943TIP3   OH257319   1.539   4.954   3.174  0.5446  0.1668 -0.0456
11943TIP3    H157320   1.465   5.002   3.136  0.8193  1.4818  1.0187
11943TIP3    H257321   1.542   4.983   3.265  1.9300 -0.4288  0.1186
11944TIP3   OH257322   5.358   4.366  16.993 -0.1513  0.1459 -0.5832
11944TIP3    H157323   5.276   4.348  17.038 -0.0737  0.6800 -0.2253
11944TIP3    H257324   5.409   4.418  17.055 -0.0800  0.9714 -1.3138
11945TIP3   OH257325   2.948   4.133  14.078 -0.3530  0.4650 -0.0398
11945TIP3    H157326   2.870   4.173  14.041  0.1139  0.6494 -0.8458
11945TIP3    H257327   3.016   4.148  14.013  0.6231  1.2376  1.1268
11946TIP3   OH257328   3.918   0.981   4.719  0.1008 -0.3806  0.0588
11946TIP3    H157329   3.823   0.980   4.711 -0.0355  2.3864  0.2378
11946TIP3    H257330   3.934   1.004   4.811  0.8989  0.2040 -0.2148
11947TIP3   OH257331   4.739   1.821  13.004  0.1998 -0.6015 -0.1484
11947TIP3    H157332   4.773   1.821  13.093 -0.9164  1.1040  0.3311
11947TIP3    H257333   4.711   1.911  12.989  1.8509 -0.4139 -2.8372
11948TIP3   OH257334   2.970   5.708   1.374  0.2813 -0.3857  0.6095
11948TIP3    H157335   3.010   5.785   1.334 -2.1952  1.2440  1.0761
11948TIP3    H257336   2.974   5.641   1.306  0.9817  0.6720 -0.4166
11949TIP3   OH257337   2.719   1.317  13.132  0.4540 -0.1501 -0.3063
11949TIP3    H157338   2.683   1.230  13.116  1.3694 -0.7119  0.5647
11949TIP3    H257339   2.642   1.374  13.138 -0.4522 -1.4788  2.5708
11950TIP3   OH257340   6.199   4.888   5.202  0.0995 -0.0154  0.1294
11950TIP3    H157341   6.207   4.965   5.258 -1.1697  0.1148  0.1743
11950TIP3    H257342   6.124   4.908   5.146  0.5993 -0.6597 -0.7894
11951TIP3   OH257343   0.451   2.538  16.843  0.1805 -0.3044 -0.1201
11951TIP3    H157344   0.502   2.618  16.830 -1.4531  0.8755  0.3313
11951TIP3    H257345   0.453   2.494  16.758  3.6540 -1.4331  0.4099
11952TIP3   OH257346   5.090   3.843   2.642  0.5451  0.2977  0.1081
11952TIP3    H157347   5.185   3.850   2.632  0.5223 -0.2268 -0.5568
11952TIP3    H257348   5.077   3.767   2.698  0.5189  0.3254  0.1396
11953TIP3   OH257349   1.531   3.303  12.683  0.3185  0.2521 -0.1777
11953TIP3    H157350   1.514   3.377  12.626  2.2722  0.8771 -0.0451
11953TIP3    H257351   1.553   3.231  12.623 -0.0719  0.2107 -0.2704
11954TIP3   OH257352   1.431   3.575  15.023  0.5718  0.1973  0.2309
11954TIP3    H157353   1.432   3.596  14.929  1.1092 -0.1563  0.1517
11954TIP3    H257354   1.486   3.642  15.063 -0.0985  0.6705  0.3698
11955TIP3   OH257355   5.894   5.346   5.177 -0.3029  0.1454 -0.4689
11955TIP3    H157356   5.887   5.279   5.244  1.7273  1.2007  0.9286
11955TIP3    H257357   5.966   5.315   5.120 -0.9098  0.0493 -1.1999
11956TIP3   OH257358   2.333   1.044  15.067  0.8347 -0.2106 -0.3282
11956TIP3    H157359   2.278   0.995  15.128 -0.0741  0.6446 -0.4319
11956TIP3    H257360   2.402   1.082  15.122  0.4723 -0.0810  0.0414
11957TIP3   OH257361   3.690   3.883   5.404  0.4768  0.2389  0.3499
11957TIP3    H157362   3.596   3.902   5.396  0.8931  2.3050 -0.3180
11957TIP3    H257363   3.710   3.904   5.495  0.3736  0.2146  0.3794
11958TIP3   OH257364   4.023   0.937   2.192 -0.2788  0.1524 -0.2578
11958TIP3    H157365   4.035   1.003   2.124  3.6855  0.0769  0.0973
11958TIP3    H257366   4.066   0.859   2.158 -0.0410 -0.5213  1.4893
11959TIP3   OH257367   4.170   2.767  14.496 -0.2239  0.0171 -0.0682
11959TIP3    H157368   4.161   2.836  14.562 -2.8170 -2.3040  2.2671
11959TIP3    H257369   4.261   2.771  14.468 -0.2235  4.2386 -0.0205
11960TIP3   OH257370   1.685   6.298  13.284  0.6590 -0.4253 -0.3344
11960TIP3    H157371   1.593   6.306  13.260 -0.0326 -2.3573  1.4363
11960TIP3    H257372   1.726   6.256  13.208  0.8558  3.1980 -2.4644
11961TIP3   OH257373   3.768   0.301  15.837 -0.1728 -0.3718 -0.0590
11961TIP3    H157374   3.710   0.375  15.818 -1.4496 -0.7117  2.1286
11961TIP3    H257375   3.828   0.335  15.903 -0.4051 -1.1083  0.5449
11962TIP3   OH257376   1.885   0.156   1.597 -0.3448 -0.1522  0.2043
11962TIP3    H157377   1.803   0.195   1.629 -0.5203 -0.9088  0.7113
11962TIP3    H257378   1.908   0.092   1.664  0.2199 -0.5350 -0.3483
11963TIP3   OH257379   3.652   2.216  15.596 -0.2034 -0.7416  0.4382
11963TIP3    H157380   3.646   2.311  15.590  2.7538 -0.5115 -0.2218
11963TIP3    H257381   3.602   2.184  15.520  0.5068  0.3915 -0.5381
11964TIP3   OH257382   2.370   2.366  15.115  0.4526 -0.9763  0.2740
11964TIP3    H157383   2.429   2.359  15.190  0.6535  0.6290  0.3040
11964TIP3    H257384   2.353   2.276  15.088  0.1610 -1.5956  2.4123
11965TIP3   OH257385   1.259   0.942  10.416  0.1223  0.0741  0.6493
11965TIP3    H157386   1.302   0.947  10.331  0.4818  0.1611  0.8330
11965TIP3    H257387   1.319   0.988  10.475 -0.6233  0.9323  0.7521
11966TIP3   OH257388   1.643   2.114   3.929 -0.4542  0.3774 -0.1125
11966TIP3    H157389   1.682   2.183   3.875 -0.4537  1.6651  1.4499
11966TIP3    H257390   1.643   2.037   3.873  1.2865  1.1696 -1.2935
11967TIP3   OH257391   6.718   6.305   6.397 -0.4353 -0.5091  0.0659
11967TIP3    H157392   6.717   6.323   6.491  2.0781 -2.7395  0.6445
11967TIP3    H257393   6.805   6.270   6.380 -1.1558 -1.1653 -2.9259
11968TIP3   OH257394   2.884   2.394  11.775  0.7272 -0.3553  0.4613
11968TIP3    H157395   2.831   2.405  11.696  0.1384  1.3028  1.0410
11968TIP3    H257396   2.877   2.478  11.821  3.5145 -0.1878  0.7888
11969TIP3   OH257397   4.311   6.337  15.673  0.1097 -0.0614  0.2514
11969TIP3    H157398   4.245   6.401  15.648  0.4086  0.8506  1.6458
11969TIP3    H257399   4.262   6.256  15.685 -0.4077  0.0924 -0.7394
11970TIP3   OH257400   4.383   2.860  15.917  0.9791  0.4965 -0.3023
11970TIP3    H157401   4.430   2.811  15.983 -0.2464  0.2347  0.4094
11970TIP3    H257402   4.329   2.922  15.966 -0.3903 -0.0887 -0.9860
11971TIP3   OH257403   2.308   3.430  14.940 -0.3333 -0.4709 -0.1864
11971TIP3    H157404   2.386   3.376  14.951  0.0253 -0.0718 -0.7300
11971TIP3    H257405   2.329   3.512  14.984 -0.6043 -0.5202  0.0299
11972TIP3   OH257406   4.289   0.471   1.161  0.2344  0.4533 -1.0391
11972TIP3    H157407   4.337   0.390   1.175 -2.9719 -1.4762 -0.0537
11972TIP3    H257408   4.258   0.466   1.071  1.4207  1.4723 -1.5308
11973TIP3   OH257409   5.199   1.847  13.423  0.1097  0.5559 -0.6264
11973TIP3    H157410   5.138   1.874  13.354  0.3937  1.9107 -0.3741
11973TIP3    H257411   5.269   1.912  13.420  2.1387 -1.5290 -1.5839
11974TIP3   OH257412   0.021   6.577   0.333 -0.0405  0.3400 -0.5452
11974TIP3    H157413   0.043   6.495   0.378  2.1695  0.2056 -1.7321
11974TIP3    H257414  -0.051   6.614   0.384  1.0550 -0.7447  1.9506
11975TIP3   OH257415   1.394   1.457   3.625 -0.8135 -0.6944 -0.4098
11975TIP3    H157416   1.376   1.366   3.600 -0.8171 -0.8777  0.2459
11975TIP3    H257417   1.372   1.508   3.546  0.2703 -1.3586 -1.1627
11976TIP3   OH257418   1.871   3.776   3.417 -0.0903  0.1630 -0.2751
11976TIP3    H157419   1.828   3.739   3.494  0.1552  2.1895  0.8937
11976TIP3    H257420   1.807   3.765   3.346 -1.7432  1.3116  0.9771
11977TIP3   OH257421   1.260   2.547  14.016 -0.2128 -0.7381  0.9132
11977TIP3    H157422   1.273   2.469  14.070 -1.3496  1.2271  4.3517
11977TIP3    H257423   1.168   2.545  13.993 -0.0040 -0.9364  0.0852
11978TIP3   OH257424   1.744   4.534  14.647  0.4432  0.3682  0.4307
11978TIP3    H157425   1.664   4.575  14.678  0.1590 -1.0933  1.7796
11978TIP3    H257426   1.804   4.606  14.630 -0.7560  1.4182  0.5411
11979TIP3   OH257427   3.694   3.445   0.080  0.0967  0.7035 -0.0881
11979TIP3    H157428   3.606   3.441   0.042 -0.0494  1.8805  0.0858
11979TIP3    H257429   3.741   3.373   0.038 -0.5776  0.8576 -1.1560
11980TIP3   OH257430   4.241   0.381   5.132 -0.0483  0.0099  0.1751
11980TIP3    H157431   4.320   0.431   5.149 -0.7120  1.3256 -0.4969
11980TIP3    H257432   4.215   0.348   5.218  0.6544  0.4132  0.5517
11981TIP3   OH257433   2.577   3.410   2.016  0.7267 -0.4940  0.3196
11981TIP3    H157434   2.591   3.326   1.972 -1.5357 -0.6478 -0.2302
11981TIP3    H257435   2.503   3.449   1.970 -1.2085 -0.2339  3.3378
11982TIP3   OH257436   5.691   5.761  16.359 -0.0564  0.1628  0.3362
11982TIP3    H157437   5.703   5.699  16.287  0.9460  0.6544  0.0609
11982TIP3    H257438   5.684   5.706  16.437 -2.0733 -0.4316 -0.1928
11983TIP3   OH257439   2.254   3.298  16.171 -0.9659 -0.1238 -0.0019
11983TIP3    H157440   2.287   3.214  16.140 -1.7919 -0.8685  1.0852
11983TIP3    H257441   2.160   3.296  16.155 -0.7170  1.6001 -2.1828
11984TIP3   OH257442   6.024   1.206   2.834 -0.6048 -0.0747  0.0145
11984TIP3    H157443   5.990   1.209   2.923 -0.9998 -0.0873 -0.1328
11984TIP3    H257444   6.119   1.212   2.844 -0.6589  0.1124  0.4227
11985TIP3   OH257445   0.095   5.005  11.792 -0.4796 -0.3121  0.0897
11985TIP3    H157446   0.128   4.995  11.882 -1.3400 -1.1107  0.3370
11985TIP3    H257447   0.153   5.069  11.752 -0.0452  0.0187  1.2048
11986TIP3   OH257448   3.424   3.058  15.408 -0.6656 -0.5596  0.0699
11986TIP3    H157449   3.416   3.101  15.323  1.0991 -1.2173 -0.4704
11986TIP3    H257450   3.453   3.127  15.467 -2.7919  0.1215  0.4083
11987TIP3   OH257451   6.086   1.369  13.000 -0.3423  0.0907  0.1248
11987TIP3    H157452   6.100   1.278  13.028  2.9863  0.7630  1.1679
11987TIP3    H257453   6.054   1.362  12.910 -2.4596 -2.0673  0.9458
11988TIP3   OH257454   3.677   5.211  16.534 -0.4440 -0.0019  0.0726
11988TIP3    H157455   3.651   5.212  16.442 -1.2691  1.3246  0.2922
11988TIP3    H257456   3.730   5.290  16.545  0.0132 -0.3800  0.6458
11989TIP3   OH257457   2.288   5.961   0.172  0.6177  0.1807 -0.0609
11989TIP3    H157458   2.254   5.994   0.255 -0.5346 -0.2528 -0.3458
11989TIP3    H257459   2.247   5.875   0.162  0.7555  0.2263 -1.0626
11990TIP3   OH257460   1.551   2.309   4.860  0.4489 -0.4628 -0.0168
11990TIP3    H157461   1.556   2.401   4.882  0.4376 -0.0745 -1.5196
11990TIP3    H257462   1.630   2.291   4.809  0.3362 -1.2225  0.0572
11991TIP3   OH257463   1.684   1.155   3.091 -0.4404 -0.0271 -0.3650
11991TIP3    H157464   1.637   1.129   3.012 -0.0914 -0.4940 -0.4195
11991TIP3    H257465   1.775   1.164   3.064 -0.5053  1.0106 -0.2868
11992TIP3   OH257466   0.403   6.059   5.883  0.1701  0.1844 -0.5243
11992TIP3    H157467   0.350   6.025   5.955  1.4343  1.7648  1.2354
11992TIP3    H257468   0.345   6.122   5.839  0.0596  0.8371  0.5036
11993TIP3   OH257469   5.343   5.945   1.451 -0.0199  0.1498 -0.0975
11993TIP3    H157470   5.387   6.028   1.433 -1.2862  0.9346  0.2254
11993TIP3    H257471   5.264   5.970   1.500 -0.1299 -1.3043  0.5323
11994TIP3   OH257472   3.893   2.858   0.253 -0.0672 -0.4142  0.6725
11994TIP3    H157473   3.904   2.943   0.295  0.5329 -0.9207  1.6091
11994TIP3    H257474   3.852   2.877   0.169  1.6459  0.9781  0.0866
11995TIP3   OH257475   0.856   6.089  16.698 -0.1818  0.0766 -0.8393
11995TIP3    H157476   0.826   6.173  16.664 -0.5137  0.2520 -0.1370
11995TIP3    H257477   0.827   6.024  16.634 -2.2192  0.2224 -0.1312
11996TIP3   OH257478   3.536   5.013  13.214  0.5723  0.1392  0.5002
11996TIP3    H157479   3.574   4.941  13.265  1.2800 -0.3729 -0.7010
11996TIP3    H257480   3.453   5.031  13.257  1.4340  0.1994  2.2331
11997TIP3   OH257481   4.076   6.347   3.968 -0.3011  0.2092  0.1869
11997TIP3    H157482   4.121   6.389   4.042 -1.2724 -0.4252  1.1671
11997TIP3    H257483   4.075   6.254   3.991  0.5321 -0.1953 -1.2668
11998TIP3   OH257484   1.608   2.778   5.860  0.6519  0.3883 -0.0946
11998TIP3    H157485   1.562   2.695   5.844  0.7515  0.6059 -1.6756
11998TIP3    H257486   1.562   2.841   5.805  2.2856  0.7915 -1.0379
11999TIP3   OH257487   2.217   6.310  13.555 -0.1185  0.2252 -0.7033
11999TIP3    H157488   2.273   6.292  13.479  0.6549 -0.8735  0.0847
11999TIP3    H257489   2.258   6.385  13.597  0.1824  0.0474 -0.6766
12000TIP3   OH257490   6.665   3.927   1.285  0.3826 -0.5610  0.1535
12000TIP3    H157491   6.677   3.857   1.221  0.5333  0.4296 -0.9420
12000TIP3    H257492   6.572   3.924   1.308 -0.5073  1.1978 -2.7391
12001TIP3   OH257493   2.764   4.246  16.706  0.2487 -0.0825  0.2164
12001TIP3    H157494   2.676   4.227  16.672 -0.6261  1.1766  1.6465
12001TIP3    H257495   2.773   4.341  16.699  0.7036  0.0339  1.8335
12002TIP3   OH257496   0.533   6.810   3.462 -0.3108  0.2189 -0.6149
12002TIP3    H157497   0.501   6.867   3.532 -1.5568 -0.3607 -0.6790
12002TIP3    H257498   0.462   6.810   3.398 -0.2691 -1.2701 -0.6793
12003TIP3   OH257499   6.475   2.169  17.172 -0.0104 -0.1070 -0.9074
12003TIP3    H157500   6.455   2.161  17.079  1.4788 -1.2662 -1.1718
12003TIP3    H257501   6.511   2.084  17.197  1.6565  0.8568  0.1946
12004TIP3   OH257502   1.697   0.016   0.418  0.7018  0.1927 -0.3793
12004TIP3    H157503   1.658   0.102   0.433 -1.1341 -0.6625  0.0728
12004TIP3    H257504   1.742  -0.004   0.500 -0.7558 -0.1762  0.3775
12005TIP3   OH257505   1.912   5.846  16.659  0.0229  0.3472 -0.7027
12005TIP3    H157506   1.855   5.916  16.691 -1.5387 -0.8479 -0.7663
12005TIP3    H257507   1.952   5.883  16.579 -0.0388  1.4756 -0.2325
12006TIP3   OH257508   3.335   5.458   3.211  0.0701  0.2546  0.2465
12006TIP3    H157509   3.278   5.532   3.231  1.2026  1.7063 -1.6023
12006TIP3    H257510   3.276   5.386   3.188 -1.0203  1.2656 -0.1615
12007TIP3   OH257511   6.469   4.752   0.784 -0.2141 -0.3130  0.7557
12007TIP3    H157512   6.378   4.782   0.775 -0.3410 -0.4168  1.5859
12007TIP3    H257513   6.470   4.665   0.744 -0.3069 -0.0249  0.1085
12008TIP3   OH257514   4.657   2.912   0.569  0.7346 -0.2318  0.2329
12008TIP3    H157515   4.656   3.006   0.587 -1.7838  0.1018 -1.2364
12008TIP3    H257516   4.702   2.904   0.485 -0.2203 -0.1479 -0.3037
12009TIP3   OH257517   1.535   1.635   1.001  0.5873 -0.5117 -0.5002
12009TIP3    H157518   1.579   1.682   0.929  1.6518  0.1382  0.5388
12009TIP3    H257519   1.464   1.587   0.958  2.0820 -1.3293 -2.2355
12010TIP3   OH257520   0.035   5.661   4.048  0.0822  0.3542  0.4268
12010TIP3    H157521   0.076   5.620   4.124 -0.9572 -0.3433  0.6303
12010TIP3    H257522   0.050   5.600   3.976 -3.4216 -1.6784  1.1875
12011TIP3   OH257523   4.531   2.375  13.234 -0.1185  0.9107  0.1217
12011TIP3    H157524   4.506   2.358  13.143  0.6981  0.5771 -0.0451
12011TIP3    H257525   4.488   2.458  13.255 -0.9756  0.5840 -0.2988
12012TIP3   OH257526   1.240   1.446   2.212  0.0758  0.2745 -0.0269
12012TIP3    H157527   1.290   1.431   2.133 -1.0086  0.2203 -0.7290
12012TIP3    H257528   1.295   1.503   2.266  0.5826  0.7649 -1.0515
12013TIP3   OH257529   6.080   3.430  15.268  0.1402 -0.3772  0.2063
12013TIP3    H157530   6.002   3.474  15.303  0.2694 -0.0889  0.1310
12013TIP3    H257531   6.063   3.421  15.175 -0.0152 -0.7592  0.2659
12014TIP3   OH257532   2.138   5.359  17.244  0.9614 -0.3262  0.4741
12014TIP3    H157533   2.073   5.399  17.302  0.6281 -1.3707  0.8337
12014TIP3    H257534   2.134   5.410  17.163  0.1456  0.0027  0.7210
12015TIP3   OH257535   3.855   0.002   5.616  0.1382  0.0567 -0.5380
12015TIP3    H157536   3.772  -0.028   5.655  1.4074 -1.3363  1.2591
12015TIP3    H257537   3.881  -0.071   5.560 -0.0705  0.7133 -1.5121
12016TIP3   OH257538   3.479   6.004   2.830 -0.4477 -0.3706  0.1188
12016TIP3    H157539   3.437   5.995   2.745  1.7632 -0.6898 -1.0081
12016TIP3    H257540   3.438   6.081   2.869 -1.1562  0.0823 -1.4354
12017TIP3   OH257541   4.471   5.836   1.284  0.7433 -0.1207  0.0537
12017TIP3    H157542   4.388   5.796   1.309  1.2715 -1.1541  0.2079
12017TIP3    H257543   4.503   5.878   1.364  0.5307  0.0062  0.0735
12018TIP3   OH257544   4.772   2.146   0.960  0.8107  0.4244  0.2594
12018TIP3    H157545   4.743   2.156   1.051 -0.8576 -0.7075 -0.1161
12018TIP3    H257546   4.762   2.233   0.922 -1.6245  0.2519  0.3277
12019TIP3   OH257547   6.725   0.157  17.164 -0.0382 -0.1318 -0.9448
12019TIP3    H157548   6.745   0.249  17.183  0.7295 -0.3056 -0.8532
12019TIP3    H257549   6.632   0.156  17.144 -0.9672  0.1175  2.6631
12020TIP3   OH257550   4.911   2.237   0.113 -0.2474 -0.2973 -0.0603
12020TIP3    H157551   4.892   2.158   0.062  0.1317 -0.5677  0.2188
12020TIP3    H257552   4.928   2.205   0.201 -2.4580  0.2905  0.6537
12021TIP3   OH257553   0.356   2.840   4.315  0.1312 -0.2324  0.2966
12021TIP3    H157554   0.437   2.854   4.266 -0.0513 -0.5392 -0.0992
12021TIP3    H257555   0.308   2.923   4.307 -0.0223 -0.3681 -0.2908
12022TIP3   OH257556   2.947   3.442  13.859  0.1904 -0.0937 -0.1196
12022TIP3    H157557   2.865   3.398  13.881  0.3130 -0.2776 -0.0251
12022TIP3    H257558   2.961   3.420  13.766  0.7311 -1.0435  0.1730
12023TIP3   OH257559   4.978   1.267   4.474 -0.4113  0.3422  0.1232
12023TIP3    H157560   4.948   1.177   4.464  1.4525 -0.3376  0.1408
12023TIP3    H257561   4.971   1.305   4.386  0.2746 -0.3306 -0.2317
12024TIP3   OH257562   5.824   6.282  11.470  0.0107  0.4160 -0.1628
12024TIP3    H157563   5.748   6.261  11.523 -0.5753  0.4676 -0.9657
12024TIP3    H257564   5.792   6.283  11.380  0.7669  1.3055 -0.4440
12025TIP3   OH257565   4.104   4.103   0.947  0.2447 -0.5474 -0.3006
12025TIP3    H157566   4.172   4.071   0.887 -0.0423 -2.2471  0.2235
12025TIP3    H257567   4.131   4.192   0.968  2.2848 -1.1244 -0.1712
12026TIP3   OH257568   3.501   1.578  13.528 -0.4132  0.4125 -0.2322
12026TIP3    H157569   3.530   1.499  13.483  0.0009 -0.0709  0.8409
12026TIP3    H257570   3.527   1.564  13.619  0.8137  2.3281 -0.2330
12027TIP3   OH257571   1.554   0.839   6.633  0.0720 -0.3432  0.1577
12027TIP3    H157572   1.598   0.923   6.623  1.3623 -1.0860 -0.8017
12027TIP3    H257573   1.492   0.835   6.560  2.3833 -1.5510 -1.9121
12028TIP3   OH257574   3.598   2.182  17.054  0.2565 -0.0340 -0.2974
12028TIP3    H157575   3.690   2.161  17.068 -0.0503 -1.3887 -0.2222
12028TIP3    H257576   3.564   2.203  17.141  0.7283  1.6218 -0.4624
12029TIP3   OH257577   1.063   1.023  15.382  0.2339  0.1797  0.0728
12029TIP3    H157578   0.981   0.975  15.382  0.6556 -0.5524 -0.0524
12029TIP3    H257579   1.126   0.963  15.342  0.1017  1.9551 -3.1799
12030TIP3   OH257580   0.735   5.935  16.478  0.4232  0.1664  0.5012
12030TIP3    H157581   0.641   5.944  16.464  0.3366 -0.8861  0.3553
12030TIP3    H257582   0.766   5.884  16.403  0.7143 -1.4869  1.6940
12031TIP3   OH257583   6.200   2.627   2.392 -0.0178  0.7765  0.2898
12031TIP3    H157584   6.131   2.661   2.449  0.0233  1.6851 -0.1771
12031TIP3    H257585   6.282   2.653   2.436  0.1506 -2.1087  1.9588
12032TIP3   OH257586   4.249   2.987  15.717  0.1721  0.2376 -0.1815
12032TIP3    H157587   4.282   2.962  15.803  0.5060 -0.1181 -0.4100
12032TIP3    H257588   4.224   2.904  15.676 -0.0858  0.4152 -0.3872
12033TIP3   OH257589   4.699   4.162   5.966 -0.1578 -0.2666 -0.0192
12033TIP3    H157590   4.794   4.166   5.955  0.4898 -1.6490  3.5135
12033TIP3    H257591   4.685   4.186   6.058 -3.2301 -0.2915 -0.3822
12034TIP3   OH257592   1.355   2.309  15.396  0.2091  0.7230 -0.2192
12034TIP3    H157593   1.382   2.275  15.311 -0.1769  1.4383 -0.6400
12034TIP3    H257594   1.365   2.404  15.387  0.1637  0.8022  0.5361
12035TIP3   OH257595   5.290   0.453  11.182  0.4992 -0.5594  0.7597
12035TIP3    H157596   5.365   0.478  11.129  0.1768  0.1854  0.6483
12035TIP3    H257597   5.316   0.471  11.272  0.0913  0.7029  0.6499
12036TIP3   OH257598   0.480   4.864  14.340 -0.6086 -0.9207 -0.4156
12036TIP3    H157599   0.556   4.807  14.330 -0.8428 -1.1137 -1.1835
12036TIP3    H257600   0.428   4.848  14.261 -0.4441  0.7095 -0.8794
12037TIP3   OH257601   1.785   6.464   1.437  0.2516  0.0655  0.5420
12037TIP3    H157602   1.856   6.400   1.441 -0.4168 -0.6267  1.6733
12037TIP3    H257603   1.826   6.542   1.398  0.8866 -1.2764 -1.6504
12038TIP3   OH257604   2.991   4.865  14.170  0.1282 -0.0237  0.0928
12038TIP3    H157605   3.086   4.857  14.169  0.1424 -0.0512  1.2307
12038TIP3    H257606   2.971   4.921  14.245 -0.6987  0.9269 -0.8024
12039TIP3   OH257607   0.655   2.089   3.878  0.1166 -0.3741  0.3313
12039TIP3    H157608   0.573   2.136   3.892 -0.3894 -1.7981  2.7438
12039TIP3    H257609   0.721   2.140   3.925  0.2696 -0.2364 -0.0235
12040TIP3   OH257610   4.592   0.435  17.197  0.0093  0.3473 -0.6011
12040TIP3    H157611   4.520   0.498  17.199 -1.2210 -0.9998 -0.8315
12040TIP3    H257612   4.580   0.388  17.114  1.3125  0.2766 -0.7598
12041TIP3   OH257613   2.958   3.774   3.146  0.4318  0.3648 -0.0413
12041TIP3    H157614   3.030   3.765   3.208  1.3064 -0.7224 -1.1796
12041TIP3    H257615   2.904   3.697   3.161  2.2597 -1.5733 -2.5880
12042TIP3   OH257616   5.087   0.883   1.785  0.5882 -0.6121  0.4067
12042TIP3    H157617   5.015   0.869   1.845  1.5692 -0.9331  1.5345
12042TIP3    H257618   5.059   0.957   1.731 -1.2031 -1.6774 -0.2044
12043TIP3   OH257619   4.901   6.644   2.522  0.1356  0.3257  0.2456
12043TIP3    H157620   4.899   6.736   2.496 -0.8215  0.3960  0.5339
12043TIP3    H257621   4.994   6.620   2.518  0.5507  1.6163  1.2718
12044TIP3   OH257622   0.551   5.944  12.089 -0.7143 -0.1464 -0.2548
12044TIP3    H157623   0.557   6.034  12.123 -0.2725 -0.8003  1.4968
12044TIP3    H257624   0.461   5.918  12.107 -0.3024 -0.7247  1.1263
12045TIP3   OH257625   3.202   0.347   6.468 -0.1183  0.6718 -0.0310
12045TIP3    H157626   3.120   0.389   6.493  0.3074  1.1931  0.5070
12045TIP3    H257627   3.231   0.302   6.547 -1.0259 -1.4516 -0.8214
12046TIP3   OH257628   2.735   3.148  15.027 -1.0805 -0.1095 -0.0128
12046TIP3    H157629   2.726   3.055  15.046 -0.4281 -0.3557 -0.8119
12046TIP3    H257630   2.736   3.191  15.113 -0.8909 -0.8869  0.3784
12047TIP3   OH257631   3.149   2.254   1.293  0.2015 -0.0986  0.3973
12047TIP3    H157632   3.101   2.172   1.279  0.1066 -0.1127  0.7974
12047TIP3    H257633   3.124   2.282   1.381 -1.0980  1.2416 -0.3367
12048TIP3   OH257634   2.828   1.341  12.086  0.2765 -0.5249  0.5304
12048TIP3    H157635   2.846   1.423  12.041  1.0689 -0.4688  0.9278
12048TIP3    H257636   2.740   1.316  12.056  0.2262  0.2070  0.0298
12049TIP3   OH257637   1.099   3.367  14.648  0.3180  0.2031  0.3449
12049TIP3    H157638   1.089   3.374  14.553  2.8303 -1.0241 -0.1072
12049TIP3    H257639   1.013   3.391  14.683 -1.0772 -0.5159 -2.2805
12050TIP3   OH257640   0.730   2.786   1.689 -0.8027  0.1116 -0.3671
12050TIP3    H157641   0.775   2.860   1.650  2.1281 -0.7606  1.0507
12050TIP3    H257642   0.676   2.824   1.759  1.2984  0.9347  0.8916
12051TIP3   OH257643   0.555   0.424  17.066 -0.3955 -0.2666  0.1646
12051TIP3    H157644   0.487   0.412  17.132 -0.3819 -0.8739  0.0720
12051TIP3    H257645   0.526   0.500  17.015 -0.4389  0.1619  0.8185
12052TIP3   OH257646   5.641   1.958   3.945 -0.7590 -0.2355  0.3043
12052TIP3    H157647   5.619   2.051   3.946  0.1632 -0.0199  1.0313
12052TIP3    H257648   5.561   1.914   3.975 -0.6272  0.4572  1.7331
12053TIP3   OH257649   5.779   2.555  14.585 -0.1488  0.0592 -0.0575
12053TIP3    H157650   5.741   2.514  14.507 -1.6091  1.5990 -0.2338
12053TIP3    H257651   5.711   2.546  14.652  0.0982  0.8774  0.3146
12054TIP3   OH257652   1.158   4.458   0.915  0.3285 -0.0982  0.1339
12054TIP3    H157653   1.186   4.545   0.944 -0.8538 -0.1254  1.5215
12054TIP3    H257654   1.212   4.439   0.839  0.9549  1.6425  0.0970
12055TIP3   OH257655   6.678   3.285  14.474  0.0337 -0.2384  0.4520
12055TIP3    H157656   6.646   3.301  14.563  1.1819 -0.6853  0.9679
12055TIP3    H257657   6.772   3.274  14.484  0.0957 -1.0083 -0.7289
12056TIP3   OH257658   3.323   1.766  11.499  0.0191 -0.3901  0.0805
12056TIP3    H157659   3.364   1.748  11.414 -0.9148 -3.3749  0.1615
12056TIP3    H257660   3.240   1.809  11.476  0.6936  0.7355 -0.3578
12057TIP3   OH257661   4.446   4.402  13.443  0.2132  0.0687 -0.1131
12057TIP3    H157662   4.404   4.488  13.443 -1.0361 -0.5151  0.5483
12057TIP3    H257663   4.449   4.377  13.350 -3.3603 -0.9662 -0.1029
12058TIP3   OH257664   3.072   1.142  13.700 -0.3541 -0.7340 -0.4639
12058TIP3    H157665   3.020   1.083  13.645 -0.5064 -1.1097  0.0767
12058TIP3    H257666   3.111   1.085  13.766 -1.4415 -0.0837  0.7879
12059TIP3   OH257667   1.195   4.621   1.446 -0.3461  0.0931 -0.0063
12059TIP3    H157668   1.279   4.641   1.488  0.0073 -2.3297  0.5818
12059TIP3    H257669   1.158   4.549   1.498 -3.0396  1.3680  0.0091
12060TIP3   OH257670   2.877   5.537   6.420  0.0745  0.2437  0.1287
12060TIP3    H157671   2.817   5.476   6.375 -0.7089  1.3878 -0.4244
12060TIP3    H257672   2.886   5.610   6.359  0.5557  0.9440  1.0233
12061TIP3   OH257673   5.804   4.521  12.548 -0.6697  0.0056  0.1994
12061TIP3    H157674   5.866   4.593  12.554 -0.1303 -0.3141 -1.2002
12061TIP3    H257675   5.720   4.564  12.528 -0.2124  0.2192 -1.3564
12062TIP3   OH257676   4.212   4.121   1.984 -0.1928  0.0163  0.2253
12062TIP3    H157677   4.251   4.079   2.061  0.8454  0.0896 -0.2438
12062TIP3    H257678   4.140   4.063   1.958 -0.7396  0.1368  1.4088
12063TIP3   OH257679   6.783   2.968   2.946 -0.6636 -0.5654 -0.0538
12063TIP3    H157680   6.759   3.060   2.952 -0.6977 -0.5987  0.3611
12063TIP3    H257681   6.875   2.968   2.917 -1.2177 -0.4423 -1.9587
12064TIP3   OH257682   0.509   1.638  16.573 -0.3769  0.2123 -0.2145
12064TIP3    H157683   0.602   1.655  16.586 -0.7461  1.9314  0.3476
12064TIP3    H257684   0.482   1.701  16.507 -1.3704  0.4974  0.4403
12065TIP3   OH257685   1.812   1.466   5.000 -0.3850 -0.7538 -0.6701
12065TIP3    H157686   1.877   1.533   4.978 -0.6332  0.0317  0.8375
12065TIP3    H257687   1.855   1.413   5.067 -0.2039 -2.1435 -1.8252
12066TIP3   OH257688   3.640   3.606   2.490  0.6512 -0.0894 -0.2748
12066TIP3    H157689   3.583   3.625   2.415  1.0898 -0.2243 -0.6433
12066TIP3    H257690   3.625   3.513   2.509  0.1525  0.0691  0.1387
12067TIP3   OH257691   3.806   5.633   4.642  0.6337  0.2582  0.0954
12067TIP3    H157692   3.862   5.635   4.564  0.6256  0.0872  0.0843
12067TIP3    H257693   3.868   5.634   4.716  0.6355  0.6611  0.0918
12068TIP3   OH257694   1.363   6.647  13.558  0.3126  0.3684  0.3787
12068TIP3    H157695   1.369   6.610  13.646 -0.5960  0.0063  0.3050
12068TIP3    H257696   1.411   6.585  13.503  0.2897  0.2260  0.5181
12069TIP3   OH257697   1.270   3.080  13.392  0.0073 -0.7777 -0.3591
12069TIP3    H157698   1.363   3.072  13.369  0.4782  1.5107  0.5028
12069TIP3    H257699   1.268   3.077  13.487 -0.6228  0.4756 -0.3089
12070TIP3   OH257700   0.337   0.339  16.443 -0.3303  0.3878  0.9894
12070TIP3    H157701   0.429   0.317  16.429  0.1804  1.5348  2.3691
12070TIP3    H257702   0.303   0.266  16.494 -0.2075 -0.0285  0.4937
12071TIP3   OH257703   2.143   2.786  14.055 -0.5787 -0.0139  0.1201
12071TIP3    H157704   2.173   2.824  13.973 -0.4291  0.8503  0.5593
12071TIP3    H257705   2.180   2.843  14.123 -1.5387 -0.1093  0.7455
12072TIP3   OH257706   2.218   0.828  15.441 -0.7666  0.5487 -0.0574
12072TIP3    H157707   2.137   0.852  15.485 -0.7824  1.5397 -0.5963
12072TIP3    H257708   2.287   0.874  15.489 -0.7474  1.3491 -0.8308
12073TIP3   OH257709   4.993   5.771   3.189 -0.0070  0.0563  0.1091
12073TIP3    H157710   4.934   5.705   3.222 -0.2794 -0.3994 -1.2137
12073TIP3    H257711   5.050   5.793   3.263 -1.2304 -0.1500  1.1390
12074TIP3   OH257712   6.362   1.455  15.079  0.3211  0.1132  0.0390
12074TIP3    H157713   6.296   1.387  15.067 -1.2706  1.5529  0.1338
12074TIP3    H257714   6.323   1.533  15.039  1.6232  1.2050  0.8245
12075TIP3   OH257715   3.080   4.171  11.152  0.4806 -0.3551  0.2970
12075TIP3    H157716   3.049   4.080  11.147 -1.5411  0.2883  0.2116
12075TIP3    H257717   3.017   4.214  11.211  0.3167  1.3918 -1.0838
12076TIP3   OH257718   6.544   6.088   0.739  0.1312  0.2348  0.1993
12076TIP3    H157719   6.461   6.093   0.786 -0.9342  0.2361 -1.5853
12076TIP3    H257720   6.595   6.023   0.787 -1.4313 -0.7755  0.5728
12077TIP3   OH257721   1.520   2.866   1.447 -0.1702 -0.0009 -0.8964
12077TIP3    H157722   1.596   2.809   1.432 -0.5447 -0.8379  0.2403
12077TIP3    H257723   1.548   2.927   1.515  0.1047  0.9594 -1.8485
12078TIP3   OH257724   2.429   5.477   5.214 -0.1304 -0.0486 -0.0884
12078TIP3    H157725   2.392   5.564   5.231 -1.9770 -0.3395 -2.1742
12078TIP3    H257726   2.496   5.492   5.147  0.8683 -0.0415  0.8790
12079TIP3   OH257727   1.030   6.711  14.870  0.0525 -0.4526 -0.5905
12079TIP3    H157728   0.959   6.647  14.875 -1.7674  1.4927 -0.1301
12079TIP3    H257729   1.063   6.718  14.959 -0.7467  0.2845 -0.3410
12080TIP3   OH257730   1.184   0.201  15.607  0.2309 -0.2526  0.0415
12080TIP3    H157731   1.277   0.222  15.608 -0.5485  4.4590  1.7291
12080TIP3    H257732   1.153   0.229  15.521  0.2303 -1.1557 -0.2600
12081TIP3   OH257733   1.929   3.430   3.010  0.6281 -0.4284  0.4575
12081TIP3    H157734   1.963   3.445   3.098  0.8253 -1.3717  0.5541
12081TIP3    H257735   1.975   3.494   2.955  0.1461  0.4949  1.1068
12082TIP3   OH257736   5.147   5.644  10.415  0.3822 -0.2725  0.6241
12082TIP3    H157737   5.058   5.664  10.442  0.1675  0.1100 -0.3386
12082TIP3    H257738   5.202   5.704  10.464  0.1483 -0.7557  1.4949
12083TIP3   OH257739   6.429   1.869  11.120  0.1593  0.6380  0.5607
12083TIP3    H157740   6.477   1.884  11.201  0.3869  1.9554  0.2110
12083TIP3    H257741   6.478   1.800  11.075  0.6699  0.6855  1.0392
12084TIP3   OH257742   5.587   0.672   2.618 -0.0240  0.5872  0.1053
12084TIP3    H157743   5.681   0.663   2.600 -0.0527  0.1285  0.1640
12084TIP3    H257744   5.552   0.583   2.605 -0.3402  0.6197  0.7354
12085TIP3   OH257745   1.472   4.976   5.918 -0.1266 -0.2813 -0.6261
12085TIP3    H157746   1.480   5.044   5.985 -1.0432 -1.4832  0.7636
12085TIP3    H257747   1.385   4.939   5.931 -0.3514 -0.5394 -2.5301
12086TIP3   OH257748   4.824   4.404  17.262  0.1867 -0.2610 -0.0498
12086TIP3    H157749   4.904   4.364  17.296 -0.8279 -1.3140  1.2264
12086TIP3    H257750   4.768   4.329  17.239 -1.1460  0.4227  0.8578
12087TIP3   OH257751   5.472   4.142   3.748 -0.1176 -0.1708  0.0814
12087TIP3    H157752   5.535   4.156   3.678  0.1699 -1.9723 -0.0759
12087TIP3    H257753   5.444   4.229   3.774  2.4349  0.7000  0.1584
12088TIP3   OH257754   1.702   3.544  11.957 -0.4991  0.1923  0.4772
12088TIP3    H157755   1.697   3.619  11.897  0.5509 -0.8332 -0.9816
12088TIP3    H257756   1.625   3.492  11.936 -0.3379  0.0286  0.2880
12089TIP3   OH257757   3.544   2.888   3.571  0.4373 -0.1576  0.2239
12089TIP3    H157758   3.569   2.936   3.492 -0.7651 -1.2274 -0.8577
12089TIP3    H257759   3.528   2.956   3.636  0.2014  0.8490 -0.8362
12090TIP3   OH257760   3.024   3.424   0.729 -0.2185 -0.0677 -0.0836
12090TIP3    H157761   3.014   3.415   0.824 -0.0937  1.2575  0.0653
12090TIP3    H257762   3.045   3.335   0.699 -2.8297 -1.0796  0.7776
12091TIP3   OH257763   4.492   4.052   4.431 -0.0093  0.3704 -0.1486
12091TIP3    H157764   4.533   4.049   4.345 -0.8130 -2.2441 -0.5312
12091TIP3    H257765   4.414   4.107   4.419 -0.2297 -0.1412 -1.1632
12092TIP3   OH257766   0.497   4.221   0.267 -0.5029  0.3131  0.7725
12092TIP3    H157767   0.496   4.139   0.218 -1.1483 -0.3704  1.8783
12092TIP3    H257768   0.583   4.223   0.308 -1.2114 -0.8941  2.4329
12093TIP3   OH257769   2.677   5.520  11.227 -0.0319 -0.3708  0.1187
12093TIP3    H157770   2.749   5.572  11.263 -0.5880 -0.1144  0.8906
12093TIP3    H257771   2.691   5.432  11.261 -0.9022  0.0015  1.5443
12094TIP3   OH257772   4.790   3.076   1.949  0.4523 -0.1596 -0.3367
12094TIP3    H157773   4.818   3.008   2.011 -0.1533 -1.1854 -1.1491
12094TIP3    H257774   4.760   3.148   2.005  0.9211 -0.6314  0.5505
12095TIP3   OH257775   3.025   1.618  17.015  0.3664 -0.2937 -0.1968
12095TIP3    H157776   3.049   1.702  16.976 -0.6654 -0.3570 -1.0100
12095TIP3    H257777   3.047   1.554  16.948  0.4149 -0.6006  0.1103
12096TIP3   OH257778   1.450   3.069  12.126  0.4478  0.1553  0.0192
12096TIP3    H157779   1.536   3.095  12.161  0.1287  0.5452  0.5380
12096TIP3    H257780   1.464   2.981  12.093  0.7091 -0.3683  1.4336
12097TIP3   OH257781   1.084   3.828  13.029  0.0108  0.2868  0.2288
12097TIP3    H157782   1.124   3.745  13.003 -0.1406  0.9983 -2.6883
12097TIP3    H257783   0.992   3.819  13.005 -0.3643  0.7506  1.4127
12098TIP3   OH257784   3.578   0.569  11.167  0.2251 -0.0801  0.3560
12098TIP3    H157785   3.549   0.561  11.076 -1.2387  2.8033  0.4645
12098TIP3    H257786   3.512   0.521  11.217  0.1895 -0.3742  0.0354
12099TIP3   OH257787   1.726   4.159  16.673 -0.1794  0.2769 -0.1284
12099TIP3    H157788   1.723   4.246  16.633 -1.0670 -0.0599 -0.8386
12099TIP3    H257789   1.676   4.104  16.613  1.5786 -1.0499 -0.4542
12100TIP3   OH257790   4.618   4.374   4.355 -0.1021  0.0895  0.5110
12100TIP3    H157791   4.635   4.371   4.261 -1.9978  0.4517  0.1306
12100TIP3    H257792   4.702   4.351   4.395  0.4166 -1.2780 -1.2700
12101TIP3   OH257793   1.829   5.907   2.573  0.0558 -0.0103 -0.6519
12101TIP3    H157794   1.866   5.922   2.660 -1.0270  0.7627 -0.3026
12101TIP3    H257795   1.895   5.855   2.527  0.9416  0.1571  0.3997
12102TIP3   OH257796   1.722   4.709  14.269 -0.3180 -0.0997 -0.1037
12102TIP3    H157797   1.753   4.752  14.349 -1.6211  1.9405 -0.6097
12102TIP3    H257798   1.747   4.618  14.280  0.9075  0.4056  1.9323
12103TIP3   OH257799   0.694   6.511  12.599  0.5903 -0.0411 -0.2887
12103TIP3    H157800   0.729   6.588  12.645  0.0230  0.2062 -0.2683
12103TIP3    H257801   0.601   6.529  12.588  0.4810 -0.6544 -0.4329
12104TIP3   OH257802   0.739   5.529  14.257  0.6995  0.1161 -0.2769
12104TIP3    H157803   0.681   5.515  14.332  0.9559  0.6116  0.0255
12104TIP3    H257804   0.680   5.550  14.184  0.4024 -1.1385 -0.4122
12105TIP3   OH257805   5.742   2.308   5.593 -0.4313 -0.4179  0.3734
12105TIP3    H157806   5.833   2.330   5.575 -0.0628  0.2149  2.6188
12105TIP3    H257807   5.701   2.392   5.615 -1.8728 -0.5235 -1.5667
12106TIP3   OH257808   5.828   1.941  10.890 -0.3767  0.1142  0.0485
12106TIP3    H157809   5.898   1.927  10.954 -0.1090 -0.7839 -0.4293
12106TIP3    H257810   5.837   1.869  10.828  0.0386  1.5274 -1.6270
12107TIP3   OH257811   0.509   4.349   1.267  0.8109  0.2875  0.1487
12107TIP3    H157812   0.531   4.329   1.176  1.9668 -0.9302  0.6679
12107TIP3    H257813   0.455   4.276   1.295  0.0481  0.9061  0.3043
12108TIP3   OH257814   1.963   1.687   5.699  0.2821 -0.1067 -0.3794
12108TIP3    H157815   1.907   1.636   5.640 -1.1648  0.8221  0.1298
12108TIP3    H257816   1.918   1.681   5.784  1.6420 -0.3588  0.3489
12109TIP3   OH257817   6.042   2.686   0.988  0.4350 -0.1165 -0.2846
12109TIP3    H157818   6.099   2.686   0.911 -2.4161  0.5538 -2.6085
12109TIP3    H257819   5.974   2.622   0.967  0.3472 -1.0307  2.4254
12110TIP3   OH257820   2.502   3.990   3.548  0.3966  0.1110 -0.4422
12110TIP3    H157821   2.518   3.907   3.503  1.3659  0.5224 -0.8878
12110TIP3    H257822   2.494   3.967   3.640  0.9583 -0.4426 -0.5284
12111TIP3   OH257823   0.956   0.055  14.386 -0.2581  0.2818 -0.2738
12111TIP3    H157824   0.903   0.060  14.306 -0.4833  2.4252 -0.0492
12111TIP3    H257825   0.984   0.145  14.401 -0.3020 -0.0585  2.1203
12112TIP3   OH257826   1.539   3.885  17.038 -0.5031 -0.5841 -0.1148
12112TIP3    H157827   1.481   3.948  16.995  0.6414  1.1376  0.7906
12112TIP3    H257828   1.593   3.850  16.967  0.5489  1.3451 -0.3299
12113TIP3   OH257829   1.527   1.959  15.080  0.1066  0.7314  0.5047
12113TIP3    H157830   1.510   1.943  15.173 -0.7791  0.7318  0.3571
12113TIP3    H257831   1.557   1.875  15.046 -0.8501  0.3724  0.5239
12114TIP3   OH257832   3.831   6.627  14.315 -0.3236  0.4211  0.4672
12114TIP3    H157833   3.913   6.621  14.364 -1.1012  1.1992  1.9090
12114TIP3    H257834   3.794   6.712  14.340 -1.1998  0.4269 -0.7615
12115TIP3   OH257835   3.568   6.226  12.985 -0.1396  0.0133  0.1739
12115TIP3    H157836   3.649   6.206  12.937 -0.4257  0.3906 -0.4696
12115TIP3    H257837   3.508   6.156  12.961  0.9803 -2.1887  3.1917
12116TIP3   OH257838   2.902   6.524   5.491  0.2146 -0.5501 -0.2137
12116TIP3    H157839   2.985   6.570   5.504  0.8219 -1.6302 -0.2184
12116TIP3    H257840   2.889   6.473   5.570 -0.1652 -0.8311 -0.4517
12117TIP3   OH257841   6.455   3.826   5.538 -0.0808 -0.2768 -0.2071
12117TIP3    H157842   6.483   3.822   5.630  1.6071  0.2544 -0.6710
12117TIP3    H257843   6.528   3.867   5.492 -0.9650 -0.3886 -1.7826
12118TIP3   OH257844   4.951   2.508   4.069  0.4641  0.1102 -0.2828
12118TIP3    H157845   4.889   2.444   4.103 -0.6525  1.3766  0.1354
12118TIP3    H257846   5.018   2.455   4.025 -0.4704 -1.3306 -0.0414
12119TIP3   OH257847   4.573   3.130   1.013  0.2124 -0.3011 -0.7361
12119TIP3    H157848   4.653   3.177   1.038 -0.6577  0.2340  1.2932
12119TIP3    H257849   4.528   3.190   0.953 -0.1083  0.8420  0.5654
12120TIP3   OH257850   1.496   0.779  12.161 -0.1819 -0.1929  0.0663
12120TIP3    H157851   1.472   0.692  12.128  0.0142 -0.0982 -0.3407
12120TIP3    H257852   1.516   0.765  12.253  0.4263 -0.7029 -0.1305
12121TIP3   OH257853   5.073   6.233   0.187  0.3166 -0.3795 -0.3701
12121TIP3    H157854   5.116   6.288   0.252 -0.1775  0.0286 -0.3901
12121TIP3    H257855   5.018   6.292   0.136 -1.4624 -1.0988  0.6172
12122TIP3   OH257856   6.025   0.188  10.416 -0.5054 -0.4709 -0.0165
12122TIP3    H157857   6.014   0.238  10.335 -1.0090 -0.6125 -0.0351
12122TIP3    H257858   6.117   0.163  10.415 -0.3145  0.1998 -0.1574
12123TIP3   OH257859   0.047   2.133  11.758  0.0686 -0.3609 -0.0223
12123TIP3    H157860   0.068   2.042  11.778  0.4437  0.1956  2.4730
12123TIP3    H257861   0.035   2.174  11.843 -0.1603  1.9296 -1.0784
12124TIP3   OH257862   5.711   3.481   4.108 -1.0263 -0.0768 -0.1584
12124TIP3    H157863   5.689   3.527   4.027  0.1084 -2.1065 -1.7184
12124TIP3    H257864   5.627   3.456   4.146 -1.5669  0.6684 -0.8534
12125TIP3   OH257865   2.259   4.261  16.694 -0.2184  0.5652 -0.2045
12125TIP3    H157866   2.268   4.215  16.777  0.8249 -0.6169 -0.9443
12125TIP3    H257867   2.228   4.348  16.718 -2.0829 -0.4183  1.2580
12126TIP3   OH257868   3.201   6.753   0.191 -0.4485  0.2089  0.3244
12126TIP3    H157869   3.136   6.691   0.226 -0.0006 -1.5471 -1.7277
12126TIP3    H257870   3.155   6.836   0.186 -1.8186 -0.4773  0.9787
12127TIP3   OH257871   1.054   2.470   0.547  0.1177 -0.4091 -0.2970
12127TIP3    H157872   1.071   2.383   0.512  1.7472 -0.1463 -0.1978
12127TIP3    H257873   1.091   2.468   0.635  2.1525  1.0187 -1.0428
12128TIP3   OH257874   0.325   0.125   0.175  0.4331  0.1248  0.4377
12128TIP3    H157875   0.271   0.173   0.239  0.1133  0.6746 -0.2332
12128TIP3    H257876   0.287   0.148   0.090  1.5661  0.3063 -0.0311
12129TIP3   OH257877   1.671   1.467  15.661  0.2224 -0.0093 -0.3815
12129TIP3    H157878   1.758   1.498  15.637  0.7222 -0.7951  0.3295
12129TIP3    H257879   1.688   1.396  15.723 -0.9393  0.3858  0.4198
12130TIP3   OH257880   1.119   6.327  15.154 -0.1148  0.4821 -0.3923
12130TIP3    H157881   1.124   6.262  15.225 -1.9912 -0.0668 -0.7100
12130TIP3    H257882   1.162   6.405  15.190  2.2567 -0.9026 -0.0303
12131TIP3   OH257883   0.389   4.694   0.333 -0.6059  0.2135 -0.1489
12131TIP3    H157884   0.307   4.740   0.316 -1.6639 -1.6757 -0.4556
12131TIP3    H257885   0.446   4.760   0.373 -2.1275  1.6724 -0.2879
12132TIP3   OH257886   1.342   1.802  10.773 -0.5073  0.3168 -0.3835
12132TIP3    H157887   1.402   1.780  10.703 -0.0734 -1.3918  0.4481
12132TIP3    H257888   1.298   1.719  10.793 -0.8504  0.8292  1.1319
12133TIP3   OH257889   6.638   4.740  16.437 -0.6485 -0.7072  0.1790
12133TIP3    H157890   6.625   4.829  16.404  2.0208 -0.0815  0.5820
12133TIP3    H257891   6.551   4.701  16.434 -2.3363  2.4712  1.6881
12134TIP3   OH257892   2.726   1.359  11.039  0.3049  0.0647 -0.3286
12134TIP3    H157893   2.795   1.315  10.989 -0.6505  0.1475 -1.7801
12134TIP3    H257894   2.679   1.411  10.974 -1.3379 -0.2518  0.5717
12135TIP3   OH257895   4.614   1.483  15.792  0.2612  0.2627  0.2888
12135TIP3    H157896   4.675   1.495  15.719  1.5623  0.5829  1.3797
12135TIP3    H257897   4.586   1.571  15.815  0.0352  0.1821  0.3253
12136TIP3   OH257898   5.422   2.455  11.379  0.6402 -0.4257  0.4266
12136TIP3    H157899   5.486   2.480  11.445  1.9886  2.9978 -1.8955
12136TIP3    H257900   5.452   2.370  11.347  0.8551 -1.3827  2.9797
12137TIP3   OH257901   3.252   3.193  11.617  0.0794 -0.1182  0.1248
12137TIP3    H157902   3.255   3.135  11.541 -2.2458  0.8331 -0.8011
12137TIP3    H257903   3.182   3.255  11.597  1.2368  1.8909  1.8725
12138TIP3   OH257904   2.662   0.178  14.778 -0.4165 -0.1350 -0.1703
12138TIP3    H157905   2.757   0.171  14.777 -0.3420  0.5246 -1.8499
12138TIP3    H257906   2.644   0.269  14.754 -1.4795 -0.1876  0.3454
12139TIP3   OH257907   6.115   0.574   0.817 -0.1962  0.0088  0.5189
12139TIP3    H157908   6.119   0.610   0.906  2.4600  1.5984 -0.1451
12139TIP3    H257909   6.171   0.632   0.765 -1.5787 -0.9312 -2.2050
12140TIP3   OH257910   6.512   4.662  16.932 -0.0644 -0.0394  0.2707
12140TIP3    H157911   6.541   4.723  16.865 -2.1325 -0.4482 -1.1180
12140TIP3    H257912   6.543   4.576  16.902  1.4364  0.0887  1.3644
12141TIP3   OH257913   0.890   1.490  12.217 -0.0844 -0.3446 -1.0203
12141TIP3    H157914   0.932   1.404  12.224  0.1543 -0.1488  0.2158
12141TIP3    H257915   0.961   1.553  12.234 -0.5074  0.0479 -0.6814
12142TIP3   OH257916   2.931   1.014  13.492  0.1366 -0.0521  0.2403
12142TIP3    H157917   2.835   1.008  13.497  0.2281 -3.7502  0.3676
12142TIP3    H257918   2.950   1.011  13.399  0.1417 -0.0946  0.2425
12143TIP3   OH257919   4.033   6.461   5.647  0.2775 -0.1402  0.0339
12143TIP3    H157920   4.109   6.407   5.627 -0.1047 -0.4974 -0.4871
12143TIP3    H257921   4.066   6.551   5.644  0.0683 -0.0339 -3.4059
12144TIP3   OH257922   5.976   2.399   4.106 -0.3232  0.5700  0.0668
12144TIP3    H157923   6.025   2.329   4.148  0.1038  1.5839  1.3443
12144TIP3    H257924   6.033   2.476   4.113 -0.7755  1.0599 -1.2940
12145TIP3   OH257925   4.112   1.475   2.181  0.1346  0.1012 -0.6215
12145TIP3    H157926   4.192   1.438   2.144  0.5364  0.5067 -0.1680
12145TIP3    H257927   4.126   1.570   2.177  0.5816  0.1588  1.3909
12146TIP3   OH257928   0.268   4.583  15.896 -0.0660  0.2373 -0.2432
12146TIP3    H157929   0.277   4.622  15.983 -0.3809  0.4613 -0.3109
12146TIP3    H257930   0.326   4.635  15.841  1.9889 -1.3608  0.2816
12147TIP3   OH257931   2.826   0.116  12.489  0.4343  0.1878 -0.0046
12147TIP3    H157932   2.911   0.160  12.478  0.4578  0.1343 -0.0362
12147TIP3    H257933   2.771   0.153  12.419  0.5944 -0.1768 -0.3259
12148TIP3   OH257934   6.411   3.525   4.796 -0.1970 -0.0860  0.0210
12148TIP3    H157935   6.329   3.489   4.761 -0.1253  0.2870 -0.5467
12148TIP3    H257936   6.394   3.619   4.803  0.3094  0.0507 -0.4744
12149TIP3   OH257937   5.480   4.312  14.910  0.1952 -0.3737  0.3459
12149TIP3    H157938   5.489   4.374  14.837  0.2386 -0.5764  0.1806
12149TIP3    H257939   5.551   4.336  14.971  0.1608 -0.2078  0.3203
12150TIP3   OH257940   1.152   0.371  14.960  0.6160 -0.4957 -0.7658
12150TIP3    H157941   1.200   0.324  15.029  0.6965 -1.8544 -1.7184
12150TIP3    H257942   1.199   0.453  14.950  0.5375 -0.2095  0.8720
12151TIP3   OH257943   6.738   2.878  14.369 -0.3395  0.4518 -0.3565
12151TIP3    H157944   6.702   2.951  14.319  0.3806  0.9158 -0.2028
12151TIP3    H257945   6.833   2.886  14.359 -0.2687 -1.4455 -1.7258
12152TIP3   OH257946   5.553   4.623  12.506 -0.0028 -0.5796  0.2608
12152TIP3    H157947   5.505   4.621  12.423  0.4027 -2.1660  0.0466
12152TIP3    H257948   5.494   4.582  12.569  0.7290 -1.7873  0.1753
12153TIP3   OH257949   2.530   5.714  15.904  0.2357 -0.1511  0.0334
12153TIP3    H157950   2.557   5.625  15.880 -0.6604  0.0147 -1.7418
12153TIP3    H257951   2.605   5.769  15.879  0.6974 -0.3650  0.9173
12154TIP3   OH257952   0.572   2.858  15.585  0.5724  0.0449 -0.6116
12154TIP3    H157953   0.499   2.863  15.524 -0.8382 -1.6301  0.8658
12154TIP3    H257954   0.626   2.786  15.553 -0.2159 -0.8938  0.1119
12155TIP3   OH257955   4.113   0.126   4.927  0.3043  0.2674  0.7914
12155TIP3    H157956   4.067   0.100   5.007 -0.8194  0.5495  0.2680
12155TIP3    H257957   4.079   0.213   4.907  0.2541  0.0345 -0.2093
12156TIP3   OH257958   3.953   5.545  11.321  0.3195  0.5244  0.3130
12156TIP3    H157959   3.926   5.540  11.413 -1.5352  0.1206 -0.2159
12156TIP3    H257960   3.881   5.589  11.277  2.0059  2.4355 -0.6987
12157TIP3   OH257961   6.412   0.468  16.022  0.3178 -0.4563 -0.3698
12157TIP3    H157962   6.382   0.521  15.949 -1.6666 -1.1824 -0.1584
12157TIP3    H257963   6.503   0.447  16.001  0.4760  1.1720 -1.5077
12158TIP3   OH257964   6.325   5.762   5.022 -0.4378  0.0491 -0.1152
12158TIP3    H157965   6.269   5.744   4.947 -1.5426 -3.1117  1.2560
12158TIP3    H257966   6.410   5.725   4.998 -0.3761  0.3377 -0.3408
12159TIP3   OH257967   4.701   2.509   4.750  0.3913 -0.6250 -0.0966
12159TIP3    H157968   4.761   2.525   4.677  1.2391 -0.9133  0.5193
12159TIP3    H257969   4.749   2.451   4.809  0.7499  1.5676  1.9317
12160TIP3   OH257970   3.948   3.153  16.334 -0.5837  0.4063  0.4691
12160TIP3    H157971   3.978   3.087  16.397  2.6791  1.0528 -0.2329
12160TIP3    H257972   3.947   3.235  16.383 -2.5858  0.2303  0.7943
12161TIP3   OH257973   2.949   3.016  14.447  0.1809 -0.2137 -0.5733
12161TIP3    H157974   2.996   2.939  14.417  1.5319  0.8528 -1.3064
12161TIP3    H257975   2.951   3.076  14.373 -1.4720  0.2756 -0.2644
12162TIP3   OH257976   4.115   0.971   5.629 -0.9698  0.6175  0.3205
12162TIP3    H157977   4.074   0.912   5.692 -0.0934  1.1786  1.4638
12162TIP3    H257978   4.067   0.957   5.547 -0.8464 -1.5686  0.5857
12163TIP3   OH257979   4.502   1.604   4.625 -0.9035  0.0658  0.0337
12163TIP3    H157980   4.583   1.651   4.645 -1.1967  0.1163  1.1489
12163TIP3    H257981   4.532   1.520   4.589 -0.3760  0.6061 -0.8622
12164TIP3   OH257982   1.714   4.147  11.628 -0.0906 -0.1234  0.0947
12164TIP3    H157983   1.627   4.108  11.618 -0.4519  0.5208  0.6699
12164TIP3    H257984   1.718   4.213  11.559 -0.7626  1.0801  1.1778
12165TIP3   OH257985   0.954   0.380   2.752 -0.0725 -0.1340  0.3931
12165TIP3    H157986   0.908   0.301   2.722 -4.2365  2.4506 -0.9119
12165TIP3    H257987   0.979   0.425   2.671 -2.3222  2.1168  0.8052
12166TIP3   OH257988   0.005   2.995   5.153 -0.7171 -0.1040  0.0089
12166TIP3    H157989  -0.002   2.905   5.183  0.9722  0.1098  1.2351
12166TIP3    H257990  -0.081   3.034   5.171 -0.1094 -0.1747  4.2828
12167TIP3   OH257991   5.145   5.882   1.661 -0.1739 -0.1205  0.5081
12167TIP3    H157992   5.209   5.907   1.727  0.5253  0.0605 -0.2193
12167TIP3    H257993   5.168   5.791   1.639 -1.4472 -0.7717  1.6924
12168TIP3   OH257994   5.995   1.017   3.935 -0.3252 -0.3289 -0.0848
12168TIP3    H157995   5.948   1.073   3.997 -0.4131  0.6580 -1.0044
12168TIP3    H257996   6.069   1.070   3.906  0.4538 -1.2660  0.1264
12169TIP3   OH257997   2.530   5.331  13.216  0.6334  0.1428  0.0781
12169TIP3    H157998   2.510   5.239  13.198  2.2318 -0.2849  0.3218
12169TIP3    H257999   2.588   5.357  13.145 -0.6836  1.3272 -0.6051
12170TIP3   OH258000   5.943   5.504   3.234 -0.0835  0.5056 -0.2447
12170TIP3    H158001   6.016   5.520   3.294 -0.3411  0.7871 -0.0002
12170TIP3    H258002   5.903   5.423   3.266  1.1240 -0.5991 -1.3871
12171TIP3   OH258003   6.675   2.469  11.345 -0.5788 -1.0316  0.1275
12171TIP3    H158004   6.585   2.476  11.379 -0.4789 -0.8667  0.3651
12171TIP3    H258005   6.730   2.487  11.421 -0.3421 -1.3352  0.0263
12172TIP3   OH258006   0.341   5.485   5.274  0.4425 -0.0570 -0.3452
12172TIP3    H158007   0.288   5.413   5.308  2.1568 -1.0806  0.3083
12172TIP3    H258008   0.372   5.454   5.189  0.3089  0.3583 -0.5453
12173TIP3   OH258009   4.731   3.746  13.678 -0.3480 -0.2297  0.1924
12173TIP3    H158010   4.638   3.752  13.654 -0.4009 -0.9194  0.2103
12173TIP3    H258011   4.775   3.715  13.599 -0.0661  0.5026  0.0575
12174TIP3   OH258012   4.060   6.410   0.609 -0.3044  0.4143  0.0451
12174TIP3    H158013   4.148   6.441   0.590 -0.8524  1.9630 -0.0933
12174TIP3    H258014   4.040   6.446   0.695 -1.0739  0.7098 -0.2480
12175TIP3   OH258015   5.268   3.909   6.133  0.2343  0.4106  0.3090
12175TIP3    H158016   5.182   3.950   6.144  1.0048  2.0644  0.3505
12175TIP3    H258017   5.327   3.962   6.186  1.0276 -1.7261  1.7109
12176TIP3   OH258018   2.259   5.297   5.104  0.2023  0.2670 -0.0952
12176TIP3    H158019   2.308   5.371   5.140 -1.5748  1.3849  0.1389
12176TIP3    H258020   2.204   5.335   5.036 -0.5091 -0.9131 -0.2082
12177TIP3   OH258021   3.600   1.525   4.285 -0.1273  0.5348  0.2511
12177TIP3    H158022   3.531   1.583   4.254 -1.4477 -1.2583 -0.3394
12177TIP3    H258023   3.556   1.465   4.345  0.8532 -0.7645 -0.2796
12178TIP3   OH258024   3.251   4.531  13.449 -0.6001 -0.0689 -0.1124
12178TIP3    H158025   3.284   4.615  13.480 -1.4287  0.0568  0.4836
12178TIP3    H258026   3.159   4.548  13.429 -0.8203 -0.8616  0.1698
12179TIP3   OH258027   5.826   1.372  12.263  0.1721 -0.0574 -0.7532
12179TIP3    H158028   5.847   1.366  12.356  0.3577  0.5595 -0.7478
12179TIP3    H258029   5.749   1.429  12.259 -0.3821 -0.8034 -0.9148
12180TIP3   OH258030   0.431   1.422  12.881  0.3959  0.1242 -0.3762
12180TIP3    H158031   0.456   1.329  12.878  0.1199  0.0136  0.4875
12180TIP3    H258032   0.393   1.439  12.795 -1.3172 -1.0991  0.0706
12181TIP3   OH258033   6.152   4.707  12.919  0.0957  0.1121  0.1272
12181TIP3    H158034   6.227   4.760  12.891  0.7002 -0.9395 -0.2858
12181TIP3    H258035   6.118   4.667  12.839 -1.3910  1.1433  0.1931
12182TIP3   OH258036   6.039   6.104  11.566 -0.1517 -0.4945  1.0917
12182TIP3    H158037   6.019   6.192  11.534  2.9881  0.8593  2.3694
12182TIP3    H258038   5.981   6.091  11.640 -0.9235  0.3352  0.6515
12183TIP3   OH258039   2.054   5.440   1.417  0.2011  0.0544 -0.1813
12183TIP3    H158040   2.083   5.510   1.359 -1.6312  1.1302  0.1204
12183TIP3    H258041   2.010   5.378   1.358 -3.1303  1.9353  0.0623
12184TIP3   OH258042   6.372   5.203   1.007  0.1152  0.1440 -0.2921
12184TIP3    H158043   6.282   5.170   1.005 -0.4583  1.4862  1.0987
12184TIP3    H258044   6.401   5.201   0.916 -1.0164 -1.0801 -0.6571
12185TIP3   OH258045   5.842   6.504  16.068  0.9362 -1.3434 -0.0600
12185TIP3    H158046   5.832   6.434  16.003 -0.3060 -0.0430 -1.3394
12185TIP3    H258047   5.909   6.562  16.032  1.3901 -1.4347  0.6105
12186TIP3   OH258048   3.566   6.671   6.726 -0.5500 -0.2869 -0.0902
12186TIP3    H158049   3.496   6.688   6.663  0.5220 -0.3685 -1.3472
12186TIP3    H258050   3.640   6.723   6.695  0.0813 -0.5130  0.9760
12187TIP3   OH258051   0.155   4.763  15.550 -0.3237  0.1804 -0.0334
12187TIP3    H158052   0.242   4.732  15.576  0.2935  1.7648 -0.1033
12187TIP3    H258053   0.125   4.699  15.486  0.4852 -0.7670  0.4987
12188TIP3   OH258054   2.307   1.064  16.197 -0.1753 -0.2111  0.2561
12188TIP3    H158055   2.283   1.129  16.263 -1.3074 -0.0531 -0.2985
12188TIP3    H258056   2.315   1.114  16.116  0.7350 -0.4831  0.1694
12189TIP3   OH258057   2.181   3.280  11.790 -0.2984  0.3822 -0.0358
12189TIP3    H158058   2.248   3.258  11.856  0.0991 -0.4352 -0.6933
12189TIP3    H258059   2.098   3.257  11.832 -0.0006 -0.8205 -0.0633
12190TIP3   OH258060   2.431   3.893   1.114  0.3578 -0.0135  0.1573
12190TIP3    H158061   2.463   3.885   1.024 -1.0512 -2.1171 -0.2364
12190TIP3    H258062   2.345   3.850   1.112  0.4930 -0.5004  2.6102
12191TIP3   OH258063   6.582   0.559  12.823 -0.0336 -0.2411 -0.4251
12191TIP3    H158064   6.536   0.489  12.869  0.5282 -0.0950  0.3820
12191TIP3    H258065   6.634   0.513  12.756  1.0296 -0.6993  0.6839
12192TIP3   OH258066   4.731   0.707   1.244  0.1683  0.0473 -0.2873
12192TIP3    H158067   4.736   0.731   1.151  0.0314 -0.6823 -0.4867
12192TIP3    H258068   4.638   0.716   1.266  0.3039  0.8884 -0.0340
12193TIP3   OH258069   0.941   1.087   0.333  0.3839  0.1136  0.0493
12193TIP3    H158070   1.019   1.056   0.287 -0.0024 -0.1231 -0.4574
12193TIP3    H258071   0.893   1.137   0.267 -1.2970 -2.0702 -0.5163
12194TIP3   OH258072   6.186   3.988  14.786  0.3187 -0.3752  0.3960
12194TIP3    H158073   6.187   3.900  14.824  2.0893 -1.0871 -1.0980
12194TIP3    H258074   6.279   4.012  14.780  0.2062 -0.2853 -3.2105
12195TIP3   OH258075   4.062   3.988   5.166  0.6618  0.2376  0.0679
12195TIP3    H158076   4.104   4.036   5.096  2.6237 -1.0886  0.2642
12195TIP3    H258077   3.984   3.950   5.125  0.7178  1.0725 -0.8539
12196TIP3   OH258078   1.911   4.294   0.880 -0.2106 -0.2081 -0.3609
12196TIP3    H158079   1.964   4.234   0.828  0.3007  0.3417 -0.4785
12196TIP3    H258080   1.971   4.327   0.947 -0.4324  0.3331 -0.4256
12197TIP3   OH258081   5.505   3.597   5.011  0.1654 -0.1211  0.3685
12197TIP3    H158082   5.423   3.641   4.990  1.8116  3.0432 -0.1259
12197TIP3    H258083   5.517   3.533   4.941 -1.6681 -0.3734  0.2482
12198TIP3   OH258084   5.315   4.686  10.596 -0.0782 -0.2894 -0.6720
12198TIP3    H158085   5.384   4.620  10.605  0.7987  0.8812  1.9235
12198TIP3    H258086   5.359   4.763  10.560 -0.9433 -0.7638 -2.9289
12199TIP3   OH258087   0.228   5.680  13.790  0.0067  0.1579 -0.2032
12199TIP3    H158088   0.140   5.706  13.815  0.5843  0.3661  1.7759
12199TIP3    H258089   0.284   5.751  13.821  0.9376 -0.2413 -0.9165
12200TIP3   OH258090   4.186   2.793   1.146 -0.1517  0.3309  0.0003
12200TIP3    H158091   4.123   2.729   1.179 -1.7326  0.9217 -1.6865
12200TIP3    H258092   4.269   2.746   1.144 -0.5354 -0.5581  2.0676
12201TIP3   OH258093   1.355   4.605  14.336 -0.3133 -0.4900  0.2513
12201TIP3    H158094   1.271   4.575  14.370 -0.5210  0.0299  0.2129
12201TIP3    H258095   1.410   4.527  14.334 -0.6285 -0.7300  0.7866
12202TIP3   OH258096   5.731   4.352  11.437 -0.2038 -0.6614 -0.5083
12202TIP3    H158097   5.710   4.429  11.385 -0.4293  0.7422  1.5322
12202TIP3    H258098   5.661   4.289  11.418 -0.9284  0.2753 -0.9855
12203TIP3   OH258099   2.800   3.385  12.594 -0.5240 -0.5549  1.0336
12203TIP3    H158100   2.817   3.291  12.601  0.2726 -0.4168  1.0548
12203TIP3    H258101   2.883   3.427  12.620 -1.2917  0.1887  2.3725
12204TIP3   OH258102   2.277   5.889   2.640 -0.0695  0.3394  0.1943
12204TIP3    H158103   2.355   5.924   2.597 -0.1845  0.4258  0.0552
12204TIP3    H258104   2.241   5.963   2.689  1.5193 -0.3552  2.6300
12205TIP3   OH258105   5.037   1.702   2.855  0.0013  0.1885  0.5992
12205TIP3    H158106   5.106   1.762   2.884  1.0733 -0.7510  0.0450
12205TIP3    H258107   5.068   1.669   2.771 -0.1602 -1.7548  1.2495
12206TIP3   OH258108   3.343   6.245  16.085 -0.4427  0.1039  0.0904
12206TIP3    H158109   3.283   6.287  16.146 -0.1582  2.6293 -1.2262
12206TIP3    H258110   3.302   6.256  15.999  1.3058  0.8790 -0.6964
12207TIP3   OH258111   3.417   3.435   1.878 -0.3478  0.0101 -0.2209
12207TIP3    H158112   3.425   3.446   1.784  2.0346 -1.2260 -0.2276
12207TIP3    H258113   3.390   3.522   1.910 -2.0181  0.2363 -2.0510
12208TIP3   OH258114   6.164   5.415  10.428  0.8143 -0.0413 -0.1900
12208TIP3    H158115   6.099   5.380  10.489  1.0592  1.1983  0.8402
12208TIP3    H258116   6.162   5.510  10.443  2.2784  0.1006 -0.7295
12209TIP3   OH258117   5.000   5.449  15.242 -0.0096  0.3183  0.3190
12209TIP3    H158118   4.956   5.404  15.314 -0.5522  1.4256  0.6895
12209TIP3    H258119   4.968   5.539  15.246 -0.7396  0.2104 -1.8586
12210TIP3   OH258120   4.646   0.262  11.110 -0.1451 -0.3174 -0.0282
12210TIP3    H158121   4.675   0.218  11.190  0.3463 -0.1196 -0.0951
12210TIP3    H258122   4.596   0.196  11.063  0.8606 -0.9140 -0.2857
12211TIP3   OH258123   5.887   2.832  12.946  0.0099  0.2760  0.6093
12211TIP3    H158124   5.949   2.866  13.011 -0.7509  1.0783  0.9436
12211TIP3    H258125   5.826   2.779  12.998 -3.4695  4.6207  1.5522
12212TIP3   OH258126   1.016   2.983  16.442  0.1441 -0.7740 -0.1560
12212TIP3    H158127   1.078   2.983  16.370 -0.3756 -0.4142 -0.6115
12212TIP3    H258128   1.020   3.072  16.478 -1.5613 -0.1162 -1.4802
12213TIP3   OH258129   6.716   0.544  13.570 -0.3023 -0.4541  0.4068
12213TIP3    H158130   6.680   0.456  13.559 -1.4683  0.1461 -0.8593
12213TIP3    H258131   6.688   0.571  13.658  0.4205 -1.4765  0.9763
12214TIP3   OH258132   5.464   6.545  12.763  0.2910  0.3282  0.4760
12214TIP3    H158133   5.369   6.536  12.756  0.3854 -0.8276  0.4883
12214TIP3    H258134   5.477   6.608  12.834 -0.4779  1.7341 -0.5746
12215TIP3   OH258135   5.209   5.191   3.045  0.1333  0.2133  0.3253
12215TIP3    H158136   5.165   5.269   3.009 -1.6251 -0.8107  0.1193
12215TIP3    H258137   5.145   5.154   3.105  0.1839 -2.0643 -0.9314
12216TIP3   OH258138   6.332   2.823  13.917 -0.3617  0.3133  0.2926
12216TIP3    H158139   6.415   2.835  13.964  1.2199 -3.7994 -0.9960
12216TIP3    H258140   6.341   2.877  13.838  0.7297  0.6274  0.6213
12217TIP3   OH258141   6.713   5.620   1.491  0.4822 -0.6651 -0.1400
12217TIP3    H158142   6.700   5.525   1.492 -0.5863 -0.6300  3.5944
12217TIP3    H258143   6.625   5.656   1.500  0.9716  0.6893 -0.5075
12218TIP3   OH258144   3.873   4.149  14.492 -0.0125 -0.3076  0.2284
12218TIP3    H158145   3.895   4.064  14.453  1.3319  0.3574 -0.5148
12218TIP3    H258146   3.891   4.137  14.585 -0.6932 -1.1009  0.2730
12219TIP3   OH258147   3.549   5.409  14.654  0.5387  0.0121  0.9748
12219TIP3    H158148   3.605   5.393  14.731  1.2264 -0.0763  0.4653
12219TIP3    H258149   3.594   5.364  14.582  0.7201  1.3786  0.2075
12220TIP3   OH258150   5.981   2.263  15.528  0.3684  0.2789  0.1015
12220TIP3    H158151   6.049   2.329  15.540 -0.2988  0.8929  0.6122
12220TIP3    H258152   5.901   2.314  15.511 -0.1067 -0.4013  0.2736
12221TIP3   OH258153   2.290   2.223  15.478 -0.3373 -0.8712  0.2984
12221TIP3    H158154   2.340   2.161  15.425  2.2057  1.7715 -0.6906
12221TIP3    H258155   2.345   2.239  15.555 -0.9880  0.0631  0.5854
12222TIP3   OH258156   4.270   6.228  14.525  0.0817  0.9592  0.2432
12222TIP3    H158157   4.239   6.153  14.474  0.5371  1.3547 -0.6277
12222TIP3    H258158   4.278   6.299  14.461  2.0518  1.0791  0.5568
12223TIP3   OH258159   2.201   3.824  13.086 -0.1376  0.0044 -0.5882
12223TIP3    H158160   2.198   3.870  13.002  0.3588  3.6339  1.1587
12223TIP3    H258161   2.291   3.792  13.092 -0.2479 -0.5156 -1.5123
12224TIP3   OH258162   2.889   6.079   4.254 -0.3797  0.0434  0.3438
12224TIP3    H158163   2.946   6.154   4.237  0.3127 -0.3155  1.0408
12224TIP3    H258164   2.916   6.014   4.189  0.8189 -0.5468  1.3863
12225TIP3   OH258165   3.009   2.732  15.984  0.7369 -0.4255  0.2381
12225TIP3    H158166   2.986   2.804  15.926  0.8643  1.4831  2.4215
12225TIP3    H258167   3.101   2.714  15.964  1.0196  0.7753  0.4024
12226TIP3   OH258168   3.908   1.415  11.615  0.2585 -0.0724 -0.0674
12226TIP3    H158169   3.828   1.403  11.563  1.7633 -1.6751 -2.1925
12226TIP3    H258170   3.953   1.331  11.609  1.5054  0.3578  2.2201
12227TIP3   OH258171   5.368   0.277   6.335  0.0932  0.2378  0.2673
12227TIP3    H158172   5.299   0.329   6.376 -1.0610 -0.6642 -0.4643
12227TIP3    H258173   5.433   0.341   6.306 -0.5837  1.1275  0.6912
12228TIP3   OH258174   0.270   2.842   0.940 -0.7727 -0.1048  0.2725
12228TIP3    H158175   0.177   2.856   0.953 -0.7013  0.2839  0.3622
12228TIP3    H258176   0.276   2.751   0.910 -1.3242  0.3120 -1.2011
12229TIP3   OH258177   5.078   1.967   5.584 -0.7435 -0.0723 -0.7208
12229TIP3    H158178   5.173   1.958   5.573 -0.8590  0.1185 -2.0403
12229TIP3    H258179   5.051   1.884   5.621  0.1421  0.4877  1.3674
12230TIP3   OH258180   4.537   0.319   5.926 -0.3911  0.5048 -0.2408
12230TIP3    H158181   4.487   0.240   5.903 -1.6130  0.9113  0.8471
12230TIP3    H258182   4.606   0.323   5.861 -1.8193 -0.0688 -1.8874
12231TIP3   OH258183   4.522   0.749  13.965 -0.2001  0.0356 -0.2441
12231TIP3    H158184   4.571   0.704  14.034 -2.6718 -0.6128  1.2158
12231TIP3    H258185   4.545   0.841  13.976  3.9907 -0.5193 -2.4945
12232TIP3   OH258186   0.649   1.332   4.918  0.1605 -0.2969  0.0340
12232TIP3    H158187   0.728   1.334   4.972  0.0792 -1.1120  0.1906
12232TIP3    H258188   0.596   1.405   4.950  0.5716 -0.1411  0.3566
12233TIP3   OH258189   5.444   2.586   5.376 -0.2500  0.2301 -0.2943
12233TIP3    H158190   5.387   2.659   5.352  1.6972  1.2091 -2.2802
12233TIP3    H258191   5.497   2.619   5.448  0.2333  0.5800 -0.8081
12234TIP3   OH258192   6.162   4.078  13.489  0.0748  0.3359  0.0732
12234TIP3    H158193   6.252   4.097  13.513 -0.3257  1.6509  0.6139
12234TIP3    H258194   6.125   4.162  13.464 -0.6384 -0.3877 -1.4523
12235TIP3   OH258195   0.316   6.643  13.093 -0.8897  0.3272  0.0579
12235TIP3    H158196   0.320   6.606  13.181  2.1702  1.3529  0.4576
12235TIP3    H258197   0.267   6.578  13.042 -0.2608 -1.6798  1.8771
12236TIP3   OH258198   4.944   2.530  16.618 -0.3838  0.4198 -0.3493
12236TIP3    H158199   4.964   2.563  16.530  0.9750  0.9177  0.1200
12236TIP3    H258200   4.894   2.600  16.659  0.2982  0.8427 -0.2202
12237TIP3   OH258201   6.680   2.986  13.908  0.3527  0.0173  0.0557
12237TIP3    H158202   6.640   2.956  13.990 -0.0136  0.7401  0.1580
12237TIP3    H258203   6.706   2.906  13.863 -2.0101 -0.5677 -0.4051
12238TIP3   OH258204   3.883   2.873  13.239  0.5130  0.2539  0.4045
12238TIP3    H158205   3.953   2.923  13.197  0.9352  0.3389  1.2080
12238TIP3    H258206   3.924   2.790  13.264  0.0335 -0.1656 -0.1455
12239TIP3   OH258207   0.660   4.991   1.922  0.3277  0.4664 -0.3532
12239TIP3    H158208   0.736   4.962   1.972  0.4725  0.3809 -0.6249
12239TIP3    H258209   0.640   4.917   1.864  0.1810  0.5829 -0.4505
12240TIP3   OH258210   1.374   5.549   1.710  0.2239 -0.0190  0.3150
12240TIP3    H158211   1.380   5.594   1.795 -0.6810  0.4945  0.1117
12240TIP3    H258212   1.323   5.470   1.729 -0.1350  0.1887  0.2072
12241TIP3   OH258213   4.382   1.899  14.010 -0.2795  0.2176  0.0754
12241TIP3    H158214   4.356   1.955  14.084  1.4518  1.2362 -0.0322
12241TIP3    H258215   4.375   1.810  14.044 -1.6209  0.5514  0.7519
12242TIP3   OH258216   4.197   1.966   2.742  0.6015  0.1266 -0.0541
12242TIP3    H158217   4.159   1.943   2.826 -0.2907  1.0989 -0.1687
12242TIP3    H258218   4.256   2.039   2.761  1.4562 -0.5342 -0.0800
12243TIP3   OH258219   4.831   0.923  11.793 -0.1645 -0.3192 -0.1001
12243TIP3    H158220   4.785   0.903  11.712  1.1474 -1.1660 -0.6738
12243TIP3    H258221   4.808   0.851  11.852 -0.9467  0.1818  0.2123
12244TIP3   OH258222   2.498   6.782  14.705 -0.2011 -0.0579  0.0842
12244TIP3    H158223   2.563   6.850  14.719 -0.6880  0.4252  0.0160
12244TIP3    H258224   2.446   6.780  14.786 -0.3250 -0.1999  0.0038
12245TIP3   OH258225   6.516   4.110  12.432 -0.7443  0.5323 -0.3586
12245TIP3    H158226   6.527   4.188  12.485 -0.3928  0.7836 -0.8023
12245TIP3    H258227   6.603   4.070  12.428 -1.2478 -0.9015  1.4077
12246TIP3   OH258228   6.714   5.755   1.267  0.2171  0.2407  0.3920
12246TIP3    H158229   6.631   5.797   1.290 -0.0500  0.0349 -0.1661
12246TIP3    H258230   6.747   5.720   1.349 -0.3790  0.1072  0.5825
12247TIP3   OH258231   2.531   0.347  12.748 -0.6033 -0.2546 -0.9150
12247TIP3    H158232   2.588   0.378  12.678 -0.7097 -0.1434 -0.9526
12247TIP3    H258233   2.526   0.420  12.809 -0.0286 -0.5671 -0.4924
12248TIP3   OH258234   1.206   6.248   2.004 -0.3757  0.4687 -0.6082
12248TIP3    H158235   1.235   6.194   1.930  0.5130 -2.2419  1.5252
12248TIP3    H258236   1.140   6.194   2.048 -0.5103  1.7645  0.8475
12249TIP3   OH258237   0.547   2.776  17.195 -0.0541 -0.5720  0.3540
12249TIP3    H158238   0.512   2.773  17.106  0.2879 -0.9497  0.2312
12249TIP3    H258239   0.489   2.719  17.246 -0.8664  0.4401  0.5994
12250TIP3   OH258240   2.892   5.214  14.149 -0.1038  0.1602  0.3787
12250TIP3    H158241   2.897   5.164  14.230  0.6818 -2.2088 -1.0284
12250TIP3    H258242   2.798   5.218  14.130 -0.1899 -0.7066  0.5768
12251TIP3   OH258243   5.474   6.137   1.069 -0.2214  0.0338 -0.2411
12251TIP3    H158244   5.520   6.053   1.059 -1.0763 -0.4182 -0.4396
12251TIP3    H258245   5.544   6.201   1.084  0.3560 -0.9580  1.5782
12252TIP3   OH258246   3.538   0.110   6.209 -0.4422 -0.1919 -0.1546
12252TIP3    H158247   3.525   0.026   6.166 -0.5797  0.5997 -1.7485
12252TIP3    H258248   3.623   0.140   6.178 -0.9297  0.7896 -0.5964
12253TIP3   OH258249   5.301   2.809   2.991  0.0066 -0.1176  0.1356
12253TIP3    H158250   5.366   2.879   2.999  0.5983 -0.7643  1.3548
12253TIP3    H258251   5.343   2.745   2.934 -0.9109  0.8857 -1.7535
12254TIP3   OH258252   6.290   4.836  11.520  0.1436 -0.0992 -0.5639
12254TIP3    H158253   6.262   4.926  11.504  2.2708  0.7737  0.2627
12254TIP3    H258254   6.335   4.811  11.440  3.1783  1.1519  0.5992
12255TIP3   OH258255   6.555   5.541  15.095  0.1325  0.3623  0.0496
12255TIP3    H158256   6.598   5.498  15.169 -1.9890 -0.8925  0.6384
12255TIP3    H258257   6.564   5.635  15.114  2.7240  0.2020 -0.0080
12256TIP3   OH258258   2.349   2.740   2.743 -0.3519 -0.3331 -0.1366
12256TIP3    H158259   2.354   2.679   2.817 -0.7353 -0.4000 -0.1645
12256TIP3    H258260   2.400   2.815   2.771 -0.2269 -0.4918  0.0688
12257TIP3   OH258261   3.710   2.221  16.790 -0.1126  0.5039 -0.2636
12257TIP3    H158262   3.651   2.209  16.864 -0.1213  0.9571 -0.1964
12257TIP3    H258263   3.652   2.232  16.715 -0.1398  1.8273 -0.0681
12258TIP3   OH258264   1.655   1.839  17.052  0.2693 -0.1835 -0.2418
12258TIP3    H158265   1.685   1.785  17.125 -0.0426  0.4726  0.3810
12258TIP3    H258266   1.582   1.791  17.014  0.4401 -0.5334 -0.1270
12259TIP3   OH258267   5.896   6.189   5.373  0.1023  0.1991  0.1894
12259TIP3    H158268   5.876   6.280   5.352  1.5816 -0.0382 -2.6569
12259TIP3    H258269   5.848   6.138   5.308 -2.6137 -1.3580  3.1200
12260TIP3   OH258270   0.441   2.582  15.059 -0.1352  0.3309 -0.1632
12260TIP3    H158271   0.416   2.502  15.013 -0.0879 -0.9021  1.8432
12260TIP3    H258272   0.362   2.609  15.106  0.9579 -1.2119  2.8297
12261TIP3   OH258273   6.025   4.679  15.937 -0.2816  0.5246  0.0227
12261TIP3    H158274   5.969   4.753  15.916 -0.7636 -0.1432 -1.1853
12261TIP3    H258275   6.065   4.655  15.853  0.5111 -0.0569  0.5521
12262TIP3   OH258276   4.464   3.402  11.685  0.0990 -0.2253  0.8437
12262TIP3    H158277   4.436   3.330  11.628 -0.0662  1.4553 -1.3556
12262TIP3    H258278   4.390   3.463  11.686  1.2452  1.2554  0.2260
12263TIP3   OH258279   4.703   4.233   1.985 -0.0227  0.4409 -0.2194
12263TIP3    H158280   4.637   4.206   2.049  0.0144 -1.4732 -0.9271
12263TIP3    H258281   4.693   4.328   1.978 -1.2169  0.4549  1.2924
12264TIP3   OH258282   5.731   3.777  13.752  0.0185  0.3525 -0.0490
12264TIP3    H158283   5.688   3.814  13.676  0.9547  0.7782 -0.3842
12264TIP3    H258284   5.799   3.840  13.775  0.0519  0.0079  0.8599
12265TIP3   OH258285   1.870   5.714  12.306  0.3662 -0.1045  0.0924
12265TIP3    H158286   1.880   5.619  12.294 -1.3004 -0.6229  2.2633
12265TIP3    H258287   1.776   5.728  12.314  0.3271  2.1392 -2.5288
12266TIP3   OH258288   2.544   4.275  12.457  0.5752  0.4093  0.2928
12266TIP3    H158289   2.575   4.251  12.370  4.3659  1.1482  1.2424
12266TIP3    H258290   2.523   4.191  12.499 -1.1288  0.0360 -1.1996
12267TIP3   OH258291   6.715   3.996   4.850  0.4133 -0.2408  0.3433
12267TIP3    H158292   6.721   3.913   4.898  1.2105  0.1239  0.8991
12267TIP3    H258293   6.655   3.978   4.778 -0.9400 -0.7621  1.5524
12268TIP3   OH258294   0.210   4.413   3.001 -0.0191 -0.5153 -0.2973
12268TIP3    H158295   0.204   4.334   3.054 -0.2579 -0.9087 -0.9032
12268TIP3    H258296   0.176   4.482   3.058 -0.9346 -1.0502 -0.1769
12269TIP3   OH258297   0.578   6.132   1.987 -0.4830  0.1470  0.0230
12269TIP3    H158298   0.599   6.051   2.034 -0.0686  0.9017  1.1742
12269TIP3    H258299   0.614   6.201   2.042  0.8892  1.0323 -1.8729
12270TIP3   OH258300   6.580   5.736  14.153 -0.3592 -0.1147 -0.1999
12270TIP3    H158301   6.530   5.755  14.232 -0.2619 -0.0271 -0.1581
12270TIP3    H258302   6.671   5.733  14.183 -0.3188 -0.0451 -0.3150
12271TIP3   OH258303   6.315   6.715  14.255 -0.4850  0.1021 -0.3746
12271TIP3    H158304   6.241   6.654  14.247  0.7462 -1.3621 -1.0392
12271TIP3    H258305   6.335   6.740  14.165  0.0377  0.2185 -0.2264
12272TIP3   OH258306   6.741   5.937  14.362  0.0778 -0.2245  0.3078
12272TIP3    H158307   6.660   5.951  14.312 -0.6086 -0.6746  1.2755
12272TIP3    H258308   6.754   6.019  14.411 -0.3927 -0.5451  0.9816
12273TIP3   OH258309   1.266   1.306  11.445  0.5775 -0.1322 -0.1353
12273TIP3    H158310   1.210   1.231  11.427  0.4695 -0.1152  0.1337
12273TIP3    H258311   1.309   1.324  11.361  1.2102 -0.9858 -0.0085
12274TIP3   OH258312   0.772   5.815  16.233  0.0047 -0.2534  0.7027
12274TIP3    H158313   0.701   5.825  16.170  0.0467  0.0790  0.7072
12274TIP3    H258314   0.812   5.731  16.211  0.1490 -0.0451  0.1472
12275TIP3   OH258315   1.630   3.651   3.571 -0.0032  0.2551  0.1251
12275TIP3    H158316   1.556   3.678   3.518 -1.4636 -0.8859  1.4935
12275TIP3    H258317   1.630   3.555   3.567  0.9629  0.2077  0.7231
12276TIP3   OH258318   0.623   3.194   0.357  0.1284 -0.4329 -0.0229
12276TIP3    H158319   0.618   3.110   0.402 -2.6163  0.4242  1.5064
12276TIP3    H258320   0.585   3.178   0.271 -2.4346 -0.3992  1.0223
12277TIP3   OH258321   0.251   4.144   3.212  0.1938  0.3999  0.0029
12277TIP3    H158322   0.293   4.060   3.232  2.3674  1.1167 -1.1666
12277TIP3    H258323   0.205   4.167   3.293  0.6290 -1.2993  0.7931
12278TIP3   OH258324   0.208   5.307  12.047  0.2922  0.4417  0.2983
12278TIP3    H158325   0.177   5.217  12.035  1.7844  0.0453 -0.8513
12278TIP3    H258326   0.281   5.315  11.986 -1.0998  3.0902 -1.1990
12279TIP3   OH258327   5.943   5.370   1.303 -0.4493 -0.0840  0.1111
12279TIP3    H158328   5.853   5.391   1.330  0.4609 -0.5158  4.1357
12279TIP3    H258329   5.996   5.440   1.341  1.1311 -1.0037 -0.3290
12280TIP3   OH258330   5.211   0.315  12.125 -0.4474 -0.3873  0.4599
12280TIP3    H158331   5.195   0.271  12.208 -0.4098  0.5776  0.9834
12280TIP3    H258332   5.269   0.255  12.077 -1.8634 -1.7752  0.3956
12281TIP3   OH258333   1.580   0.432   0.018  0.0034  0.6406  0.2737
12281TIP3    H158334   1.557   0.346  -0.017  0.4552  0.7521 -0.3157
12281TIP3    H258335   1.592   0.487  -0.059  1.5842  0.7502  0.5549
12282TIP3   OH258336   3.121   0.627  16.676  0.2799 -0.2327 -0.0701
12282TIP3    H158337   3.139   0.720  16.665  1.8540 -0.6109 -0.9140
12282TIP3    H258338   3.086   0.620  16.765 -0.3010  1.2116 -0.1658
12283TIP3   OH258339   0.548   0.342   4.246  0.5392  0.5613  0.0221
12283TIP3    H158340   0.631   0.372   4.207  0.1674  1.3429 -0.1909
12283TIP3    H258341   0.499   0.305   4.173 -0.0575  1.8072 -0.2473
12284TIP3   OH258342   2.590   0.303   3.724 -0.1621 -0.5635 -0.2230
12284TIP3    H158343   2.623   0.231   3.669 -0.0426 -1.9471  1.5646
12284TIP3    H258344   2.658   0.370   3.718 -0.8653  0.0516 -2.9652
12285TIP3   OH258345   2.499   1.460   0.591  0.3066 -0.0299 -0.0098
12285TIP3    H158346   2.417   1.417   0.615 -0.0107  1.8129  2.6131
12285TIP3    H258347   2.565   1.391   0.598 -0.4792 -0.6431  1.9688
12286TIP3   OH258348   4.407   3.517  11.944 -0.1985 -0.0458 -0.3233
12286TIP3    H158349   4.469   3.452  11.911  0.7727  0.1356  1.0451
12286TIP3    H258350   4.349   3.467  12.002 -0.1672  0.1075 -0.1581
12287TIP3   OH258351   1.145   4.527  10.921  0.0324  0.6430 -0.0201
12287TIP3    H158352   1.159   4.609  10.968 -2.7836  2.3118 -1.8690
12287TIP3    H258353   1.233   4.489  10.913  1.6212  4.0493 -0.1605
12288TIP3   OH258354   4.560   5.329  13.374 -0.4004 -0.5594 -0.7895
12288TIP3    H158355   4.483   5.371  13.412 -1.1782 -2.2713 -0.3660
12288TIP3    H258356   4.528   5.292  13.291  0.5394  0.5666 -1.6907
12289TIP3   OH258357   0.988   3.392   3.208 -0.5807 -0.0642 -0.0510
12289TIP3    H158358   0.942   3.335   3.270 -1.4364  0.0254 -0.5809
12289TIP3    H258359   0.963   3.359   3.122  0.2268  0.0981 -0.3572
12290TIP3   OH258360   6.446   0.700  15.840 -0.3185 -0.1599  0.2123
12290TIP3    H158361   6.465   0.777  15.894  0.2199  0.0016 -0.1978
12290TIP3    H258362   6.446   0.734  15.750  3.2116 -1.1704 -0.3271
12291TIP3   OH258363   1.070   5.057   3.446  0.0852  0.3155  0.3143
12291TIP3    H158364   1.056   5.120   3.516  0.8034  0.4624  0.3422
12291TIP3    H258365   1.028   5.096   3.369 -1.2987 -0.1626  0.7989
12292TIP3   OH258366   3.251   2.406  15.903  0.2523  0.0409 -0.6368
12292TIP3    H158367   3.235   2.414  15.809  2.2862  1.2050 -0.9239
12292TIP3    H258368   3.216   2.320  15.926 -0.6293 -0.0982 -2.3643
12293TIP3   OH258369   4.674   5.190  16.882  0.6226  0.4685 -0.3283
12293TIP3    H158370   4.743   5.144  16.835  1.6605  1.8535 -0.2291
12293TIP3    H258371   4.721   5.254  16.936 -0.7384  1.4729 -0.2908
12294TIP3   OH258372   0.593   1.049  11.449 -0.5359  0.1896  0.5671
12294TIP3    H158373   0.629   1.113  11.388  0.0830 -0.9409 -0.2869
12294TIP3    H258374   0.557   0.980  11.394 -0.5378 -0.5569  1.4669
12295TIP3   OH258375   2.988   3.555   1.325 -0.0104  0.5744  0.0948
12295TIP3    H158376   3.007   3.478   1.271  0.1667  0.0631  0.8588
12295TIP3    H258377   3.067   3.608   1.321 -0.1986  0.7994 -0.5810
12296TIP3   OH258378   0.402   0.840  16.283  0.3408  0.1209 -0.4451
12296TIP3    H158379   0.351   0.905  16.235 -0.9647 -1.4625 -1.3029
12296TIP3    H258380   0.420   0.771  16.220  2.1047 -0.1792  0.3094
12297TIP3   OH258381   0.164   1.894   4.963  0.3644 -0.2313 -0.1860
12297TIP3    H158382   0.147   1.917   5.055 -0.4983  0.1856 -0.4423
12297TIP3    H258383   0.252   1.856   4.964  0.6540  0.4176  0.7060
12298TIP3   OH258384   4.059   0.592   0.632 -0.1639 -0.3603  0.1387
12298TIP3    H158385   4.040   0.579   0.539 -1.2819 -1.0443  0.4420
12298TIP3    H258386   3.976   0.573   0.676  0.4695 -0.4923  1.3145
12299TIP3   OH258387   4.715   6.294  15.903 -0.1973 -0.2688  0.6396
12299TIP3    H158388   4.729   6.345  15.823  2.8158 -0.6962  0.7669
12299TIP3    H258389   4.688   6.208  15.873  3.1741 -1.1658 -0.2004
12300TIP3   OH258390   4.755   6.164  11.022 -0.4977  0.2991 -0.2696
12300TIP3    H158391   4.748   6.226  11.095  2.7613  0.5796 -0.0580
12300TIP3    H258392   4.840   6.182  10.983 -0.8353 -1.9166 -2.2462
12301TIP3   OH258393   6.355   4.051  14.299 -0.1128 -0.3700  0.4434
12301TIP3    H158394   6.352   3.959  14.272  2.7497 -0.5059  0.2440
12301TIP3    H258395   6.440   4.060  14.343 -0.3447  2.1586  0.5076
12302TIP3   OH258396   0.267   2.192  14.621 -0.3764  0.4352 -0.5183
12302TIP3    H158397   0.195   2.129  14.632  0.1898 -0.1384 -0.0084
12302TIP3    H258398   0.292   2.216  14.710  2.4128 -2.1053 -0.4677
12303TIP3   OH258399   5.423   4.868   5.393  0.1692  0.2820 -0.0813
12303TIP3    H158400   5.358   4.829   5.334 -0.3159  1.0962 -0.0938
12303TIP3    H258401   5.454   4.794   5.445 -1.4118 -0.0018  0.5264
12304TIP3   OH258402   5.839   3.835   4.236 -0.2208 -0.8872  0.3195
12304TIP3    H158403   5.887   3.755   4.213 -0.5711 -0.9729 -0.1192
12304TIP3    H258404   5.828   3.830   4.331  0.7864 -0.7857  0.4593
12305TIP3   OH258405   6.607   6.122  13.328  0.5322 -0.4156  0.2487
12305TIP3    H158406   6.573   6.033  13.337 -0.8939  0.2286  1.5777
12305TIP3    H258407   6.666   6.133  13.403  0.5473 -0.1667  0.2024
12306TIP3   OH258408   1.689   1.376  16.448 -0.1134  0.3087 -0.1772
12306TIP3    H158409   1.649   1.294  16.478  0.9107 -0.2880 -0.3954
12306TIP3    H258410   1.657   1.386  16.358  1.9454 -1.3796 -1.1867
12307TIP3   OH258411   4.843   1.198  14.462 -0.2700  0.1981  0.3344
12307TIP3    H158412   4.895   1.196  14.381  1.6056  1.7407  1.4163
12307TIP3    H258413   4.843   1.108  14.493 -1.4308 -0.5370 -1.5597
12308TIP3   OH258414   3.845   4.332   1.692  0.3165  0.1333  0.6283
12308TIP3    H158415   3.873   4.338   1.601 -1.9267 -0.0601 -0.1225
12308TIP3    H258416   3.917   4.287   1.736  0.7148 -1.3376 -1.4072
12309TIP3   OH258417   5.019   6.096   2.543  0.0230  0.8646  0.3652
12309TIP3    H158418   4.977   6.125   2.463  0.8023  1.1111  0.0315
12309TIP3    H258419   4.956   6.114   2.612 -0.3317  1.4101 -0.0962
12310TIP3   OH258420   6.134   3.663   1.661 -0.4108 -0.1423 -0.0193
12310TIP3    H158421   6.086   3.597   1.712  0.4714  0.9696  2.3915
12310TIP3    H258422   6.226   3.651   1.687 -0.1669  1.6653  0.1040
12311TIP3   OH258423   2.033   6.731  16.742  0.1053  0.5022  0.0811
12311TIP3    H158424   2.100   6.799  16.736  0.3426  0.2574 -0.0937
12311TIP3    H258425   2.058   6.681  16.821  0.0839  0.4582  0.0598
12312TIP3   OH258426   3.483   1.524   1.350  0.0821  0.7421  0.1653
12312TIP3    H158427   3.505   1.532   1.257 -2.2698  1.6447 -0.4014
12312TIP3    H258428   3.408   1.464   1.352  1.3797 -0.9224  1.7460
12313TIP3   OH258429   6.144   6.688   0.058  0.7559  0.0154 -0.6605
12313TIP3    H158430   6.075   6.708  -0.005  0.2490  0.6756  0.0753
12313TIP3    H258431   6.196   6.768   0.062  1.3658 -0.3680 -0.9713
12314TIP3   OH258432   0.289   5.405   2.625 -0.4237  0.1249 -0.2603
12314TIP3    H158433   0.334   5.334   2.672 -0.1799  1.0421  0.9494
12314TIP3    H258434   0.287   5.477   2.688 -1.7726  0.7901 -1.0315
12315TIP3   OH258435   5.313   6.214  12.194  0.4181 -0.4196 -0.4559
12315TIP3    H158436   5.367   6.193  12.118 -1.4680 -0.5215 -1.8350
12315TIP3    H258437   5.237   6.156  12.187 -1.1988  1.5469 -0.1266
12316TIP3   OH258438   3.579   0.317  13.879 -0.1160 -0.0939  0.2130
12316TIP3    H158439   3.646   0.249  13.889 -0.8036 -1.0056 -1.1036
12316TIP3    H258440   3.509   0.290  13.939 -0.5092 -0.7377 -0.5112
12317TIP3   OH258441   5.426   6.605  13.583  0.7673 -0.0670 -0.1523
12317TIP3    H158442   5.376   6.605  13.665 -0.5364  1.1881 -0.9067
12317TIP3    H258443   5.362   6.630  13.516  1.8172 -1.0132 -1.5577
12318TIP3   OH258444   4.290   3.094  16.087  0.5458  0.0706 -0.6046
12318TIP3    H158445   4.304   3.122  16.177 -0.7129 -1.5037  0.1366
12318TIP3    H258446   4.302   3.174  16.035  2.0481  0.8573  0.8478
12319TIP3   OH258447   6.516   3.424  14.325  0.1743 -0.1553  0.0341
12319TIP3    H158448   6.450   3.356  14.309 -0.3973  0.3610  0.1809
12319TIP3    H258449   6.582   3.380  14.379 -1.1933 -0.0688  1.8662
12320TIP3   OH258450   2.837   3.241   2.969  0.1902 -0.0494  0.0912
12320TIP3    H158451   2.829   3.146   2.981 -2.0017  0.1013  0.2969
12320TIP3    H258452   2.757   3.266   2.923  0.4659  1.7777  0.5229
12321TIP3   OH258453   5.793   1.793  16.465  0.4310  0.2047 -0.1872
12321TIP3    H158454   5.880   1.797  16.427  1.0698  0.3516  1.2273
12321TIP3    H258455   5.747   1.725  16.416  1.8049 -0.8570 -0.0394
12322TIP3   OH258456   0.711   6.471  16.236 -0.0330 -0.4994  0.4473
12322TIP3    H158457   0.803   6.445  16.228  0.2280  0.6911 -1.0127
12322TIP3    H258458   0.713   6.552  16.288 -0.1077  0.0796 -0.4156
12323TIP3   OH258459   0.003   0.289  12.071 -0.2358 -0.1484  0.0696
12323TIP3    H158460   0.068   0.317  12.007 -0.3907 -0.0523 -0.0456
12323TIP3    H258461  -0.081   0.321  12.037 -0.5282 -1.4442 -0.4917
12324TIP3   OH258462   2.035   3.854   5.850  0.3846  0.2827  0.0278
12324TIP3    H158463   2.124   3.869   5.817 -0.2765 -0.2272 -2.0848
12324TIP3    H258464   2.036   3.765   5.884  0.1728 -0.4859 -1.8952
12325TIP3   OH258465   2.679   1.577  12.994 -0.1566 -1.2690 -0.3457
12325TIP3    H158466   2.716   1.655  13.036  0.0391 -0.8341 -1.2977
12325TIP3    H258467   2.603   1.555  13.047 -0.0389 -0.6030  0.1115
12326TIP3   OH258468   3.130   4.133  15.920  0.1580  0.6052  0.1036
12326TIP3    H158469   3.192   4.193  15.962  0.4074  0.6759 -0.3535
12326TIP3    H258470   3.184   4.082  15.859 -0.2949  0.9428 -0.5924
12327TIP3   OH258471   3.965   3.899  14.430 -0.3015  0.0663 -0.1066
12327TIP3    H158472   3.934   3.821  14.476  0.6952 -0.3754 -0.1666
12327TIP3    H258473   4.060   3.892  14.432 -0.1864 -0.3504 -2.8640
12328TIP3   OH258474   3.355   2.253   6.100 -0.3788  0.1499 -0.3727
12328TIP3    H158475   3.350   2.168   6.142 -1.8502  0.1904 -0.3997
12328TIP3    H258476   3.276   2.258   6.046 -1.6419  2.4728  1.4874
12329TIP3   OH258477   1.626   5.987   1.304 -0.4514 -0.3635 -0.0584
12329TIP3    H158478   1.565   5.976   1.231  0.9043 -0.5625 -1.1937
12329TIP3    H258479   1.689   5.915   1.294  1.8393  1.6322 -0.8162
12330TIP3   OH258480   4.747   0.236  16.333 -0.2279 -0.1026 -0.5164
12330TIP3    H158481   4.672   0.293  16.350  0.3456  0.6616 -0.5462
12330TIP3    H258482   4.824   0.292  16.345  0.2966 -0.3464 -2.5165
12331TIP3   OH258483   2.324   3.364   5.090  0.5465 -0.6712  0.1211
12331TIP3    H158484   2.377   3.313   5.029  0.9393  1.3421 -1.3404
12331TIP3    H258485   2.238   3.370   5.049 -0.4778 -2.6562  1.7683
12332TIP3   OH258486   3.448   2.609   1.754 -0.4163  0.5473 -1.1589
12332TIP3    H158487   3.363   2.654   1.751 -1.0329 -0.2207  1.5884
12332TIP3    H258488   3.480   2.626   1.843  0.6003 -2.1495 -0.9249
12333TIP3   OH258489   6.135   1.014  10.465  0.0160  0.1250 -0.4367
12333TIP3    H158490   6.217   0.969  10.485 -0.1021 -0.7226 -1.7184
12333TIP3    H258491   6.067   0.951  10.489 -0.1810 -0.0699 -1.4777
12334TIP3   OH258492   1.560   3.899   5.650  0.0431 -0.4568 -0.5572
12334TIP3    H158493   1.647   3.908   5.611  0.1026 -0.9351 -0.5337
12334TIP3    H258494   1.529   3.989   5.659  0.4012 -0.2983 -0.8704
12335TIP3   OH258495   1.381   6.429   3.057  0.2130 -0.3723 -0.3858
12335TIP3    H158496   1.329   6.449   2.979  0.2827 -1.0061 -0.6047
12335TIP3    H258497   1.322   6.448   3.130  0.4511  1.0803 -0.5517
12336TIP3   OH258498   2.181   1.561  12.956  0.1522 -0.2268  0.0614
12336TIP3    H158499   2.097   1.607  12.963 -0.0440 -0.1738 -2.1738
12336TIP3    H258500   2.239   1.608  13.017 -1.4096 -0.3072  1.6997
12337TIP3   OH258501   2.762   2.787   4.051 -0.1478 -0.2675  0.1420
12337TIP3    H158502   2.852   2.765   4.076 -0.0645  0.7505  0.8117
12337TIP3    H258503   2.744   2.868   4.098 -0.6656  0.7245 -1.6827
12338TIP3   OH258504   3.648   3.573   6.640 -0.0213  0.4533 -0.4415
12338TIP3    H158505   3.711   3.642   6.656 -0.6986  0.8720  0.4878
12338TIP3    H258506   3.701   3.494   6.626  0.7083  0.8032  0.3047
12339TIP3   OH258507   5.609   6.180  11.671  0.2838  0.4556  0.1142
12339TIP3    H158508   5.677   6.233  11.712  0.5428  0.5599 -0.4507
12339TIP3    H258509   5.530   6.234  11.676  0.4382  0.6943 -0.0184
12340TIP3   OH258510   4.726   4.630  13.647 -0.2897  0.5963  0.1811
12340TIP3    H158511   4.665   4.559  13.667  1.0625 -1.1685 -1.5595
12340TIP3    H258512   4.802   4.613  13.702  1.0575 -0.8795 -1.9661
12341TIP3   OH258513   1.798   4.689  15.773 -0.0826 -0.5085 -0.5338
12341TIP3    H158514   1.795   4.768  15.826 -4.1342  0.0162 -1.1702
12341TIP3    H258515   1.767   4.619  15.831  0.6553 -1.0424 -0.7667
12342TIP3   OH258516   4.782   6.779  11.212 -0.1250  0.0503 -0.4098
12342TIP3    H158517   4.774   6.840  11.285  0.1256 -1.3633  0.8360
12342TIP3    H258518   4.875   6.778  11.191 -0.0690 -0.1954 -0.1586
12343TIP3   OH258519   1.630   1.999   6.606  0.9082  0.0759 -0.4964
12343TIP3    H158520   1.575   2.039   6.538  1.2661 -0.6392 -1.2180
12343TIP3    H258521   1.678   2.073   6.644 -0.4239  0.6939  0.0452
12344TIP3   OH258522   2.263   0.015  10.565 -0.1815 -0.6326 -0.2066
12344TIP3    H158523   2.261  -0.060  10.506 -1.4885  0.1645 -1.2116
12344TIP3    H258524   2.319  -0.014  10.637  0.7244 -1.9605 -1.3685
12345TIP3   OH258525   2.350   1.657   4.000  0.0193  0.0499 -0.0546
12345TIP3    H158526   2.425   1.697   4.044 -0.4299 -1.0399  1.8268
12345TIP3    H258527   2.288   1.639   4.070 -0.9750 -1.3152 -1.2145
12346TIP3   OH258528   6.551   1.973   2.785 -0.8115  0.0366 -0.2586
12346TIP3    H158529   6.578   1.977   2.877 -1.6917  0.5581 -0.0156
12346TIP3    H258530   6.474   1.917   2.784 -1.4692  0.9284 -0.5047
12347TIP3   OH258531   3.825   5.478  16.191  0.1851  0.3299 -0.2836
12347TIP3    H158532   3.845   5.420  16.118  2.3615  1.9394 -1.0660
12347TIP3    H258533   3.824   5.566  16.153  1.3207  1.2109  1.5723
12348TIP3   OH258534   0.578   5.714   4.321  0.8311 -0.4002  0.6556
12348TIP3    H158535   0.619   5.773   4.385 -1.0810 -0.3593  1.9406
12348TIP3    H258536   0.508   5.672   4.370  0.8885 -2.2915 -0.7799
12349TIP3   OH258537   4.265   2.756  13.178  0.3276  0.4344 -0.1702
12349TIP3    H158538   4.343   2.706  13.198  0.1419 -0.4339 -1.5376
12349TIP3    H258539   4.209   2.745  13.255  1.0763  0.1332  0.3375
12350TIP3   OH258540   2.919   5.076  14.389  0.0756  0.0955 -0.1802
12350TIP3    H158541   2.893   5.012  14.454 -0.9053  0.5251 -0.1391
12350TIP3    H258542   3.001   5.113  14.423 -1.3777  1.6599  1.7871
12351TIP3   OH258543   1.976   5.197  13.711  0.5559 -0.0009 -0.2496
12351TIP3    H158544   1.983   5.126  13.775 -0.0893  0.5303  0.4364
12351TIP3    H258545   1.939   5.157  13.633 -0.5965 -0.2655  0.4138
12352TIP3   OH258546   1.601   5.837   2.375 -0.4044  0.6266  0.1180
12352TIP3    H158547   1.653   5.756   2.381 -0.0200  0.8036 -0.6684
12352TIP3    H258548   1.567   5.850   2.464  1.0634  0.6179  0.7095
12353TIP3   OH258549   2.709   6.273  16.027 -0.0845  0.0246  0.1792
12353TIP3    H158550   2.682   6.305  15.941 -0.5509 -1.2903 -0.1959
12353TIP3    H258551   2.720   6.179  16.015  0.9914 -0.0178  1.2818
12354TIP3   OH258552   4.502   1.134  14.719  0.0941 -0.1505  0.7677
12354TIP3    H158553   4.498   1.132  14.815  3.9025 -2.1256  1.0636
12354TIP3    H258554   4.574   1.194  14.699 -0.8390  0.4779 -0.9489
12355TIP3   OH258555   2.681   4.597   3.068  0.3592 -0.4883  0.8629
12355TIP3    H158556   2.761   4.649   3.056  0.8757 -1.6479 -1.1784
12355TIP3    H258557   2.642   4.594   2.981  0.6415 -3.9129  0.7198
12356TIP3   OH258558   4.527   1.649  13.766  0.9563  0.0979 -0.4883
12356TIP3    H158559   4.436   1.625  13.749  0.4240  1.0860  0.8310
12356TIP3    H258560   4.536   1.738  13.731  1.1727  0.3171  0.0981
12357TIP3   OH258561   0.318   5.816  11.811  0.2006  0.0944 -0.1911
12357TIP3    H158562   0.317   5.885  11.877  2.8467  0.2529 -0.2343
12357TIP3    H258563   0.241   5.763  11.831 -0.6958  1.8039  1.1715
12358TIP3   OH258564   4.916   6.015   1.595 -0.0270  0.0480 -0.4479
12358TIP3    H158565   4.987   5.959   1.627  0.8179  1.4469  0.1959
12358TIP3    H258566   4.941   6.037   1.506  1.2802  1.9457  0.3388
12359TIP3   OH258567   2.785   1.027   1.638  0.6170  0.2777  0.0683
12359TIP3    H158568   2.861   0.975   1.666  1.5507  1.4229 -0.2535
12359TIP3    H258569   2.721   0.962   1.610  1.5735 -0.7249  0.1215
12360TIP3   OH258570   2.830   3.230  13.019  0.0853  0.2717 -0.5985
12360TIP3    H158571   2.787   3.145  13.006 -1.3273  1.3288 -4.1748
12360TIP3    H258572   2.761   3.287  13.053  0.2880  0.5574 -0.6576
12361TIP3   OH258573   0.739   6.314   3.863  0.0681  0.7595 -0.5591
12361TIP3    H158574   0.762   6.406   3.848  0.2136  1.1508  1.7683
12361TIP3    H258575   0.823   6.271   3.880 -0.0989  0.3690 -0.7010
12362TIP3   OH258576   5.147   3.658  10.877 -0.2957  0.7010  0.2552
12362TIP3    H158577   5.199   3.673  10.798 -1.4216 -0.4281 -0.7321
12362TIP3    H258578   5.068   3.710  10.865 -0.6949  0.1380  0.4011
12363TIP3   OH258579   0.969   1.484   0.426  0.4407 -0.0928  0.1090
12363TIP3    H158580   1.007   1.538   0.495  0.9834 -1.8649  1.2730
12363TIP3    H258581   1.007   1.397   0.440  0.0101 -0.6923 -1.9972
12364TIP3   OH258582   1.575   3.933  16.528  0.4816 -0.1250 -0.0712
12364TIP3    H158583   1.555   3.911  16.437  2.0582 -1.0446 -0.2323
12364TIP3    H258584   1.504   3.892  16.578 -0.0702 -0.1268 -0.8342
12365TIP3   OH258585   2.672   5.475  13.897 -0.0461 -0.5892 -0.2453
12365TIP3    H158586   2.714   5.519  13.824 -0.2985 -0.8937 -0.5795
12365TIP3    H258587   2.594   5.527  13.916 -0.1687 -0.7061 -0.4253
12366TIP3   OH258588   2.039   6.513   0.202  0.1698 -0.3437 -0.3457
12366TIP3    H158589   2.120   6.561   0.218  0.0280 -0.0953 -0.3595
12366TIP3    H258590   2.027   6.458   0.279 -0.7875  1.2272  0.6848
12367TIP3   OH258591   6.197   3.972  11.457 -0.5866  0.0035  0.0497
12367TIP3    H158592   6.205   3.877  11.445  2.4128  0.2243 -0.6454
12367TIP3    H258593   6.181   3.983  11.550  1.1857 -1.2164  0.5705
12368TIP3   OH258594   5.975   0.118   0.918 -0.0327  0.2702 -0.4541
12368TIP3    H158595   5.908   0.053   0.941 -0.2470  0.7845  0.4014
12368TIP3    H258596   6.013   0.145   1.001 -2.3255  3.7718 -0.2873
12369TIP3   OH258597   3.021   5.514   4.485  0.4502 -0.8444  0.2238
12369TIP3    H158598   3.031   5.447   4.552  1.1609  0.0291  1.0221
12369TIP3    H258599   3.068   5.590   4.519 -1.7066  0.6223  0.1242
12370TIP3   OH258600   0.809   1.732   5.198 -0.0302 -0.2890 -0.1910
12370TIP3    H158601   0.845   1.722   5.110  3.7522 -0.1354  1.1323
12370TIP3    H258602   0.814   1.643   5.235 -3.1230 -0.6971 -0.5245
12371TIP3   OH258603   4.473   0.254  16.166  0.6381 -0.2208 -0.8875
12371TIP3    H158604   4.545   0.231  16.107  1.0995  2.0430 -1.2936
12371TIP3    H258605   4.513   0.314  16.230  0.0495 -2.2106  1.5248
12372TIP3   OH258606   3.204   6.141   2.219 -0.2532 -0.3266 -0.1863
12372TIP3    H158607   3.284   6.113   2.264 -1.2053 -1.5358  0.8233
12372TIP3    H258608   3.200   6.084   2.142  1.3130  1.6626 -1.8372
12373TIP3   OH258609   5.703   1.738  11.289  0.8482  0.4696 -0.0779
12373TIP3    H158610   5.689   1.657  11.240 -0.3164  0.8681 -0.4327
12373TIP3    H258611   5.743   1.709  11.371 -2.8285 -0.9795  1.4524
12374TIP3   OH258612   0.162   6.212   6.391 -0.0934  0.2639 -0.2198
12374TIP3    H158613   0.231   6.273   6.368  0.2284  0.5267  1.3063
12374TIP3    H258614   0.196   6.126   6.367  0.2259  0.5063 -0.6462
12375TIP3   OH258615   1.514   3.426  12.276  0.1354  0.7726  0.3609
12375TIP3    H158616   1.500   3.413  12.182  0.6448  1.9270  0.1027
12375TIP3    H258617   1.499   3.340  12.315  0.2626  0.1949 -0.8213
12376TIP3   OH258618   6.599   6.573  11.193  0.1214 -0.0469  0.2012
12376TIP3    H158619   6.691   6.557  11.171  0.4948  1.5516  0.4757
12376TIP3    H258620   6.593   6.554  11.286  0.2712  0.1882  0.2616
12377TIP3   OH258621   6.665   4.415   2.161 -0.5205 -0.3755  0.4274
12377TIP3    H158622   6.603   4.484   2.137  0.2216  0.2517  0.2458
12377TIP3    H258623   6.736   4.424   2.097  0.0467 -0.6673  1.0031
12378TIP3   OH258624   5.673   5.809  17.247 -0.1874  0.2864 -0.3511
12378TIP3    H158625   5.584   5.818  17.281  0.3888  2.1324  0.8084
12378TIP3    H258626   5.663   5.813  17.152 -1.3187  0.5901 -0.2325
12379TIP3   OH258627   6.200   3.401   5.062  0.7760  0.3804 -0.4536
12379TIP3    H158628   6.155   3.483   5.042  1.1556  0.1878 -2.2488
12379TIP3    H258629   6.237   3.415   5.149 -1.3937  1.1057  0.4191
12380TIP3   OH258630   1.947   6.790   4.933  0.5409 -0.1050 -0.2104
12380TIP3    H158631   1.859   6.751   4.939  0.7858 -0.4068  2.4363
12380TIP3    H258632   2.002   6.720   4.898 -0.1711 -0.0359 -1.5277
12381TIP3   OH258633   6.295   5.982  15.923 -0.1589  0.2390 -0.0277
12381TIP3    H158634   6.200   5.971  15.909 -0.1996  0.7676 -0.1815
12381TIP3    H258635   6.335   5.930  15.854 -0.3120 -1.1389  0.8692
12382TIP3   OH258636   6.514   0.654   3.918 -0.1205 -0.3004  0.2905
12382TIP3    H158637   6.515   0.558   3.921 -1.3207 -0.5183 -2.6399
12382TIP3    H258638   6.453   0.679   3.988  0.6272 -1.6101  1.4563
12383TIP3   OH258639   5.519   3.262  15.584  0.4211 -0.2435 -0.2074
12383TIP3    H158640   5.446   3.201  15.577  1.6889 -1.9749  0.9101
12383TIP3    H258641   5.537   3.268  15.678  1.0515  1.0136 -0.3801
12384TIP3   OH258642   3.927   1.319  12.372 -0.6743  0.8431 -0.0478
12384TIP3    H158643   3.929   1.339  12.278 -0.0348  0.1004 -0.2093
12384TIP3    H258644   3.977   1.390  12.412 -1.3564  1.4216 -0.2126
12385TIP3   OH258645   1.525   6.778   2.529 -0.3845 -0.0365 -0.0723
12385TIP3    H158646   1.543   6.836   2.603 -2.3766  0.8791 -0.2406
12385TIP3    H258647   1.610   6.765   2.487  0.1615  2.8259 -0.0443
12386TIP3   OH258648   0.980   3.324  11.348  0.0428 -0.0351 -0.2226
12386TIP3    H158649   0.991   3.254  11.284  0.9219 -1.5921  1.5324
12386TIP3    H258650   1.067   3.361  11.358 -0.3362  1.0549 -0.8156
12387TIP3   OH258651   2.621   5.753   3.456 -0.4440  0.3550  0.1104
12387TIP3    H158652   2.673   5.827   3.425 -1.2733  0.9752  0.1612
12387TIP3    H258653   2.553   5.742   3.390 -0.5789 -0.0956  0.3209
12388TIP3   OH258654   5.157   6.162  11.207 -0.3444  0.0697  0.7705
12388TIP3    H158655   5.126   6.100  11.141 -3.3081  2.4651 -0.3602
12388TIP3    H258656   5.134   6.122  11.291 -0.9278 -0.9503  0.1396
12389TIP3   OH258657   6.817   4.345   3.639  0.7990  0.2537  0.4265
12389TIP3    H158658   6.852   4.356   3.727  2.4064  1.2683 -0.2792
12389TIP3    H258659   6.759   4.419   3.626  0.3440 -0.0469  0.7114
12390TIP3   OH258660   0.468   6.515  16.414 -0.0355  0.0927  0.1041
12390TIP3    H158661   0.463   6.439  16.471  1.5070  2.1959  3.3188
12390TIP3    H258662   0.539   6.494  16.353 -0.5697 -1.5400 -0.0113
12391TIP3   OH258663   6.051   1.610   4.390  0.2028  0.2940 -0.6419
12391TIP3    H158664   5.973   1.666   4.392 -0.4837 -0.5039  3.0727
12391TIP3    H258665   6.123   1.667   4.415  0.0715  0.2077 -0.0562
12392TIP3   OH258666   3.369   1.712   5.481  0.5391 -0.0871 -0.1818
12392TIP3    H158667   3.363   1.806   5.467  2.2389  0.4244  2.0926
12392TIP3    H258668   3.305   1.693   5.549  0.0116 -0.6325 -0.8215
12393TIP3   OH258669   3.098   4.815   5.103 -0.2216 -0.1418  0.0927
12393TIP3    H158670   3.098   4.798   5.009 -1.2017 -1.6968  0.3371
12393TIP3    H258671   3.030   4.881   5.116 -0.7195 -0.5907 -0.1984
12394TIP3   OH258672   2.957   6.393   3.946  0.1800 -0.4407  0.2823
12394TIP3    H158673   2.955   6.397   4.042  0.7828  0.8322  0.2607
12394TIP3    H258674   2.976   6.301   3.927 -0.0976 -0.7411  1.3823
12395TIP3   OH258675   2.477   6.543   0.653  0.1476 -0.5430 -0.0170
12395TIP3    H158676   2.535   6.605   0.608  0.1885 -1.5906 -1.4805
12395TIP3    H258677   2.439   6.594   0.725 -0.2788  1.3615 -1.5022
12396TIP3   OH258678   2.241   4.027  14.055  0.3029  0.1989 -0.3264
12396TIP3    H158679   2.172   4.094  14.052 -0.2260 -0.3614 -1.5305
12396TIP3    H258680   2.194   3.944  14.053  0.9868 -0.2018  0.0363
12397TIP3   OH258681   2.637   2.101  17.152  0.3483 -0.5433  0.0083
12397TIP3    H158682   2.633   2.038  17.224 -1.2228 -0.7155 -0.1981
12397TIP3    H258683   2.696   2.060  17.089  0.6091 -1.0634  0.5696
12398TIP3   OH258684   0.747   5.777  12.338 -0.3244 -0.7791  0.3043
12398TIP3    H158685   0.828   5.729  12.356  0.3509 -0.2799 -1.2016
12398TIP3    H258686   0.768   5.831  12.261 -2.5868 -1.9420 -1.2628
12399TIP3   OH258687   6.401   3.720   1.755  0.2226  0.1545 -0.6485
12399TIP3    H158688   6.475   3.675   1.714  0.0910 -0.4482 -0.2336
12399TIP3    H258689   6.431   3.810   1.765  0.6292  0.0804 -1.1517
12400TIP3   OH258690   3.862   2.456  16.722  0.4464 -0.0604  0.0221
12400TIP3    H158691   3.805   2.527  16.693 -1.0285 -1.5689 -0.9317
12400TIP3    H258692   3.805   2.400  16.774  1.4757 -0.7798  0.4006
12401TIP3   OH258693   5.412   5.843   6.340  0.1545  0.3107  0.1647
12401TIP3    H158694   5.494   5.823   6.384  0.2539  1.1947  0.3956
12401TIP3    H258695   5.364   5.898   6.401  0.4218  1.8032 -0.9188
12402TIP3   OH258696   5.913   4.992   2.894  0.1655 -0.2898  0.5469
12402TIP3    H158697   5.822   4.971   2.874  0.0438  0.4532  0.2548
12402TIP3    H258698   5.963   4.952   2.823 -0.1541  1.2258 -0.6073
12403TIP3   OH258699   3.470   5.715  13.275  0.0757 -0.5874 -0.3141
12403TIP3    H158700   3.449   5.768  13.198 -1.7510 -1.5515 -0.5372
12403TIP3    H258701   3.536   5.766  13.322 -0.5254  1.1591 -1.2776
12404TIP3   OH258702   1.880   6.632  11.878 -0.3648 -0.1289 -0.5695
12404TIP3    H158703   1.882   6.568  11.807  1.5932  1.3445 -1.9690
12404TIP3    H258704   1.959   6.614  11.929  0.4138  1.3424 -1.1992
12405TIP3   OH258705   4.867   1.307   1.777 -0.7343  0.3082  0.6646
12405TIP3    H158706   4.816   1.328   1.856 -1.4792 -0.5687  0.4341
12405TIP3    H258707   4.891   1.392   1.741 -3.5033  0.8425 -0.1579
12406TIP3   OH258708   4.025   6.149  12.344 -0.0989 -0.1932  0.1178
12406TIP3    H158709   4.043   6.062  12.309  0.5126 -0.9279  2.0979
12406TIP3    H258710   4.082   6.156  12.421 -0.5767  1.7322  0.3526
12407TIP3   OH258711   0.269   3.115  13.384  0.0712 -0.1126 -0.3266
12407TIP3    H158712   0.252   3.175  13.456  1.9099  0.0417  0.0205
12407TIP3    H258713   0.284   3.030  13.426 -0.2343 -0.3297 -0.6450
12408TIP3   OH258714   1.349   3.198  13.919  0.2259 -0.3061  0.0214
12408TIP3    H158715   1.354   3.282  13.965 -2.5744  0.1306 -0.3108
12408TIP3    H258716   1.427   3.150  13.949 -0.3002  0.7597  3.5717
12409TIP3   OH258717   3.512   5.884  15.910 -0.1895 -0.2344  0.5616
12409TIP3    H158718   3.486   5.962  15.959 -1.7315  0.0792 -0.6753
12409TIP3    H258719   3.545   5.823  15.976  1.5632  1.6178  1.5239
12410TIP3   OH258720   1.497   0.376  13.822 -0.1272 -0.5070  0.2087
12410TIP3    H158721   1.423   0.323  13.853 -1.4013  1.1241  0.0538
12410TIP3    H258722   1.498   0.364  13.727 -0.4687 -0.1783  0.1647
12411TIP3   OH258723   0.246   6.322  16.306  0.0703  0.0934  0.4392
12411TIP3    H158724   0.206   6.395  16.259 -2.9101 -2.0992 -0.7075
12411TIP3    H258725   0.205   6.322  16.392  0.9252  0.3832  0.8664
12412TIP3   OH258726   2.688   4.567   1.517 -0.1962 -0.4705 -0.8531
12412TIP3    H158727   2.705   4.603   1.604 -2.0193 -0.4879 -0.4473
12412TIP3    H258728   2.744   4.618   1.459  0.0628  0.4560  0.1696
12413TIP3   OH258729   4.476   3.223   5.583 -0.4925 -0.5272 -0.1344
12413TIP3    H158730   4.404   3.223   5.645 -0.1546  0.2995  0.2875
12413TIP3    H258731   4.447   3.280   5.512  0.3732  1.2277  0.8530
12414TIP3   OH258732   2.490   3.041   3.914  0.6755 -0.0087 -0.2303
12414TIP3    H158733   2.504   3.104   3.985 -2.6070 -0.1187  0.6793
12414TIP3    H258734   2.499   2.956   3.956 -0.9650 -0.0724  0.0655
12415TIP3   OH258735   3.336   0.823  11.796  0.4806 -0.0256  0.7976
12415TIP3    H158736   3.379   0.841  11.879  1.6411  0.8551  0.0356
12415TIP3    H258737   3.403   0.839  11.730 -0.9888  1.4015 -0.4468
12416TIP3   OH258738   0.199   4.736   2.033  0.0723  0.9497  0.2079
12416TIP3    H158739   0.275   4.765   1.981 -0.6301 -0.2175 -1.5584
12416TIP3    H258740   0.131   4.800   2.015 -0.7587 -0.4169 -1.8919
12417TIP3   OH258741   4.686   6.722   5.104  0.0196 -0.2819 -0.0257
12417TIP3    H158742   4.713   6.631   5.093  0.8473  0.0941 -1.2029
12417TIP3    H258743   4.721   6.746   5.190 -0.0278 -1.0005  0.2052
12418TIP3   OH258744   0.340   3.894  11.395 -0.1260 -0.0797 -0.8723
12418TIP3    H158745   0.276   3.957  11.428  0.2897  0.7402 -1.5938
12418TIP3    H258746   0.414   3.903  11.455 -0.9277 -1.5391  0.3908
12419TIP3   OH258747   6.435   6.396   3.526 -0.4490  0.3023  0.1237
12419TIP3    H158748   6.438   6.439   3.612 -0.6406  1.0002 -0.2085
12419TIP3    H258749   6.465   6.464   3.465  2.2256 -0.9457 -0.0913
12420TIP3   OH258750   3.789   4.913  15.764  0.2795 -0.5896 -0.1647
12420TIP3    H158751   3.761   4.846  15.701  1.4646 -1.9167  0.6711
12420TIP3    H258752   3.708   4.960  15.785 -0.2876 -0.6288 -2.0347
12421TIP3   OH258753   6.412   4.483   4.208 -0.2437  0.3690  0.4042
12421TIP3    H158754   6.361   4.440   4.278 -0.8085  0.1191 -0.1543
12421TIP3    H258755   6.502   4.483   4.241  0.2003 -3.0560 -0.3762
12422TIP3   OH258756   3.539   1.655   0.436 -0.2878  0.7176 -0.0124
12422TIP3    H158757   3.457   1.702   0.421 -0.0648  0.5336 -2.0384
12422TIP3    H258758   3.601   1.694   0.375  0.7786 -0.0708  0.5350
12423TIP3   OH258759   5.756   5.512  11.320  0.0375 -0.4956  0.5935
12423TIP3    H158760   5.804   5.466  11.389  2.3011  1.0358  0.1279
12423TIP3    H258761   5.784   5.469  11.239  1.8355  1.3314  0.1917
12424TIP3   OH258762   0.176   1.988  16.293 -0.4283 -0.0451  0.2817
12424TIP3    H158763   0.166   1.978  16.387 -0.6110 -2.5708  0.0687
12424TIP3    H258764   0.269   2.010  16.281 -0.1041 -0.9421  1.0117
12425TIP3   OH258765   3.858   1.973  16.556  0.2952  0.2408 -0.2522
12425TIP3    H158766   3.863   1.879  16.574  0.5326  0.2702 -0.1649
12425TIP3    H258767   3.783   1.982  16.496 -0.8034  0.1935  1.0605
12426TIP3   OH258768   3.943   5.827   4.190 -0.2478  0.3361  0.3482
12426TIP3    H158769   4.017   5.879   4.221 -0.6062  1.6206 -0.8509
12426TIP3    H258770   3.868   5.859   4.240 -0.4907  1.0866 -0.4773
12427TIP3   OH258771   1.098   0.810   2.023  0.1082 -0.2064  0.8041
12427TIP3    H158772   1.010   0.830   2.054 -0.0359 -0.2766  0.4475
12427TIP3    H258773   1.091   0.722   1.985 -0.3560  0.8412 -1.7686
12428TIP3   OH258774   5.914   0.951  13.999 -0.2036  0.0666  0.9159
12428TIP3    H158775   5.888   0.870  14.043  1.8011 -1.5307 -0.6379
12428TIP3    H258776   5.836   0.976  13.949 -1.2623 -0.1745  2.3809
12429TIP3   OH258777   3.535   0.008   0.538 -0.3387  0.1767  0.4875
12429TIP3    H158778   3.626   0.000   0.510  0.4718  2.9586  1.9177
12429TIP3    H258779   3.483  -0.014   0.460  1.5630 -0.8207 -0.5484
12430TIP3   OH258780   1.809   2.556  14.745  0.1783 -0.0913 -0.0223
12430TIP3    H158781   1.888   2.509  14.774  1.2214  1.1354 -0.7912
12430TIP3    H258782   1.842   2.633  14.699 -1.4876  1.1230  0.7172
12431TIP3   OH258783   1.390   4.393  12.745  0.3804  0.0613  0.0862
12431TIP3    H158784   1.356   4.433  12.665  1.1428  0.5161 -0.0254
12431TIP3    H258785   1.340   4.312  12.755  0.4366 -0.1215 -0.9818
12432TIP3   OH258786   5.103   0.709   3.877 -0.2725 -0.1442  0.2876
12432TIP3    H158787   5.078   0.675   3.963 -0.6510  1.5828  0.8979
12432TIP3    H258788   5.022   0.741   3.839  0.1567  0.6517  0.0143
12433TIP3   OH258789   3.421   5.250  11.885  0.5003  0.6529 -0.9176
12433TIP3    H158790   3.515   5.257  11.868  0.3167 -0.5352 -2.7167
12433TIP3    H258791   3.381   5.260  11.799 -0.9248 -0.3270 -0.3990
12434TIP3   OH258792   3.856   6.018   0.249  0.2146  0.2255 -0.3389
12434TIP3    H158793   3.894   5.944   0.202 -1.7362 -0.2586 -1.2623
12434TIP3    H258794   3.906   6.023   0.330  2.2236 -0.3165 -1.4773
12435TIP3   OH258795   6.191   1.194   3.880  0.2531  0.8896 -0.1509
12435TIP3    H158796   6.172   1.265   3.942 -0.1074  1.4409 -0.8717
12435TIP3    H258797   6.213   1.239   3.798 -0.3466  0.1680 -0.7289
12436TIP3   OH258798   5.469   2.331  15.001 -0.4112  0.2492  0.4121
12436TIP3    H158799   5.433   2.401  14.946 -1.3481  0.1297  0.8413
12436TIP3    H258800   5.429   2.346  15.087 -0.3860 -0.6298  0.5846
12437TIP3   OH258801   6.590   3.308   2.200  0.5840 -0.5000  0.1081
12437TIP3    H158802   6.551   3.253   2.269 -0.7121 -0.8839 -0.8891
12437TIP3    H258803   6.668   3.260   2.172  0.1353 -1.2288  0.0888
12438TIP3   OH258804   5.637   6.745  12.068  0.0236 -0.5672 -0.1220
12438TIP3    H158805   5.713   6.728  12.123 -0.1736 -1.4239 -0.1065
12438TIP3    H258806   5.584   6.807  12.118  0.2663 -0.6726  0.2648
12439TIP3   OH258807   0.887   5.088  10.578  0.1084 -0.1175  0.3357
12439TIP3    H158808   0.824   5.048  10.518 -0.8927  0.4871  0.9527
12439TIP3    H258809   0.839   5.159  10.620  1.6347  1.3271 -0.2385
12440TIP3   OH258810   3.536   6.267  11.078  0.8392 -0.0862  0.4918
12440TIP3    H158811   3.447   6.295  11.057  0.7219  0.0249  1.1156
12440TIP3    H258812   3.592   6.312  11.014  0.4295 -0.3275 -0.0410
12441TIP3   OH258813   1.639   2.370  16.590 -0.1266 -0.3787  0.2221
12441TIP3    H158814   1.547   2.346  16.580  0.2040 -0.9737 -1.5883
12441TIP3    H258815   1.672   2.312  16.659 -1.5354  1.1778  2.3360
12442TIP3   OH258816   2.549   3.721   3.473 -0.1093 -0.0323 -0.1408
12442TIP3    H158817   2.540   3.678   3.557 -1.9067  1.3583  0.4389
12442TIP3    H258818   2.533   3.652   3.408 -0.1763 -0.7992  0.6799
12443TIP3   OH258819   3.671   5.698   4.354  0.1440 -0.3688  0.0744
12443TIP3    H158820   3.670   5.618   4.406  1.1534 -0.7399 -0.4522
12443TIP3    H258821   3.688   5.669   4.264  1.4635  0.4806  0.0205
12444TIP3   OH258822   2.308   1.462  11.989  0.0946  0.2472  0.1534
12444TIP3    H158823   2.331   1.548  12.024  4.1745 -0.8291  0.6577
12444TIP3    H258824   2.309   1.473  11.894  0.4851  0.8004  0.2189
12445TIP3   OH258825   5.118   1.023  16.699  0.5537  0.0698 -0.3929
12445TIP3    H158826   5.055   0.958  16.728  0.5160 -0.5353 -1.7178
12445TIP3    H258827   5.175   1.038  16.774  0.2733 -1.1597  0.0793
12446TIP3   OH258828   3.884   6.367   2.146  0.4106  0.1775  0.1921
12446TIP3    H158829   3.789   6.371   2.158  0.5243  0.0230  1.2633
12446TIP3    H258830   3.915   6.450   2.182  0.5773  0.8548 -1.4466
12447TIP3   OH258831   3.189   1.675  10.797  0.1501  0.4713  0.0491
12447TIP3    H158832   3.279   1.646  10.812 -0.7313 -1.8687  1.2438
12447TIP3    H258833   3.176   1.664  10.703  1.2549  1.4248 -0.2493
12448TIP3   OH258834   2.195   0.466   0.074  0.0902  0.3086  0.1165
12448TIP3    H158835   2.106   0.476   0.040 -0.1005  1.5348  0.9200
12448TIP3    H258836   2.244   0.539   0.037  1.0845 -0.9636 -1.1951
12449TIP3   OH258837   0.545   5.686  16.877  0.0687 -1.0306 -0.5485
12449TIP3    H158838   0.453   5.681  16.903 -0.2265 -1.9061 -1.6633
12449TIP3    H258839   0.552   5.767  16.827  0.3674  0.0389  1.1820
12450TIP3   OH258840   4.830   4.948   6.354 -0.0375  0.3354 -0.0198
12450TIP3    H158841   4.776   4.902   6.418  0.1013 -0.0894 -0.1995
12450TIP3    H258842   4.874   5.016   6.404  2.0432 -1.5617  0.9272
12451TIP3   OH258843   4.601   1.538   1.503  0.1822 -0.0876  0.1521
12451TIP3    H158844   4.689   1.533   1.468  0.3541 -0.0751  0.5795
12451TIP3    H258845   4.592   1.460   1.558 -1.0953 -1.7205 -2.1946
12452TIP3   OH258846   3.401   2.281   1.483 -0.7526 -0.3957 -0.0092
12452TIP3    H158847   3.412   2.191   1.514 -1.6075 -0.8849 -1.0693
12452TIP3    H258848   3.451   2.334   1.545 -0.6444 -1.5468  0.9172
12453TIP3   OH258849   1.218   5.176   0.778 -0.0549  0.1775 -0.7478
12453TIP3    H158850   1.213   5.081   0.789  1.0123  0.1763 -0.0047
12453TIP3    H258851   1.203   5.211   0.866  1.0346  0.6026 -0.7067
12454TIP3   OH258852   3.360   5.126  14.036  0.1027 -0.5223  0.5826
12454TIP3    H158853   3.420   5.200  14.034 -0.7750  0.2742  2.2171
12454TIP3    H258854   3.288   5.152  13.978 -0.7003  0.3943  1.9374
12455TIP3   OH258855   4.782   0.218  14.089  0.3691  0.2405  0.5532
12455TIP3    H158856   4.846   0.255  14.029  0.0999  1.5412  1.0200
12455TIP3    H258857   4.816   0.238  14.176 -1.2649  2.1604  0.8309
12456TIP3   OH258858   6.482   6.107   1.758  0.2534  0.0436 -0.1986
12456TIP3    H158859   6.480   6.137   1.667 -1.2848  2.1060  0.4152
12456TIP3    H258860   6.392   6.120   1.789  0.4015 -1.9585  1.2401
12457TIP3   OH258861   0.820   5.270   2.152 -0.4026 -0.5540 -0.6100
12457TIP3    H158862   0.878   5.328   2.200 -0.8549  0.1450 -0.8910
12457TIP3    H258863   0.796   5.202   2.215 -0.7310  0.1705  0.0573
12458TIP3   OH258864   1.593   4.452  15.612 -0.0220 -0.4216 -0.4580
12458TIP3    H158865   1.670   4.434  15.558  0.9738  0.1248  0.7388
12458TIP3    H258866   1.601   4.392  15.686 -0.9872 -0.6641 -0.5416
12459TIP3   OH258867   2.645   3.199  11.166 -0.3677  0.2199 -0.7779
12459TIP3    H158868   2.623   3.151  11.086 -0.8529  0.9059 -1.0629
12459TIP3    H258869   2.726   3.157  11.197  1.1689  1.4346 -2.8942
12460TIP3   OH258870   4.278   1.133   3.648 -0.2704 -0.4339 -0.0378
12460TIP3    H158871   4.355   1.188   3.630 -0.4081  0.0368  0.7559
12460TIP3    H258872   4.312   1.044   3.646  0.0027 -0.3248 -1.1318
12461TIP3   OH258873   2.520   6.211   4.516 -0.4020  0.4658 -0.0130
12461TIP3    H158874   2.525   6.298   4.476 -0.3032  0.2544 -0.4652
12461TIP3    H258875   2.433   6.179   4.493 -0.3445  0.3449 -0.0692
12462TIP3   OH258876   1.898   2.137  11.349  0.1802  0.4021 -0.3239
12462TIP3    H158877   1.979   2.165  11.391 -0.5370  0.8117  0.8285
12462TIP3    H258878   1.889   2.045  11.375 -1.9489  1.4598  3.3787
12463TIP3   OH258879   2.067   0.719   0.171 -0.8698  0.3601 -0.3178
12463TIP3    H158880   1.980   0.678   0.173 -1.1161  0.8854  1.6462
12463TIP3    H258881   2.058   0.797   0.227  1.2474 -0.4123  1.2207
12464TIP3   OH258882   5.077   4.792  13.928  0.1168 -0.5826  0.5433
12464TIP3    H158883   5.009   4.748  13.877 -0.5267  1.2048 -0.2113
12464TIP3    H258884   5.034   4.817  14.010  0.0463  0.0011  0.3266
12465TIP3   OH258885   5.354   0.349   2.129  0.1922  0.3925  0.4629
12465TIP3    H158886   5.332   0.302   2.209  1.1723  0.1564  0.6044
12465TIP3    H258887   5.418   0.415   2.156  0.2491  0.5597 -0.0637
12466TIP3   OH258888   1.053   6.679  13.517 -0.3341 -0.1412 -0.5150
12466TIP3    H158889   1.088   6.715  13.436  0.7145 -1.7933 -0.8379
12466TIP3    H258890   1.129   6.675  13.576 -0.8934  0.1922  0.2382
12467TIP3   OH258891   5.788   5.510  14.779 -0.7508  0.4919 -0.5211
12467TIP3    H158892   5.821   5.514  14.689  0.9309 -0.4663  0.0071
12467TIP3    H258893   5.853   5.558  14.830 -0.3347 -1.0978  0.5065
12468TIP3   OH258894   5.277   4.507   0.001  0.5337  0.0997 -0.1696
12468TIP3    H158895   5.357   4.520  -0.049  1.5243 -0.5614  1.1950
12468TIP3    H258896   5.257   4.414  -0.010  0.2715  0.1377 -0.0304
12469TIP3   OH258897   5.284   0.427  16.089 -0.1356 -0.1386 -0.2444
12469TIP3    H158898   5.235   0.360  16.043 -1.6460 -0.0536  1.1518
12469TIP3    H258899   5.253   0.510  16.051  0.6472 -0.1673 -0.9566
12470TIP3   OH258900   5.118   2.286   2.103  0.0107  0.4114 -0.4081
12470TIP3    H158901   5.074   2.364   2.137 -1.5057 -0.4818 -0.2590
12470TIP3    H258902   5.098   2.285   2.010 -0.0540  0.1418 -0.3919
12471TIP3   OH258903   2.607   1.867   5.161 -0.0382  0.2339  0.0990
12471TIP3    H158904   2.667   1.941   5.157 -1.1107  1.4166  2.9554
12471TIP3    H258905   2.543   1.893   5.228 -0.5274 -3.2274  1.1430
12472TIP3   OH258906   5.745   0.130  14.585 -0.0977  0.1682  0.2821
12472TIP3    H158907   5.738   0.178  14.503  0.0717  1.8763  1.2024
12472TIP3    H258908   5.794   0.189  14.643  0.6961 -1.4099  1.2978
12473TIP3   OH258909   5.866   2.829  13.821 -0.2183  0.2242  0.3141
12473TIP3    H158910   5.790   2.857  13.769 -1.9134 -1.3802  1.7819
12473TIP3    H258911   5.879   2.899  13.884  0.6737  1.3099 -1.0167
12474TIP3   OH258912   6.065   2.867   4.692  0.2851 -0.3340 -0.2035
12474TIP3    H158913   6.131   2.832   4.632 -0.2303  0.3634 -1.2036
12474TIP3    H258914   5.982   2.834   4.658 -0.0339  0.2556 -0.0158
12475TIP3   OH258915   6.110   6.136  13.865 -0.3146  0.9791  0.4521
12475TIP3    H158916   6.046   6.180  13.922 -2.4881 -0.4548 -0.7296
12475TIP3    H258917   6.100   6.180  13.780 -0.0598  0.4298  0.1354
12476TIP3   OH258918   5.586   6.413  14.849 -0.3170  0.3971 -0.0171
12476TIP3    H158919   5.492   6.414  14.831 -0.4533  0.2385  0.6741
12476TIP3    H258920   5.594   6.374  14.935  0.3462  0.9253  0.1747
12477TIP3   OH258921   1.205   2.482   2.402  0.0691 -0.2975  0.0181
12477TIP3    H158922   1.298   2.463   2.387  0.4509  1.4814 -0.1017
12477TIP3    H258923   1.190   2.457   2.493  0.7546 -0.2921  0.1375
12478TIP3   OH258924   6.232   5.347   5.809 -0.1145  0.1074 -0.4394
12478TIP3    H158925   6.258   5.292   5.883  0.8600  1.0301 -0.0574
12478TIP3    H258926   6.152   5.390   5.838 -0.7248 -0.8860 -0.6317
12479TIP3   OH258927   5.034   2.892  16.880 -0.5258  0.0126 -0.2804
12479TIP3    H158928   5.092   2.966  16.897 -0.1092 -0.4289  0.2552
12479TIP3    H258929   5.077   2.844  16.808 -0.8416  0.3314 -0.6896
12480TIP3   OH258930   5.093   1.663  14.025 -0.3707  0.5322 -0.7995
12480TIP3    H158931   5.169   1.607  14.041 -1.2209 -0.4823 -0.1989
12480TIP3    H258932   5.070   1.646  13.934  0.6237  1.5038 -1.2578
12481TIP3   OH258933   4.850   2.258  11.923  0.2526 -0.1423 -0.1419
12481TIP3    H158934   4.941   2.271  11.950  0.3102 -0.2391 -0.2850
12481TIP3    H258935   4.814   2.347  11.919  0.2529 -0.1256  0.2140
12482TIP3   OH258936   6.021   6.117  12.686  0.6350 -0.8753 -0.6469
12482TIP3    H158937   5.931   6.093  12.706 -0.4239  2.5299 -0.6770
12482TIP3    H258938   6.065   6.117  12.771 -0.0824 -0.1962 -0.2617
12483TIP3   OH258939   1.112   4.974   4.947 -0.3723  0.0469  0.3510
12483TIP3    H158940   1.105   4.922   4.868  1.0584 -0.8807  0.8012
12483TIP3    H258941   1.206   4.979   4.965 -0.1536  4.6196 -0.8406
12484TIP3   OH258942   5.995   3.125   2.764 -0.0817 -0.1968 -0.0880
12484TIP3    H158943   6.009   3.032   2.783  0.1704 -0.5268 -1.6955
12484TIP3    H258944   5.899   3.133   2.758 -0.0955 -0.4314 -0.2322
12485TIP3   OH258945   2.599   4.149   5.469  0.3005  0.6952 -0.1295
12485TIP3    H158946   2.592   4.066   5.422 -0.8903  1.3619 -1.1601
12485TIP3    H258947   2.692   4.154   5.493  0.6241 -0.3913 -1.0430
12486TIP3   OH258948   1.637   2.038  16.189  0.4254 -0.8574  0.0438
12486TIP3    H158949   1.617   1.959  16.139 -1.5424  0.0257 -0.6584
12486TIP3    H258950   1.557   2.056  16.239  0.1063  1.6837 -1.2242
12487TIP3   OH258951   3.004   1.145   2.116 -0.1596 -0.2848 -0.4114
12487TIP3    H158952   2.996   1.237   2.092 -0.0559 -0.3486 -0.6939
12487TIP3    H258953   3.035   1.102   2.036  1.7609 -0.2449  0.2539
12488TIP3   OH258954   1.420   4.422   3.647  0.3421  0.7702  0.5089
12488TIP3    H158955   1.370   4.372   3.712  1.7735 -0.3563  0.8094
12488TIP3    H258956   1.367   4.499   3.629 -1.1906 -0.0717  1.2558
12489TIP3   OH258957   1.886   1.517   0.605 -0.1144  0.3390 -0.0250
12489TIP3    H158958   1.857   1.433   0.640 -0.8663  0.1359 -1.0849
12489TIP3    H258959   1.940   1.555   0.674 -0.8088 -0.4491  0.9790
12490TIP3   OH258960   0.664   4.981  16.216 -0.4458 -0.0150  0.5719
12490TIP3    H158961   0.571   5.005  16.216 -0.1896  1.0318  0.0025
12490TIP3    H258962   0.678   4.942  16.302 -1.5728 -0.8708  0.3992
12491TIP3   OH258963   2.778   2.436  14.954  0.0782 -0.3992 -0.1715
12491TIP3    H158964   2.789   2.343  14.934 -1.5343 -1.2012  2.1085
12491TIP3    H258965   2.802   2.443  15.047  1.0330  1.6680 -0.5305
12492TIP3   OH258966   4.422   4.864   5.357 -0.3088 -0.2565  0.1572
12492TIP3    H158967   4.479   4.871   5.433 -1.5582 -0.8761  1.1731
12492TIP3    H258968   4.467   4.915   5.289  0.0154  1.6875  1.7720
12493TIP3   OH258969   6.360   6.301   3.259  0.2407 -0.3797  0.1351
12493TIP3    H158970   6.290   6.340   3.206 -0.1163 -1.1984 -0.0168
12493TIP3    H258971   6.354   6.345   3.344  1.0179  1.1737 -0.5685
12494TIP3   OH258972   6.121   3.673  12.928 -0.3421  0.2624 -0.2566
12494TIP3    H158973   6.062   3.745  12.907 -1.6777 -0.6954  0.0575
12494TIP3    H258974   6.192   3.713  12.978 -0.3992  1.5356 -1.1624
12495TIP3   OH258975   1.078   3.488   2.719  0.4237 -0.4922 -0.3649
12495TIP3    H158976   1.081   3.513   2.812  0.1020  0.6160 -0.6481
12495TIP3    H258977   1.152   3.534   2.680 -1.5892  2.0951 -1.3679
12496TIP3   OH258978   3.720   6.269  15.056  0.4203  0.0008  0.5272
12496TIP3    H158979   3.659   6.200  15.029  0.7014 -1.0461  2.3847
12496TIP3    H258980   3.675   6.351  15.036 -0.6581 -0.7365 -0.1320
12497TIP3   OH258981   3.658   0.923  12.002  0.2486  0.1721 -0.2524
12497TIP3    H158982   3.696   0.899  12.086  0.0909  0.4201 -0.1085
12497TIP3    H258983   3.574   0.962  12.024  1.0796  2.1568 -0.3594
12498TIP3   OH258984   1.279   4.296   3.860  0.0093  0.3646 -0.6668
12498TIP3    H158985   1.192   4.321   3.891  0.6741  0.6614  1.0843
12498TIP3    H258986   1.267   4.209   3.822 -1.2185  0.8172 -1.3614
12499TIP3   OH258987   3.253   1.482   3.080  0.3197 -0.0420 -0.0414
12499TIP3    H158988   3.253   1.390   3.107 -2.6313 -0.9579 -2.4667
12499TIP3    H258989   3.206   1.527   3.150  0.6767 -0.6291  0.5886
12500TIP3   OH258990   2.935   6.073   5.785 -0.3488 -0.8923 -0.0295
12500TIP3    H158991   2.921   6.125   5.864  1.5572 -0.0212 -0.1947
12500TIP3    H258992   2.913   5.984   5.811 -1.7476 -0.3239  0.8537
12501TIP3   OH258993   0.150   1.490  15.540 -0.0031  0.7516  1.1731
12501TIP3    H158994   0.092   1.564  15.561 -0.8225  0.2548  0.7240
12501TIP3    H258995   0.208   1.523  15.471 -0.7392  0.8122  0.5708
12502TIP3   OH258996   4.238   5.144  15.961 -0.4565 -0.1502  0.4091
12502TIP3    H158997   4.203   5.170  16.046  0.3369  0.0583  0.6821
12502TIP3    H258998   4.166   5.158  15.900 -0.9407 -0.0183  1.0003
12503TIP3   OH258999   2.855   1.624  13.322 -0.0971  0.1702 -0.4477
12503TIP3    H159000   2.879   1.590  13.235  0.0243 -0.2022 -0.2717
12503TIP3    H259001   2.791   1.561  13.355  0.3478 -0.0507  0.0055
12504TIP3   OH259002   3.679   2.797  11.044 -0.8956  0.0073  0.2040
12504TIP3    H159003   3.743   2.869  11.053 -0.2283 -0.3258 -1.5760
12504TIP3    H259004   3.630   2.800  11.126  0.6303  1.0295  1.1525
12505TIP3   OH259005   6.660   6.566   0.644  0.2281  0.0966  0.1717
12505TIP3    H159006   6.597   6.596   0.710 -0.6145 -2.2968  0.5559
12505TIP3    H259007   6.606   6.547   0.567  0.6754 -0.6733  0.0430
12506TIP3   OH259008   3.875   4.864   0.994  0.5816  0.1145 -0.2458
12506TIP3    H159009   3.870   4.955   0.965  1.2564  0.2159 -0.0615
12506TIP3    H259010   3.912   4.869   1.082  2.3837 -0.4376 -0.9230
12507TIP3   OH259011   1.699   2.321  15.280 -0.6510 -0.8237  0.3795
12507TIP3    H159012   1.736   2.242  15.239 -0.9259 -1.3428  1.1137
12507TIP3    H259013   1.618   2.337  15.233 -0.8814 -1.3170  0.6058
12508TIP3   OH259014   2.677   2.094  16.802 -0.0363 -0.3775 -0.2570
12508TIP3    H159015   2.638   2.018  16.759 -0.4289 -0.6284  0.5320
12508TIP3    H259016   2.755   2.059  16.845 -0.1781 -0.3175  0.0465
12509TIP3   OH259017   0.951   1.225  11.934  0.3355  0.2211  0.7856
12509TIP3    H159018   0.986   1.220  11.845  3.6211  0.7931  1.9169
12509TIP3    H259019   0.927   1.317  11.946 -0.7836  0.0103  0.3224
12510TIP3   OH259020   6.486   6.038   4.505  0.1179 -0.1670 -0.2185
12510TIP3    H159021   6.506   6.130   4.485 -0.0130 -0.2077 -0.5296
12510TIP3    H259022   6.537   6.020   4.584  1.0602 -0.1737 -0.8137
12511TIP3   OH259023   4.001   5.074   0.522 -0.3521  0.1232  0.4130
12511TIP3    H159024   3.922   5.039   0.565 -0.4553  0.7662  0.7598
12511TIP3    H259025   4.023   5.008   0.457 -1.0072 -0.2113  0.5113
12512TIP3   OH259026   5.045   1.393   0.374 -0.4274 -0.1501  0.0501
12512TIP3    H159027   4.980   1.343   0.424 -1.6641 -0.4898 -1.8105
12512TIP3    H259028   5.000   1.474   0.351  0.0608 -0.0671 -0.6354
12513TIP3   OH259029   2.275   3.435   1.964  0.0279 -0.1691 -0.2056
12513TIP3    H159030   2.249   3.356   2.011  0.7329  0.7567  1.8636
12513TIP3    H259031   2.201   3.494   1.974 -0.1794 -0.2622 -1.0771
12514TIP3   OH259032   0.083   3.773  11.704  0.0601  0.1113  0.4911
12514TIP3    H159033   0.169   3.810  11.684  0.4190 -0.5855  0.6982
12514TIP3    H259034   0.020   3.837  11.671  0.6436  0.0515 -0.7649
12515TIP3   OH259035   1.366   4.622   4.930  0.4311  0.7878  0.3836
12515TIP3    H159036   1.294   4.644   4.871 -0.2350 -1.0842  0.4419
12515TIP3    H259037   1.439   4.677   4.901 -0.6790  1.9169 -0.3778
12516TIP3   OH259038   6.553   1.135  14.407  0.0047 -0.5986  0.2286
12516TIP3    H159039   6.515   1.172  14.486  0.7372 -2.1030  1.3316
12516TIP3    H259040   6.644   1.166  14.407 -0.1690 -0.0728 -0.3833
12517TIP3   OH259041   5.909   4.416  15.444  0.0785 -0.1090  0.1803
12517TIP3    H159042   5.927   4.510  15.448 -0.4581  0.3469 -4.0180
12517TIP3    H259043   5.814   4.409  15.439  0.0643 -0.9850  1.2078
12518TIP3   OH259044   3.728   3.687  14.594  0.1051 -0.4376 -0.1808
12518TIP3    H159045   3.651   3.710  14.542  0.7424  1.6501 -0.2927
12518TIP3    H259046   3.746   3.596  14.572 -2.3044 -0.9909 -0.1554
12519TIP3   OH259047   1.474   0.407  12.452  0.0645 -0.0631 -0.4084
12519TIP3    H159048   1.420   0.345  12.501  0.9999 -0.0548  0.6797
12519TIP3    H259049   1.564   0.378  12.468  0.6813  2.6187  1.6860
12520TIP3   OH259050   6.756   1.267  15.926 -0.7441  0.4823  0.1563
12520TIP3    H159051   6.672   1.265  15.879 -0.9269 -0.2656  0.4954
12520TIP3    H259052   6.822   1.278  15.857 -0.9387 -1.5033 -0.4152
12521TIP3   OH259053   2.273   3.785  16.651 -0.0807  0.1767  0.1358
12521TIP3    H159054   2.341   3.780  16.719 -0.8875  1.6041  1.1080
12521TIP3    H259055   2.230   3.700  16.655  0.6178 -0.1716  0.6245
12522TIP3   OH259056   0.420   0.274   0.974 -0.0247 -0.1861 -0.1106
12522TIP3    H159057   0.386   0.187   0.955  2.1653 -1.5096  1.5471
12522TIP3    H259058   0.479   0.293   0.901 -0.0378 -0.3450 -0.1621
12523TIP3   OH259059   4.772   3.393   2.219 -0.3007  0.1779  0.3054
12523TIP3    H159060   4.718   3.346   2.156 -0.2948 -1.2716  1.3546
12523TIP3    H259061   4.773   3.483   2.186 -0.9035 -0.3782 -1.3451
12524TIP3   OH259062   6.752   0.429  16.900 -0.2652  0.7048  0.0854
12524TIP3    H159063   6.780   0.476  16.979 -0.3417 -0.6992  0.9751
12524TIP3    H259064   6.833   0.412  16.852 -0.2976  2.2959 -0.5991
12525TIP3   OH259065   5.377   2.757   0.517 -0.2744 -0.0059  0.1012
12525TIP3    H159066   5.444   2.747   0.584  0.4570  0.3394 -0.5671
12525TIP3    H259067   5.323   2.830   0.548 -0.5358 -0.4773  0.7871
12526TIP3   OH259068   3.050   2.841  11.611 -0.1316 -0.6229  0.2860
12526TIP3    H159069   3.050   2.920  11.556 -3.4694 -0.3956  0.4182
12526TIP3    H259070   3.088   2.869  11.694 -1.1335  0.8719  0.2865
12527TIP3   OH259071   4.626   4.561   5.074  0.4141  0.1527 -0.4266
12527TIP3    H159072   4.660   4.479   5.110  0.4142 -0.0756 -0.9426
12527TIP3    H259073   4.674   4.630   5.121 -0.6467 -0.0896  1.1031
12528TIP3   OH259074   2.749   5.193  15.291  0.0779  0.3445  0.1301
12528TIP3    H159075   2.844   5.191  15.305  0.1797  0.4754 -0.4909
12528TIP3    H259076   2.718   5.261  15.351  0.1746 -0.6814  1.3809
12529TIP3   OH259077   5.108   1.589  11.968  0.4383  0.2763 -0.6669
12529TIP3    H159078   5.054   1.580  11.889 -1.8864  0.6586  0.7572
12529TIP3    H259079   5.190   1.626  11.937  0.0797 -0.7169 -3.0490
12530TIP3   OH259080   3.301   6.525  14.059 -0.0264  0.0373  0.1352
12530TIP3    H159081   3.304   6.470  13.980 -1.1662  1.4302 -0.9215
12530TIP3    H259082   3.334   6.468  14.128  0.9579 -1.2575 -1.3135
12531TIP3   OH259083   0.781   0.533  14.828  0.2009 -0.0628  0.1365
12531TIP3    H159084   0.784   0.459  14.767  3.1870  0.1394 -0.0849
12531TIP3    H259085   0.781   0.493  14.915  1.6189 -0.3532  0.0147
12532TIP3   OH259086   5.937   1.136  14.600  0.5045  0.3470 -0.4108
12532TIP3    H159087   6.021   1.164  14.634  0.4467 -0.6772  0.6065
12532TIP3    H259088   5.883   1.119  14.677 -0.2756 -0.0949 -1.0289
12533TIP3   OH259089   1.878   2.394  11.234 -0.3903  0.4989 -0.1317
12533TIP3    H159090   1.888   2.443  11.316  0.8813  0.7280 -0.4029
12533TIP3    H259091   1.883   2.302  11.260 -2.2883  0.4675  0.3151
12534TIP3   OH259092   0.713   3.797  14.528 -0.4374  0.3864  0.1875
12534TIP3    H159093   0.687   3.705  14.531 -0.2665  0.3628  1.2284
12534TIP3    H259094   0.661   3.834  14.457  0.2069 -0.7205 -0.8954
12535TIP3   OH259095   4.768   1.931  14.009 -0.2122 -0.7427  0.0057
12535TIP3    H159096   4.742   1.845  14.042 -0.4497 -0.8888 -0.5390
12535TIP3    H259097   4.689   1.966  13.969 -0.7492  0.7314  2.1995
12536TIP3   OH259098   1.050   1.936  12.467 -0.5289 -0.0295 -0.0769
12536TIP3    H159099   1.121   1.873  12.457 -1.7175 -2.2333  3.3546
12536TIP3    H259100   0.979   1.902  12.413  0.0981  0.6499 -1.3561
12537TIP3   OH259101   2.739   6.645  14.435  0.3885  0.3823  0.1842
12537TIP3    H159102   2.792   6.668  14.358 -0.4799 -0.8082 -0.8097
12537TIP3    H259103   2.661   6.604  14.399  0.0307 -0.3517  1.7120
12538TIP3   OH259104   4.994   6.443  14.185  0.3525  0.1750 -0.2023
12538TIP3    H159105   5.013   6.537  14.182  1.1392  0.0355  0.3989
12538TIP3    H259106   5.044   6.410  14.259  2.9027 -1.3626 -2.4574
12539TIP3   OH259107   5.798   4.879  12.822 -0.1890 -0.0531 -0.0237
12539TIP3    H159108   5.757   4.792  12.822  0.4957 -0.3876  0.1236
12539TIP3    H259109   5.808   4.901  12.914 -0.4351  0.2177 -0.0632
12540TIP3   OH259110   2.111   0.793  10.630 -0.1619 -0.1907  0.2654
12540TIP3    H159111   2.088   0.713  10.583  0.9341  1.4010 -3.3298
12540TIP3    H259112   2.206   0.800  10.620 -0.2981  1.7812  0.0116
12541TIP3   OH259113   3.504   3.479  14.507 -0.3176  0.2327  0.5214
12541TIP3    H159114   3.546   3.393  14.507 -1.3860 -0.3126  1.1250
12541TIP3    H259115   3.495   3.501  14.414  1.5707  0.5402  0.3648
12542TIP3   OH259116   3.756   5.799   0.014 -0.1298  0.1376  0.3348
12542TIP3    H159117   3.832   5.755  -0.025  1.1190  2.2142  0.2335
12542TIP3    H259118   3.750   5.764   0.102 -0.2966 -1.4807 -0.2901
12543TIP3   OH259119   0.629   1.613  14.838 -0.1799  0.7546  0.3597
12543TIP3    H159120   0.688   1.652  14.774  0.3810 -0.3972  0.1529
12543TIP3    H259121   0.684   1.595  14.914  0.1954 -1.8359 -0.4188
12544TIP3   OH259122   4.362   1.124   5.659 -0.3683  0.1258  0.4970
12544TIP3    H159123   4.276   1.084   5.657 -0.8785  1.1860 -1.3114
12544TIP3    H259124   4.420   1.057   5.696 -1.2069 -2.2000 -2.1060
12545TIP3   OH259125   1.271   5.612   6.442  0.3716  0.1893 -0.0190
12545TIP3    H159126   1.225   5.601   6.525  0.0595 -0.4311 -0.2743
12545TIP3    H259127   1.354   5.654   6.466 -0.0950  0.8409  0.4992
12546TIP3   OH259128   3.833   4.445  16.548 -0.3997 -0.0881  0.1287
12546TIP3    H159129   3.845   4.428  16.641  1.1264  1.1599  0.1877
12546TIP3    H259130   3.835   4.540  16.540 -2.0341 -0.1053 -1.0087
12547TIP3   OH259131   6.743   3.570  13.826 -0.0273 -0.1873 -0.2072
12547TIP3    H159132   6.794   3.493  13.850 -0.6330 -0.5140  0.0376
12547TIP3    H259133   6.781   3.641  13.878  0.5933 -0.2938 -0.5066
12548TIP3   OH259134   0.362   4.192  11.066  0.4038  0.3373 -0.2909
12548TIP3    H159135   0.333   4.129  11.000  0.8671  1.1846 -1.3413
12548TIP3    H259136   0.412   4.140  11.129  0.8442 -0.3393 -1.1744
12549TIP3   OH259137   1.032   0.446   3.002  0.1464  0.0056  0.5611
12549TIP3    H159138   0.960   0.432   3.064 -0.4057  2.4050  0.5556
12549TIP3    H259139   0.992   0.438   2.916 -0.1847  1.3964  0.5580
12550TIP3   OH259140   6.582   5.685   2.322 -0.1656  0.1261 -0.2303
12550TIP3    H159141   6.623   5.761   2.362 -0.1539  0.2236 -0.4263
12550TIP3    H259142   6.585   5.618   2.390  0.1142  0.2017 -0.1674
12551TIP3   OH259143   6.804   5.962  13.119  0.3664  0.5933  0.3832
12551TIP3    H159144   6.851   6.030  13.070  2.3050 -1.1008 -0.2248
12551TIP3    H259145   6.867   5.930  13.183 -1.3094  0.9813  2.3422
12552TIP3   OH259146   5.204   4.184   5.089  0.2899 -0.1961 -0.4594
12552TIP3    H159147   5.215   4.257   5.151 -0.5594  0.3347 -0.9049
12552TIP3    H259148   5.189   4.108   5.145  0.4899  0.1019  0.0076
12553TIP3   OH259149   0.142   0.513  14.931  0.3787  0.3940 -0.0323
12553TIP3    H159150   0.098   0.429  14.926  2.2840 -0.7287  0.9613
12553TIP3    H259151   0.148   0.542  14.840  0.2149 -0.8252 -0.4534
12554TIP3   OH259152   5.325   4.647   3.750 -0.8188  0.4237  0.5527
12554TIP3    H159153   5.390   4.582   3.778 -0.1705  1.0236  0.4692
12554TIP3    H259154   5.313   4.630   3.657 -0.1903  0.8095  0.3967
12555TIP3   OH259155   2.404   1.775  14.669  0.0159  0.3050  0.4939
12555TIP3    H159156   2.486   1.800  14.626 -0.9058  1.4706 -0.6924
12555TIP3    H259157   2.375   1.855  14.713 -1.4260  0.5087 -0.7322
12556TIP3   OH259158   1.334   6.009  14.161 -0.4572 -0.3414  0.3332
12556TIP3    H159159   1.395   5.984  14.230  1.1375  0.3046 -0.7926
12556TIP3    H259160   1.339   5.938  14.096 -1.1750 -0.4493  0.3816
12557TIP3   OH259161   6.601   4.928  11.911  0.1307  0.0584 -0.1672
12557TIP3    H159162   6.551   4.976  11.977 -1.1697  0.1533 -1.1739
12557TIP3    H259163   6.692   4.939  11.937 -0.3839 -1.5456  2.7361
12558TIP3   OH259164   4.229   4.941   3.035 -0.0974 -0.4212  0.9996
12558TIP3    H159165   4.228   4.887   2.956 -1.7969 -0.4063  0.9740
12558TIP3    H259166   4.207   5.029   3.003 -1.5521 -0.5582  1.5503
12559TIP3   OH259167   0.073   6.118  14.869  0.2025 -0.5724 -0.0769
12559TIP3    H159168   0.097   6.208  14.848  0.1420 -0.3189  0.9194
12559TIP3    H259169   0.085   6.071  14.786  0.8820  0.2066 -0.4392
12560TIP3   OH259170   6.684   2.011  14.411 -0.4447 -0.1196  0.1042
12560TIP3    H159171   6.655   2.041  14.325 -1.2126 -2.5542 -0.5790
12560TIP3    H259172   6.758   1.953  14.392 -1.7630 -2.1509  0.8194
12561TIP3   OH259173   5.732   1.502   1.011  0.5364  0.2071 -0.7193
12561TIP3    H159174   5.700   1.444   0.942 -2.2252  0.1086  0.5206
12561TIP3    H259175   5.710   1.590   0.982  1.0248  0.3258 -0.7485
12562TIP3   OH259176   0.948   1.583   2.271 -0.1480 -0.3075  0.0539
12562TIP3    H159177   0.911   1.519   2.210 -0.7914 -0.1461  0.2591
12562TIP3    H259178   0.957   1.534   2.353 -1.9778  0.1927  0.6161
12563TIP3   OH259179   6.528   4.743   5.228  0.4221 -0.3562 -0.1418
12563TIP3    H159180   6.573   4.772   5.308 -0.1786  0.3696 -0.0605
12563TIP3    H259181   6.452   4.695   5.259 -1.9555  3.0427 -0.1228
12564TIP3   OH259182   2.511   6.569  14.272  0.2255  0.7182 -0.0247
12564TIP3    H159183   2.474   6.606  14.192  1.5361  2.0325 -0.0575
12564TIP3    H259184   2.528   6.477  14.250 -1.5404  0.4735 -0.4870
12565TIP3   OH259185   4.507   3.526  13.182  0.7044 -0.0163 -0.4231
12565TIP3    H159186   4.534   3.617  13.168  2.0819 -0.6370 -2.3407
12565TIP3    H259187   4.507   3.489  13.094  1.8397 -2.2939  0.4643
12566TIP3   OH259188   5.101   0.155   5.843 -0.1133  0.4110  0.2793
12566TIP3    H159189   5.122   0.063   5.830 -2.4754 -0.5612  2.5016
12566TIP3    H259190   5.176   0.190   5.892  0.4978 -0.4750  0.0093
12567TIP3   OH259191   3.025   2.532   4.094 -0.0308 -0.3228 -0.5574
12567TIP3    H159192   3.029   2.598   4.024 -0.7718  1.7377  1.2006
12567TIP3    H259193   3.117   2.515   4.116  0.1692  0.6267 -0.6133
12568TIP3   OH259194   3.221   6.447  13.195 -0.4262  0.3418  0.2964
12568TIP3    H159195   3.305   6.455  13.241 -0.2975  1.2692 -0.0625
12568TIP3    H259196   3.239   6.386  13.124  0.3516  1.5816 -0.6164
12569TIP3   OH259197   3.928   3.120   3.394 -0.4547 -0.2422 -0.5200
12569TIP3    H159198   3.840   3.083   3.401 -0.3724 -0.5024 -0.8363
12569TIP3    H259199   3.983   3.047   3.366 -0.1351 -0.0838 -0.3135
12570TIP3   OH259200   5.858   2.945   4.125 -0.1461 -0.2191  0.5719
12570TIP3    H159201   5.908   2.912   4.199  0.7826  1.3004  0.6819
12570TIP3    H259202   5.859   3.040   4.137  0.6702  0.1381 -1.7444
12571TIP3   OH259203   6.712   6.441  13.413 -0.2147 -0.4651 -0.5824
12571TIP3    H159204   6.734   6.348  13.409 -0.8953 -0.7121  0.7382
12571TIP3    H259205   6.788   6.481  13.455 -0.5126 -0.6617  0.1600
12572TIP3   OH259206   6.180   4.226  12.027 -0.2669  0.0920  0.2092
12572TIP3    H159207   6.125   4.288  12.075 -0.0690 -1.1099  2.0977
12572TIP3    H259208   6.223   4.279  11.960 -1.4511  1.6313  0.6041
12573TIP3   OH259209   1.080   4.326   0.437 -0.2365  0.0437 -0.2074
12573TIP3    H159210   1.039   4.344   0.353  3.1521 -2.3047 -2.6431
12573TIP3    H259211   1.049   4.238   0.461  1.3386 -0.7232 -0.8374
12574TIP3   OH259212   6.771   4.571   5.678  0.0552 -0.0942 -0.0795
12574TIP3    H159213   6.716   4.597   5.603 -0.0628 -0.4017 -0.1016
12574TIP3    H259214   6.839   4.515   5.639  0.0394 -0.1901  0.0321
12575TIP3   OH259215   3.578   1.852  13.737 -0.4811  0.2641 -0.3552
12575TIP3    H159216   3.488   1.876  13.762 -0.6148  0.2256 -0.7838
12575TIP3    H259217   3.621   1.936  13.721  0.1068  0.3966  1.6054
12576TIP3   OH259218   0.060   0.907   0.005 -0.8629 -0.4590  0.3252
12576TIP3    H159219   0.064   0.942  -0.084 -1.1745  0.4211  0.6407
12576TIP3    H259220   0.022   0.979   0.056 -0.0851 -0.7266  1.2844
12577TIP3   OH259221   0.109   6.364   1.992 -0.3599 -0.3606 -0.4049
12577TIP3    H159222   0.088   6.280   2.033 -0.6178  0.3065  0.8999
12577TIP3    H259223   0.135   6.342   1.903  0.0941 -1.8716  0.0746
12578TIP3   OH259224   0.849   6.537   2.994  0.2542 -0.2583 -0.1286
12578TIP3    H159225   0.889   6.459   3.032  2.2206  0.3852 -0.7853
12578TIP3    H259226   0.874   6.608   3.053  0.1116  0.1687 -0.5755
12579TIP3   OH259227   6.105   1.855   0.433  0.0560  0.6105  0.1722
12579TIP3    H159228   6.135   1.764   0.428  0.2566  0.6168  1.0900
12579TIP3    H259229   6.184   1.905   0.456 -0.2063  0.9140  0.4315
12580TIP3   OH259230   5.047   0.688  16.361  0.0471 -1.2206 -0.4016
12580TIP3    H159231   5.096   0.752  16.412 -0.6758 -1.2315  0.3165
12580TIP3    H259232   5.001   0.741  16.295 -1.6702 -0.8023  1.0691
12581TIP3   OH259233   0.756   3.008  13.427 -1.0075 -0.0684  0.0557
12581TIP3    H159234   0.688   3.035  13.489  0.2023  1.0485  0.9707
12581TIP3    H259235   0.838   3.019  13.476 -0.1555 -1.2643 -1.0492
12582TIP3   OH259236   4.616   1.860  16.031  0.1805 -0.8124  0.0083
12582TIP3    H159237   4.580   1.864  15.942 -1.1644 -2.1728  0.4543
12582TIP3    H259238   4.559   1.917  16.082  1.3095  0.4431 -0.0671
12583TIP3   OH259239   1.670   1.460  13.141 -0.0554 -0.1126  0.1715
12583TIP3    H159240   1.663   1.530  13.207 -1.7563 -0.0050 -0.0748
12583TIP3    H259241   1.748   1.412  13.166 -0.6357 -0.0683  2.2842
12584TIP3   OH259242   6.114   0.581  12.267  1.5103  0.2393  0.0130
12584TIP3    H159243   6.134   0.488  12.254  0.1284  0.1671 -1.9574
12584TIP3    H259244   6.200   0.621  12.282  2.1962 -1.2636  0.3082
12585TIP3   OH259245   2.491   2.186  10.789 -0.1787  0.6974  0.0972
12585TIP3    H159246   2.550   2.180  10.714  0.6264  1.6860  0.6268
12585TIP3    H259247   2.410   2.143  10.760  0.7442 -0.5853 -0.6894
12586TIP3   OH259248   5.240   1.458  16.233  0.1659  0.5256  0.5661
12586TIP3    H159249   5.311   1.422  16.180  0.6607  2.5962 -0.2649
12586TIP3    H259250   5.232   1.397  16.306  2.3069 -0.1481  0.3158
12587TIP3   OH259251   4.758   4.772  15.186 -0.3911  0.2978 -0.3123
12587TIP3    H159252   4.853   4.772  15.178 -0.4682  0.5353 -1.4726
12587TIP3    H259253   4.730   4.855  15.145 -1.2139 -0.8257 -2.1797
12588TIP3   OH259254   2.134   4.603  11.885  0.0751 -0.5150 -0.3935
12588TIP3    H159255   2.096   4.559  11.809  0.2570 -2.1124  0.4149
12588TIP3    H259256   2.120   4.543  11.958 -0.2845  1.0605  0.9126
12589TIP3   OH259257   5.516   1.272   1.701  0.2787 -0.5686 -0.1573
12589TIP3    H159258   5.610   1.256   1.700  0.2552 -0.7849  0.6680
12589TIP3    H259259   5.497   1.303   1.789 -0.1197  1.4390 -0.9020
12590TIP3   OH259260   1.551   1.195   2.821 -0.0432 -0.7097  0.2957
12590TIP3    H159261   1.602   1.268   2.789 -2.5751  0.8963 -0.3986
12590TIP3    H259262   1.572   1.123   2.761 -0.1627  0.5177 -1.2956
12591TIP3   OH259263   0.579   2.371   5.631 -0.3685 -0.0626  0.5743
12591TIP3    H159264   0.614   2.378   5.542  2.1703  0.1906  1.4861
12591TIP3    H259265   0.600   2.282   5.658 -2.1801 -0.5218  0.5558
12592TIP3   OH259266   6.141   1.348  15.660  0.0194 -0.3274 -0.3645
12592TIP3    H159267   6.134   1.257  15.688  1.0608  0.1423  1.5606
12592TIP3    H259268   6.059   1.388  15.688 -0.0171 -0.4433 -0.3053
12593TIP3   OH259269   2.589   1.373   3.261  0.1930  0.2770 -0.1525
12593TIP3    H159270   2.652   1.303   3.248 -0.3720 -0.3442  0.3452
12593TIP3    H259271   2.588   1.421   3.178 -0.3175 -1.0595 -0.9483
12594TIP3   OH259272   2.967   0.836   1.718  0.5760 -0.2761 -0.1532
12594TIP3    H159273   2.931   0.788   1.792  0.6963  0.2338  0.2489
12594TIP3    H259274   2.982   0.770   1.651  1.4456 -0.9319  0.6527
12595TIP3   OH259275   0.929   4.932  16.110 -0.3799  0.3280  0.2168
12595TIP3    H159276   0.845   4.963  16.143  0.3058  0.1385  2.2719
12595TIP3    H259277   0.916   4.837  16.099 -0.7498  0.4593 -0.5665
12596TIP3   OH259278   3.055   3.694  12.053  0.8578 -0.1119 -0.7783
12596TIP3    H159279   3.130   3.683  11.994 -0.9418 -3.2015 -2.7741
12596TIP3    H259280   3.078   3.643  12.131  1.1778 -0.3789 -1.0424
12597TIP3   OH259281   4.954   3.791   5.490  0.2974 -0.1696 -0.3244
12597TIP3    H159282   4.910   3.876   5.483 -0.1981 -0.5642 -3.0324
12597TIP3    H259283   4.947   3.769   5.583 -0.3945  2.2914  0.2936
12598TIP3   OH259284   4.771   4.211  11.943  0.8389 -0.3580 -0.8904
12598TIP3    H159285   4.811   4.279  11.997  0.2669 -2.0717  1.9152
12598TIP3    H259286   4.747   4.255  11.862  1.7274  2.4154  0.2334
12599TIP3   OH259287   6.352   5.005   2.761 -0.3187 -0.0297 -0.0103
12599TIP3    H159288   6.275   5.046   2.800 -0.1374  0.9369 -0.6276
12599TIP3    H259289   6.359   5.045   2.675 -0.2310 -1.5164 -0.7300
12600TIP3   OH259290   2.880   2.480   5.007  0.0223  0.4505  0.1322
12600TIP3    H159291   2.932   2.533   5.068 -1.1712  0.7065  0.9488
12600TIP3    H259292   2.900   2.389   5.031  0.3520  0.5434  0.2169
12601TIP3   OH259293   2.710   1.869  14.775 -0.1364 -0.4012 -0.0364
12601TIP3    H159294   2.722   1.950  14.825  2.0605 -0.6492 -0.0908
12601TIP3    H259295   2.673   1.899  14.691  0.4372  0.5281  0.0257
12602TIP3   OH259296   6.449   5.797  11.787  0.2376 -0.4273 -0.0112
12602TIP3    H159297   6.386   5.863  11.756  1.0555 -0.2259 -1.3272
12602TIP3    H259298   6.440   5.799  11.882 -0.1717  1.1773 -0.0460
12603TIP3   OH259299   2.958   6.565  13.989 -0.2144 -0.5417  0.2981
12603TIP3    H159300   3.009   6.615  13.925 -0.7337 -0.6427 -0.1918
12603TIP3    H259301   3.025   6.522  14.044  0.2308 -0.0179  0.1780
12604TIP3   OH259302   1.978   1.208   3.087  0.0948 -0.1298 -0.0984
12604TIP3    H159303   1.952   1.154   3.013 -0.1570 -1.5714  1.0088
12604TIP3    H259304   1.981   1.148   3.162 -0.9734  1.5291  1.3564
12605TIP3   OH259305   3.858   6.443   2.785 -0.6073  0.2533  0.1491
12605TIP3    H159306   3.940   6.435   2.834 -1.0956  0.1018  0.9572
12605TIP3    H259307   3.877   6.404   2.700 -0.8786 -3.2769  1.5321
12606TIP3   OH259308   6.477   3.722   0.353 -0.3121  0.1863  0.4926
12606TIP3    H159309   6.552   3.768   0.314 -1.5651  1.0378 -1.0655
12606TIP3    H259310   6.507   3.633   0.366  1.4099  0.8414  1.2175
12607TIP3   OH259311   1.465   5.384   4.577  0.1707 -0.7662 -0.4929
12607TIP3    H159312   1.433   5.403   4.489 -0.2495 -0.5894 -0.3067
12607TIP3    H259313   1.386   5.382   4.631  0.3221 -1.9208 -0.2937
12608TIP3   OH259314   1.964   6.276   0.923  0.2408 -0.1604  0.0483
12608TIP3    H159315   1.951   6.347   0.985  1.5078 -2.3630  3.0644
12608TIP3    H259316   1.898   6.211   0.946  1.1770 -1.3302 -0.4784
12609TIP3   OH259317   5.644   3.915   2.620  0.5716 -0.3446 -0.0217
12609TIP3    H159318   5.631   4.008   2.600  0.6874 -0.2402  0.3804
12609TIP3    H259319   5.734   3.897   2.592  1.0572  0.0322  1.2211
12610TIP3   OH259320   4.116   1.392  10.417 -0.1756 -0.7656 -0.1014
12610TIP3    H159321   4.050   1.446  10.462  0.7181 -1.3767  2.1023
12610TIP3    H259322   4.121   1.312  10.470  1.4263 -1.2620 -0.9420
12611TIP3   OH259323   1.227   1.852  15.885  0.1732  0.2210  0.0020
12611TIP3    H159324   1.234   1.772  15.832 -0.8372  0.1323 -0.0079
12611TIP3    H259325   1.149   1.896  15.853 -0.5442  0.1052  1.4768
12612TIP3   OH259326   3.697   1.610  12.882  0.0043 -0.0637 -0.4214
12612TIP3    H159327   3.751   1.541  12.922  1.1825  0.5323 -0.9331
12612TIP3    H259328   3.656   1.566  12.807  0.2117 -0.3924 -0.3487
12613TIP3   OH259329   5.477   0.066  12.326  0.6001  0.6460  0.5943
12613TIP3    H159330   5.490   0.146  12.274  0.0367  2.2496  2.7799
12613TIP3    H259331   5.385   0.043  12.312  1.0598 -0.4270 -1.0132
12614TIP3   OH259332   5.382   2.727  15.951  0.0966 -0.7374 -0.8511
12614TIP3    H159333   5.378   2.779  16.032  0.0682  0.3123 -1.5065
12614TIP3    H259334   5.469   2.687  15.952  0.2100 -0.4817 -0.4495
12615TIP3   OH259335   6.416   0.202  15.334 -0.4725 -0.1377  0.4887
12615TIP3    H159336   6.435   0.156  15.416  2.5465  0.2019  0.0854
12615TIP3    H259337   6.398   0.132  15.271  0.6893 -0.6330  0.6719
12616TIP3   OH259338   4.329   6.567  15.154  0.6689 -0.1909 -0.1427
12616TIP3    H159339   4.327   6.475  15.129  0.5311  0.1641 -1.5280
12616TIP3    H259340   4.348   6.614  15.073 -1.0478  1.1202  0.1434
12617TIP3   OH259341   2.081   5.446   5.528  0.1169  0.0704 -0.0085
12617TIP3    H159342   2.109   5.355   5.528 -0.1702 -0.0232  0.3376
12617TIP3    H259343   2.091   5.474   5.619  0.5917  0.5115 -0.1882
12618TIP3   OH259344   5.434   4.719   6.300  0.2544  0.1445  0.1757
12618TIP3    H159345   5.484   4.643   6.330 -1.2696 -1.2388 -0.5702
12618TIP3    H259346   5.400   4.759   6.380 -2.3908 -2.5117  0.5551
12619TIP3   OH259347   2.622   4.045  13.525 -0.5956  0.1293  0.5135
12619TIP3    H159348   2.574   4.092  13.457 -0.1106  0.8984  0.6828
12619TIP3    H259349   2.553   4.010  13.582 -0.9801  0.6206  0.3669
12620TIP3   OH259350   1.713   5.762  16.365 -0.4368 -0.3199  0.0714
12620TIP3    H159351   1.808   5.762  16.350 -0.1546  1.2960  1.5473
12620TIP3    H259352   1.675   5.772  16.277  0.7075 -1.7586 -0.6161
12621TIP3   OH259353   1.108   5.135   1.412 -0.3532 -0.2296  0.3571
12621TIP3    H159354   1.039   5.103   1.354 -0.0635  0.3023 -0.2965
12621TIP3    H259355   1.079   5.223   1.438  0.0946  0.0134  0.0471
12622TIP3   OH259356   2.144   5.574   4.645 -0.0593  0.0816 -0.1811
12622TIP3    H159357   2.128   5.646   4.706 -1.7398 -2.0187  2.0457
12622TIP3    H259358   2.225   5.533   4.677 -0.7071 -0.7565  0.4340
12623TIP3   OH259359   6.657   4.025   1.595  0.1042 -0.5000  0.5601
12623TIP3    H159360   6.652   4.118   1.572 -0.6839 -0.2335  1.7249
12623TIP3    H259361   6.574   3.988   1.566  0.5576 -0.9239 -0.2161
12624TIP3   OH259362   1.141   5.170  15.095 -0.1979 -0.1647  0.0000
12624TIP3    H159363   1.123   5.219  15.175  0.4181  0.5311 -0.2753
12624TIP3    H259364   1.067   5.109  15.087 -0.6744  0.3071  0.6682
12625TIP3   OH259365   2.657   0.034  13.562  0.5944 -0.2472  0.0712
12625TIP3    H159366   2.656   0.130  13.560  0.3315 -0.2339  0.6186
12625TIP3    H259367   2.617   0.012  13.646  1.5650 -0.8094  0.4037
12626TIP3   OH259368   0.747   4.528  14.118  0.2419 -0.5269 -0.1033
12626TIP3    H159369   0.762   4.578  14.198  1.5524 -0.5887 -0.2883
12626TIP3    H259370   0.700   4.587  14.060  0.5761  0.0187  0.1809
12627TIP3   OH259371   5.157   2.692  13.813 -0.4854 -0.2236 -0.0929
12627TIP3    H159372   5.169   2.745  13.891 -1.0524 -0.5910  0.2514
12627TIP3    H259373   5.238   2.703  13.764 -0.0387 -0.1565  0.6509
12628TIP3   OH259374   0.126   1.691   4.082  0.6903 -0.2671 -0.0372
12628TIP3    H159375   0.208   1.690   4.131 -0.0809  2.7130  1.5654
12628TIP3    H259376   0.143   1.636   4.005  3.0903 -2.3342  1.7790
12629TIP3   OH259377   4.529   2.787  15.667  0.5235 -0.3069  0.1149
12629TIP3    H159378   4.576   2.704  15.672 -1.1519 -1.3015  0.0557
12629TIP3    H259379   4.470   2.786  15.742  0.3217  0.7416 -0.0098
12630TIP3   OH259380   4.936   0.795   2.214 -0.2445  0.3970 -0.2674
12630TIP3    H159381   4.949   0.889   2.203 -0.4477  0.5382  0.5842
12630TIP3    H259382   4.856   0.788   2.267  0.6482 -0.1908  1.0524
12631TIP3   OH259383   4.824   1.729   1.896  0.5649  0.0175  0.0720
12631TIP3    H159384   4.752   1.782   1.930 -0.2795 -1.3743  0.5337
12631TIP3    H259385   4.893   1.792   1.876 -0.1177  1.2029  1.3077
12632TIP3   OH259386   4.199   4.800   4.506 -0.1427 -0.1011  0.6890
12632TIP3    H159387   4.192   4.860   4.581  0.8570  1.7249 -0.5854
12632TIP3    H259388   4.291   4.777   4.503 -0.4575 -1.4425  0.9197
12633TIP3   OH259389   2.974   4.226   4.248  0.6356  0.1745  0.4482
12633TIP3    H159390   2.936   4.138   4.248  0.7481  0.1258  0.7963
12633TIP3    H259391   2.905   4.282   4.215  0.6901 -0.1014 -0.1544
12634TIP3   OH259392   0.162   2.080  14.949 -0.5156  0.3112  0.6040
12634TIP3    H159393   0.147   2.174  14.938 -0.4748  0.0827 -1.8578
12634TIP3    H259394   0.074   2.041  14.944 -0.4958  0.1585  1.2707
12635TIP3   OH259395   6.219   2.703   4.526  0.7089 -0.3430  0.0198
12635TIP3    H159396   6.311   2.706   4.553  1.2012  1.1455 -1.6661
12635TIP3    H259397   6.201   2.610   4.513  1.3444 -0.8469  2.2705
12636TIP3   OH259398   1.723   5.242  11.961  0.0234  0.0427  0.0437
12636TIP3    H159399   1.642   5.227  11.912 -0.2733  1.6776 -0.0154
12636TIP3    H259400   1.733   5.164  12.015 -1.5934 -0.1857  0.0468
12637TIP3   OH259401   3.963   0.627  16.036 -0.3618 -0.3678 -0.7413
12637TIP3    H159402   4.036   0.651  16.093  0.0895  0.0954 -1.5000
12637TIP3    H259403   3.990   0.544  15.997 -0.5673 -0.5622 -0.4818
12638TIP3   OH259404   1.303   5.979   1.233  0.0100  0.2065  0.4059
12638TIP3    H159405   1.291   5.915   1.304 -0.1670 -0.0481  0.1496
12638TIP3    H259406   1.251   5.944   1.160  0.5539  0.2337  0.0002
12639TIP3   OH259407   6.716   4.450  15.984 -0.2502 -0.1388 -0.7690
12639TIP3    H159408   6.724   4.515  16.053 -0.2759  0.0252 -0.9208
12639TIP3    H259409   6.667   4.378  16.024  2.6533 -1.5882  0.5070
12640TIP3   OH259410   4.870   5.713  17.222 -0.4742 -0.4854  0.1051
12640TIP3    H159411   4.833   5.763  17.295 -0.4373  1.5619 -1.1823
12640TIP3    H259412   4.963   5.704  17.243 -1.0920 -3.3157  2.0830
12641TIP3   OH259413   0.526   5.700  11.529 -0.2881 -0.6472  0.2582
12641TIP3    H159414   0.525   5.759  11.605  0.3331 -0.8581  0.4354
12641TIP3    H259415   0.511   5.613  11.566 -1.0890 -0.6235  0.0093
12642TIP3   OH259416   4.594   3.294   2.671 -0.3100  0.2266  0.0015
12642TIP3    H159417   4.557   3.208   2.652  0.3671  0.3246 -1.9914
12642TIP3    H259418   4.536   3.355   2.625  1.2450  0.5094 -1.7170
12643TIP3   OH259419   3.210   1.226   0.657  0.4296 -0.2319  0.0843
12643TIP3    H159420   3.261   1.148   0.677  1.7634  0.1811 -1.4261
12643TIP3    H259421   3.174   1.210   0.570 -2.2094 -0.5458  1.1265
12644TIP3   OH259422   4.159   0.908  11.591  0.1493 -0.2147  0.3345
12644TIP3    H159423   4.098   0.928  11.663 -2.3564 -1.2697 -1.3691
12644TIP3    H259424   4.212   0.836  11.625 -1.0874 -0.8001  1.1214
12645TIP3   OH259425   4.299   2.344   2.125 -0.0986 -0.6395  0.0301
12645TIP3    H159426   4.313   2.252   2.103 -0.5344 -0.5355 -0.6974
12645TIP3    H259427   4.309   2.347   2.220  0.2311 -1.3799  0.0261
12646TIP3   OH259428   3.731   3.848   3.456  0.2879 -0.0912 -0.5186
12646TIP3    H159429   3.776   3.888   3.382  0.3097 -1.6856 -1.4093
12646TIP3    H259430   3.788   3.776   3.484  0.0087  0.1332  0.6967
12647TIP3   OH259431   1.781   6.624   2.696 -0.0648  0.2746 -0.1992
12647TIP3    H159432   1.774   6.607   2.602  0.2060 -0.4824 -0.0929
12647TIP3    H259433   1.846   6.560   2.726  0.5668  1.1490  0.3361
12648TIP3   OH259434   1.227   5.718   0.991 -0.1699 -0.4610 -0.2230
12648TIP3    H159435   1.171   5.775   1.043  2.1111  0.9444  0.8746
12648TIP3    H259436   1.262   5.775   0.922  1.1005 -0.8315  0.0781
12649TIP3   OH259437   2.234   2.086   4.444  0.3840  0.2272 -0.1425
12649TIP3    H159438   2.263   2.173   4.470  1.0151  0.0945 -0.3689
12649TIP3    H259439   2.315   2.038   4.428  0.1202 -1.0368  1.9905
12650TIP3   OH259440   0.783   2.948   2.077  0.5555  1.1867 -0.1595
12650TIP3    H159441   0.839   2.889   2.025  0.2801  3.3621 -3.1950
12650TIP3    H259442   0.844   3.003   2.126  0.8192 -1.5724  2.9562
12651TIP3   OH259443   1.688   0.182  14.452  0.4774  0.4370 -0.0346
12651TIP3    H159444   1.609   0.130  14.439 -0.1678  1.3918 -0.0148
12651TIP3    H259445   1.660   0.257  14.505  1.9422 -0.5964  2.3789
12652TIP3   OH259446   6.376   2.951  16.054  0.1878 -0.5442  0.0516
12652TIP3    H159447   6.396   2.878  15.996  0.5162 -0.6107  0.2455
12652TIP3    H259448   6.347   2.911  16.136 -2.3405 -0.4607 -0.7200
12653TIP3   OH259449   5.098   1.891  14.832  0.0026 -0.2007 -0.2672
12653TIP3    H159450   5.006   1.911  14.851 -0.1922 -2.1467  1.0583
12653TIP3    H259451   5.107   1.910  14.738 -0.7793  3.3055  0.2007
12654TIP3   OH259452   0.189   6.512   3.451  0.1114 -0.3468  1.2582
12654TIP3    H159453   0.103   6.482   3.424  0.1097 -1.0068  1.9357
12654TIP3    H259454   0.239   6.521   3.370 -0.2162 -1.1890  0.9569
12655TIP3   OH259455   4.724   2.714  12.413  0.2039 -0.4385 -0.2902
12655TIP3    H159456   4.752   2.704  12.322 -1.7631  0.6613 -1.0727
12655TIP3    H259457   4.640   2.668  12.417  0.4085 -0.7500  1.0891
12656TIP3   OH259458   0.667   6.097   0.681 -0.5184  0.2025 -0.1048
12656TIP3    H159459   0.685   6.189   0.667  1.5161 -0.3664 -1.6674
12656TIP3    H259460   0.583   6.082   0.638 -0.1962  1.0640 -1.0612
12657TIP3   OH259461   0.215   2.047   0.526 -0.0278 -0.2081  0.1046
12657TIP3    H159462   0.187   2.011   0.610  0.0807 -0.6474 -0.0448
12657TIP3    H259463   0.160   2.004   0.461 -1.3861  1.4721  0.0741
12658TIP3   OH259464   4.586   6.613  11.091 -0.1849  0.1533 -0.1266
12658TIP3    H159465   4.624   6.542  11.039 -1.2685 -1.1746  0.8311
12658TIP3    H259466   4.656   6.679  11.095  0.6935 -0.6508 -1.4106
12659TIP3   OH259467   4.693   1.488   6.302  0.0367 -0.1057 -0.1966
12659TIP3    H159468   4.656   1.576   6.300  2.3243  0.9284 -0.5643
12659TIP3    H259469   4.636   1.439   6.360 -3.1502  0.6940 -2.3887
12660TIP3   OH259470   1.498   6.011  15.431  0.3765  0.7137 -0.3031
12660TIP3    H159471   1.541   6.092  15.401 -0.2890  0.8824 -0.8438
12660TIP3    H259472   1.522   5.946  15.365  1.1961  0.3638  0.3150
12661TIP3   OH259473   0.925   2.488   3.856  0.4098 -0.4972 -0.0409
12661TIP3    H159474   0.849   2.450   3.900  0.0416 -0.2920 -0.4872
12661TIP3    H259475   0.966   2.543   3.922  0.2780 -0.7579  0.2611
12662TIP3   OH259476   1.053   2.647   1.301 -0.1130  0.4173  0.5435
12662TIP3    H159477   1.069   2.553   1.303  0.0083  0.4190 -0.1459
12662TIP3    H259478   0.959   2.656   1.314 -0.5508  0.0476 -1.9002
12663TIP3   OH259479   6.322   3.580  14.524 -0.2508  0.4190  0.7168
12663TIP3    H159480   6.409   3.609  14.553  0.4444 -1.4862  0.6608
12663TIP3    H259481   6.339   3.524  14.448 -1.7499  2.0411 -0.9085
12664TIP3   OH259482   4.080   3.223  17.231 -0.1305 -0.4512  0.1242
12664TIP3    H159483   4.165   3.226  17.276  1.6374  0.7191 -2.9675
12664TIP3    H259484   4.082   3.140  17.184 -0.6438 -0.3401 -0.0923
12665TIP3   OH259485   0.747   6.514   2.340  0.2081  0.4114 -0.2864
12665TIP3    H159486   0.779   6.518   2.250 -2.0960  0.1713 -1.1799
12665TIP3    H259487   0.784   6.433   2.375  1.3809  0.6632 -0.8881
12666TIP3   OH259488   2.639   0.330  10.768  0.1117  0.2901 -0.1329
12666TIP3    H159489   2.633   0.415  10.725 -0.8513  0.4141  0.2374
12666TIP3    H259490   2.614   0.267  10.701  0.2507  0.3405 -0.2334
12667TIP3   OH259491   6.178   0.287   1.586 -0.3939  0.3359 -0.4502
12667TIP3    H159492   6.204   0.204   1.547 -1.9517 -0.4681  0.1271
12667TIP3    H259493   6.084   0.294   1.567 -0.5047  1.4699  0.4072
12668TIP3   OH259494   3.740   2.113   4.186  0.4612  0.0512  0.1382
12668TIP3    H159495   3.692   2.196   4.175 -0.4916 -0.4091  0.6704
12668TIP3    H259496   3.681   2.059   4.238  0.2875 -1.6298 -1.7098
12669TIP3   OH259497   0.694   3.538   1.695 -0.1757  0.0418  0.0487
12669TIP3    H159498   0.728   3.604   1.635 -0.4493 -0.6026 -0.8375
12669TIP3    H259499   0.601   3.532   1.673 -0.1694 -0.5756  0.1714
12670TIP3   OH259500   3.634   2.859   0.808  0.1128  0.1744  0.1476
12670TIP3    H159501   3.692   2.929   0.838  0.3508 -0.2643  0.7399
12670TIP3    H259502   3.552   2.873   0.856  0.2585 -0.1176  0.4881
12671TIP3   OH259503   2.696   1.166  16.217  0.4156  0.6713  0.1120
12671TIP3    H159504   2.697   1.181  16.122  1.5988 -0.8820 -0.1699
12671TIP3    H259505   2.662   1.077  16.227 -0.5103  1.1303  1.2212
12672TIP3   OH259506   3.075   1.698   0.084  0.4680 -0.2168 -0.0453
12672TIP3    H159507   3.109   1.716   0.171  0.6161 -1.3487  0.1551
12672TIP3    H259508   3.027   1.615   0.094 -0.0908 -0.0148 -0.8934
12673TIP3   OH259509   4.030   5.033  15.824  0.0284  0.1087  0.1125
12673TIP3    H159510   4.104   4.992  15.780 -0.0435 -0.3047  0.3613
12673TIP3    H259511   3.953   4.988  15.788 -0.0081 -0.5426  0.9620
12674TIP3   OH259512   4.814   2.830  15.103  0.0225 -0.6489 -0.3409
12674TIP3    H159513   4.855   2.775  15.170 -0.2532  2.2169  2.3662
12674TIP3    H259514   4.888   2.865  15.053  0.4630 -0.4926  0.4060
12675TIP3   OH259515   3.762   4.092   1.240 -0.1016 -0.0959 -1.0083
12675TIP3    H159516   3.831   4.044   1.195 -0.4642 -1.2309 -0.3853
12675TIP3    H259517   3.783   4.082   1.333 -1.2552 -0.6914 -0.8014
12676TIP3   OH259518   1.779   4.855   2.334  0.0934 -0.4743 -0.1864
12676TIP3    H159519   1.771   4.859   2.429 -3.4777  0.2939 -0.3793
12676TIP3    H259520   1.788   4.762   2.314  0.5690 -0.6618  0.8580
12677TIP3   OH259521   2.167   1.166  14.904 -0.0638 -0.2381  0.6857
12677TIP3    H159522   2.183   1.164  14.810  1.1402  1.6139  0.7888
12677TIP3    H259523   2.239   1.116  14.942  2.1619  2.7262  0.7767
12678TIP3   OH259524   2.222   0.779  14.748  0.0759 -0.2162 -0.2576
12678TIP3    H159525   2.262   0.855  14.705  0.7710 -0.0696  0.6292
12678TIP3    H259526   2.275   0.765  14.827 -0.2092 -1.4518 -0.2626
12679TIP3   OH259527   2.567   6.270   2.575  0.0777  0.0258 -0.0769
12679TIP3    H159528   2.643   6.224   2.610  0.8663  2.0607  1.0674
12679TIP3    H259529   2.543   6.333   2.643 -0.1351  2.1797 -2.0066
12680TIP3   OH259530   4.280   0.519  15.930 -0.4569  0.1712  0.3918
12680TIP3    H159531   4.219   0.474  15.871 -0.1975 -0.1769  0.3850
12680TIP3    H259532   4.362   0.472  15.919 -0.1659  0.6952  0.3420
12681TIP3   OH259533   1.598   6.189   3.383 -0.0717 -0.1232  0.7063
12681TIP3    H159534   1.678   6.237   3.362  1.2434 -1.5839  2.1333
12681TIP3    H259535   1.567   6.156   3.299  0.3736  1.1004  0.0343
12682TIP3   OH259536   3.774   2.624  16.169  0.4973  0.0475  0.5046
12682TIP3    H159537   3.832   2.574  16.227  0.7397 -0.7808 -0.4296
12682TIP3    H259538   3.830   2.693  16.133  0.6585 -0.1625  0.3479
12683TIP3   OH259539   5.522   6.306  15.798 -0.8653  0.6512 -0.5169
12683TIP3    H159540   5.462   6.368  15.838 -1.1902 -0.2077  0.3547
12683TIP3    H259541   5.496   6.221  15.832  2.0274  0.4132  1.4914
12684TIP3   OH259542   4.626   1.364   4.260  0.4147  0.1842 -0.2918
12684TIP3    H159543   4.582   1.280   4.276  0.3121  0.4719  1.0194
12684TIP3    H259544   4.556   1.423   4.232  0.3549  0.0318 -0.4624
12685TIP3   OH259545   0.635   1.296  15.905 -0.3900  0.5140 -0.0896
12685TIP3    H159546   0.707   1.342  15.862  1.6737 -0.7504  1.8476
12685TIP3    H259547   0.632   1.211  15.861 -0.4881  0.4385  0.0634
12686TIP3   OH259548   2.200   3.359  16.447  0.0990 -0.5780 -0.4341
12686TIP3    H159549   2.255   3.295  16.493 -1.8386 -1.8220  0.2694
12686TIP3    H259550   2.213   3.338  16.354 -0.0476 -1.6205 -0.2349
12687TIP3   OH259551   1.085   3.548  11.724 -0.1443 -0.4660 -0.2385
12687TIP3    H159552   1.091   3.577  11.632 -0.3104 -0.4300 -0.2384
12687TIP3    H259553   1.037   3.465  11.720 -0.8476 -0.0791 -0.1154
12688TIP3   OH259554   0.633   5.337  16.051  0.2707 -0.3921 -0.0153
12688TIP3    H159555   0.672   5.316  15.966  0.3532 -0.4874  0.0447
12688TIP3    H259556   0.542   5.357  16.032  0.2516 -0.5618 -0.1094
12689TIP3   OH259557   0.299   3.959  12.687 -0.0775 -0.0142 -0.6777
12689TIP3    H159558   0.269   3.869  12.700 -0.1554  0.1017 -0.0236
12689TIP3    H259559   0.387   3.961  12.725 -0.3578  0.3644 -0.0385
12690TIP3   OH259560   0.038   3.761  16.687 -0.3210  0.3533 -0.2879
12690TIP3    H159561  -0.037   3.705  16.707 -1.2975  1.1327 -1.5746
12690TIP3    H259562   0.063   3.737  16.598  1.8067 -0.7580  0.5271
12691TIP3   OH259563   5.843   4.556   1.004  0.8449  0.2468 -0.6240
12691TIP3    H159564   5.863   4.465   0.983  1.8201  0.7482 -1.9595
12691TIP3    H259565   5.810   4.553   1.094 -0.2741 -1.5665 -1.0411
12692TIP3   OH259566   5.528   0.221  15.897 -0.3093 -0.0152 -0.7159
12692TIP3    H159567   5.593   0.184  15.838 -0.1842 -0.8054 -0.0963
12692TIP3    H259568   5.509   0.307  15.860  0.8912  0.1279 -1.0478
12693TIP3   OH259569   4.511   0.345  15.854 -0.0317  0.0193 -0.1949
12693TIP3    H159570   4.531   0.265  15.901  0.5073  0.7834  0.9127
12693TIP3    H259571   4.541   0.329  15.764 -2.9937 -2.2517 -0.9231
12694TIP3   OH259572   3.328   0.021  16.684  0.1928 -0.0117  0.0645
12694TIP3    H159573   3.302   0.101  16.638  0.5479 -0.0437 -0.1924
12694TIP3    H259574   3.281   0.025  16.767 -1.3668 -0.5109 -0.7588
12695TIP3   OH259575   1.134   4.944  16.668  0.1091  0.2396  0.1730
12695TIP3    H159576   1.053   4.894  16.670  0.3185 -0.1622 -0.7879
12695TIP3    H259577   1.154   4.961  16.760 -0.3612 -0.8188  0.4899
12696TIP3   OH259578   1.162   0.691  14.855 -0.0382  0.3755 -0.2928
12696TIP3    H159579   1.157   0.694  14.760 -0.9141 -0.4508 -0.2949
12696TIP3    H259580   1.255   0.680  14.874  0.1551  0.6523 -1.0478
12697TIP3   OH259581   3.578   3.412   4.881 -0.1157 -0.3994 -0.0653
12697TIP3    H159582   3.605   3.353   4.952  0.5683  0.7786  0.6976
12697TIP3    H259583   3.485   3.393   4.868  0.0915 -1.6425  0.1461
12698TIP3   OH259584   0.425   2.231  15.816  0.3517  0.2497 -0.2733
12698TIP3    H159585   0.379   2.153  15.848 -2.8232  2.4485  1.0448
12698TIP3    H259586   0.481   2.258  15.888  0.7203 -0.2533 -0.3658
12699TIP3   OH259587   1.519   3.098   1.621 -0.7357  0.1100  0.1371
12699TIP3    H159588   1.590   3.149   1.660 -1.0268  1.5248 -1.0684
12699TIP3    H259589   1.441   3.152   1.634 -1.4555 -1.0104  0.6579
12700TIP3   OH259590   1.852   5.074  13.497 -0.1627 -0.2486  0.2335
12700TIP3    H159591   1.789   5.132  13.454  1.4648  0.9856 -0.6123
12700TIP3    H259592   1.927   5.072  13.437  0.0881 -2.8225  0.5113
12701TIP3   OH259593   6.408   5.311  15.030  0.5672 -0.1048  0.6762
12701TIP3    H159594   6.456   5.390  15.052 -0.0290 -0.0099  1.6521
12701TIP3    H259595   6.457   5.273  14.957  0.9424  1.0731  0.2958
12702TIP3   OH259596   3.626   4.607  15.296 -0.5392  0.4729  0.1843
12702TIP3    H159597   3.691   4.558  15.246  1.6923  3.7689 -0.4897
12702TIP3    H259598   3.675   4.644  15.370 -2.2481  1.0506  1.0903
12703TIP3   OH259599   3.854   0.221  14.975  0.5755 -0.3095 -0.5547
12703TIP3    H159600   3.885   0.139  14.938 -2.1815 -1.5610 -0.3374
12703TIP3    H259601   3.837   0.277  14.899  0.1587 -0.8381 -0.8534
12704TIP3   OH259602   4.566   1.233  16.903 -0.1824 -0.5192  0.4711
12704TIP3    H159603   4.482   1.250  16.946 -1.2749 -0.2582 -1.6280
12704TIP3    H259604   4.554   1.266  16.814  1.3268 -2.6530 -0.6012
12705TIP3   OH259605   3.675   2.199   6.743 -0.1248 -0.1361  0.4086
12705TIP3    H159606   3.708   2.110   6.752 -0.9045 -0.5223 -0.3931
12705TIP3    H259607   3.606   2.192   6.677 -1.5131  0.7152  1.7179
12706TIP3   OH259608   3.230   4.892  11.156 -0.0373  0.0130  0.0600
12706TIP3    H159609   3.307   4.839  11.174  0.6702  0.3708 -1.7265
12706TIP3    H259610   3.157   4.842  11.192  0.9664 -0.5027  1.4538
12707TIP3   OH259611   3.222   0.611  17.204  0.2796  0.1091 -0.0302
12707TIP3    H159612   3.162   0.599  17.130  0.0453  0.2742  0.1342
12707TIP3    H259613   3.165   0.633  17.278  0.4844 -0.3773  0.2763
12708TIP3   OH259614   5.756   4.393   6.257  0.4955  0.7828  0.4543
12708TIP3    H159615   5.806   4.448   6.317  0.4070  1.8055 -0.3879
12708TIP3    H259616   5.724   4.453   6.189  0.2450 -0.2650 -0.3923
12709TIP3   OH259617   3.963   0.600  10.701 -0.0523  0.0494 -0.4097
12709TIP3    H159618   3.886   0.574  10.752  0.5411  1.2161  1.1776
12709TIP3    H259619   3.950   0.694  10.686  0.5213  0.0236 -1.1123
12710TIP3   OH259620   6.572   3.388  13.354 -0.4693 -0.6387  0.7465
12710TIP3    H159621   6.588   3.309  13.302  0.9571  0.5639 -0.7410
12710TIP3    H259622   6.630   3.380  13.429  0.4695 -0.5380  0.0497
12711TIP3   OH259623   4.154   6.344  16.316 -0.4062  0.0100  0.1088
12711TIP3    H159624   4.145   6.305  16.403  2.8687  0.7075  0.8941
12711TIP3    H259625   4.195   6.276  16.263 -0.4968  0.2837 -0.3179
12712TIP3   OH259626   0.553   2.234   1.290  0.2610  0.6249 -0.1528
12712TIP3    H159627   0.494   2.296   1.332  0.5393  0.9396 -0.2300
12712TIP3    H259628   0.498   2.189   1.225 -0.2435 -0.0593  0.7214
12713TIP3   OH259629   4.656   1.200  15.827  0.1997 -0.0833 -0.4020
12713TIP3    H159630   4.737   1.177  15.781  0.6396  1.1249 -0.2719
12713TIP3    H259631   4.645   1.294  15.811  0.7509  0.5676  2.4703
12714TIP3   OH259632   5.199   2.815   6.651  0.2439 -0.1104 -0.4381
12714TIP3    H159633   5.216   2.724   6.626  1.1947 -0.1842  0.3839
12714TIP3    H259634   5.286   2.855   6.655 -0.1116  0.6621 -0.1664
12715TIP3   OH259635   2.856   6.514  11.820  0.0852 -0.2476 -0.0946
12715TIP3    H159636   2.949   6.508  11.844  0.3909  1.6807 -0.6449
12715TIP3    H259637   2.857   6.519  11.724 -0.5964 -0.3660 -0.1135
12716TIP3   OH259638   3.064   3.514   0.988 -0.3216 -0.3007  0.4418
12716TIP3    H159639   3.151   3.548   0.966 -0.7230  0.7219  0.3721
12716TIP3    H259640   3.078   3.461   1.067  0.3168  0.1187  0.6189
12717TIP3   OH259641   5.005   1.455   2.417  0.4069 -0.2313  0.1489
12717TIP3    H159642   5.012   1.489   2.328 -1.0056  0.2806  0.2172
12717TIP3    H259643   5.007   1.360   2.406 -0.0848 -0.1748 -0.4643
12718TIP3   OH259644   5.812   0.590   3.546 -0.0116  0.2284 -0.0565
12718TIP3    H159645   5.839   0.583   3.637 -0.7226 -0.1239  0.1355
12718TIP3    H259646   5.893   0.589   3.496  0.6347  3.3224  0.7147
12719TIP3   OH259647   4.802   6.462  13.164 -0.1535 -0.5759 -0.6585
12719TIP3    H159648   4.798   6.393  13.230 -1.1192  2.1056  2.3255
12719TIP3    H259649   4.720   6.455  13.116 -0.4528 -1.1555 -0.0738
12720TIP3   OH259650   1.331   2.333  14.279 -0.0141  0.2545 -0.4591
12720TIP3    H159651   1.366   2.282  14.352 -0.1724  0.5965 -0.1406
12720TIP3    H259652   1.376   2.417  14.285 -0.9682  0.7420  0.0284
12721TIP3   OH259653   2.454   4.466  12.128  0.2985 -0.0881 -0.2610
12721TIP3    H159654   2.517   4.520  12.175  1.3747 -0.5153 -1.1430
12721TIP3    H259655   2.375   4.519  12.122  0.5949  0.4891  0.8274
12722TIP3   OH259656   5.103   6.585   3.418 -0.1237 -0.3005  0.3385
12722TIP3    H159657   5.021   6.560   3.460  1.1058 -1.0837  2.4353
12722TIP3    H259658   5.136   6.504   3.380 -0.5248  0.1151 -0.9445
12723TIP3   OH259659   0.922   3.387  15.526 -0.4265 -0.2900 -0.1908
12723TIP3    H159660   0.838   3.380  15.481 -1.0577  1.6955  0.5887
12723TIP3    H259661   0.951   3.477  15.510  1.0174 -0.6091  0.4753
12724TIP3   OH259662   2.616   6.610  17.240  0.3456  0.3210 -0.7214
12724TIP3    H159663   2.658   6.646  17.162  0.3809  2.5454  0.2468
12724TIP3    H259664   2.525   6.596  17.214  0.6841 -0.3758 -1.5706
12725TIP3   OH259665   4.631   0.829   2.045  0.4103 -0.0358 -0.1787
12725TIP3    H159666   4.555   0.831   1.987  0.3444  0.5871 -0.0777
12725TIP3    H259667   4.645   0.736   2.064 -0.4637 -0.1370 -0.0133
12726TIP3   OH259668   3.596   2.073  11.816 -0.1548 -0.3152 -0.0782
12726TIP3    H159669   3.611   2.063  11.722  1.7400 -1.1310  0.2759
12726TIP3    H259670   3.632   1.994  11.855 -0.6564  0.1468  1.3767
12727TIP3   OH259671   2.917   3.163   0.352 -0.4812  0.5726 -0.4615
12727TIP3    H159672   2.868   3.131   0.276 -1.2229  3.4583 -1.3168
12727TIP3    H259673   2.849   3.190   0.414 -0.0651  3.2140 -1.0417
12728TIP3   OH259674   1.983   1.023   2.282  0.3202  0.0175 -0.2558
12728TIP3    H159675   2.048   1.084   2.315  0.8927 -1.2621  1.0992
12728TIP3    H259676   1.899   1.063   2.303  0.6688 -0.3645  2.0912
12729TIP3   OH259677   4.929   6.255   3.147  0.4785  0.0939 -0.3514
12729TIP3    H159678   4.886   6.249   3.062  1.3964  1.7318 -0.9810
12729TIP3    H259679   5.004   6.312   3.132 -0.3231  1.9373  1.9323
12730TIP3   OH259680   3.352   4.231   0.526 -0.2961  0.0672 -0.1469
12730TIP3    H159681   3.257   4.231   0.514 -0.2531 -0.3198 -0.4943
12730TIP3    H259682   3.373   4.141   0.551  0.0490  0.0032 -0.6596
12731TIP3   OH259683   5.141   1.997   2.090  0.3222  0.2072  0.2310
12731TIP3    H159684   5.126   2.091   2.097  0.3312  0.1977  0.3707
12731TIP3    H259685   5.231   1.985   2.122  0.3991  0.1800  0.0057
12732TIP3   OH259686   0.377   5.092  16.280  0.2358  0.2358 -0.4999
12732TIP3    H159687   0.362   5.092  16.185  0.5454  0.8829 -0.5540
12732TIP3    H259688   0.307   5.146  16.316  1.8946  2.6755 -0.6882
12733TIP3   OH259689   1.568   5.254  14.452  0.2424  0.7082 -0.0468
12733TIP3    H159690   1.575   5.295  14.366 -0.2759  0.2030 -0.3378
12733TIP3    H259691   1.580   5.326  14.514 -1.1281  1.4047 -0.5393
12734TIP3   OH259692   6.430   3.576   3.884  0.8827  0.2037 -0.1860
12734TIP3    H159693   6.369   3.581   3.958  0.8505  2.0417 -0.3017
12734TIP3    H259694   6.379   3.601   3.808  1.5603  0.8987 -0.4238
12735TIP3   OH259695   1.951   5.904  12.553  0.1602 -0.4218 -0.0404
12735TIP3    H159696   1.878   5.885  12.494 -1.5856  0.4318  1.7195
12735TIP3    H259697   1.910   5.916  12.638  2.6023 -1.9578  1.4637
12736TIP3   OH259698   0.878   5.751   5.636 -0.4933 -0.1890 -0.1196
12736TIP3    H159699   0.895   5.812   5.708 -0.3223 -0.0723 -0.2571
12736TIP3    H259700   0.936   5.780   5.566 -1.4794  0.4080 -0.7186
12737TIP3   OH259701   0.612   4.088   0.949  0.3437  0.4991  0.2562
12737TIP3    H159702   0.586   4.176   0.921  0.9296  0.2155 -1.2458
12737TIP3    H259703   0.707   4.087   0.940  0.4541  0.0418  1.3069
12738TIP3   OH259704   5.630   1.449  12.624 -0.0314 -0.5840  0.2438
12738TIP3    H159705   5.693   1.521  12.621  0.2075 -0.6820  1.7720
12738TIP3    H259706   5.607   1.432  12.533 -0.1026  1.4399 -0.1513
12739TIP3   OH259707   0.276   1.555  16.200  0.4771 -0.3615 -0.3402
12739TIP3    H159708   0.196   1.607  16.209  0.7697  0.0311 -0.0003
12739TIP3    H259709   0.346   1.619  16.188  0.6552 -0.7252 -1.4068
12740TIP3   OH259710   4.175   6.276  10.797  0.3289  0.7571  0.1954
12740TIP3    H159711   4.184   6.316  10.710 -0.9774  2.7417  0.9171
12740TIP3    H259712   4.081   6.278  10.814  0.3061 -1.7632  0.7312
12741TIP3   OH259713   6.402   6.420   3.810 -0.1014 -0.1379  0.3734
12741TIP3    H159714   6.432   6.396   3.898  2.7106  1.6066  0.0083
12741TIP3    H259715   6.363   6.507   3.820  0.9780  0.4237 -0.2096
12742TIP3   OH259716   4.884   0.330   1.912  0.0537  0.0260  0.2527
12742TIP3    H159717   4.847   0.324   1.824  1.0667 -2.6018 -0.0732
12742TIP3    H259718   4.978   0.317   1.901  0.2128 -0.3294  1.7096
12743TIP3   OH259719   0.030   5.789   2.876 -0.2057 -0.4969  0.2174
12743TIP3    H159720   0.082   5.735   2.816  0.5134  0.8334 -0.3934
12743TIP3    H259721   0.086   5.799   2.953 -0.1716 -0.2711  0.1620
12744TIP3   OH259722   0.985   6.341  10.467  0.4800  0.2051 -0.1390
12744TIP3    H159723   1.068   6.341  10.515  0.4550  1.2491 -0.0730
12744TIP3    H259724   0.992   6.415  10.407 -0.4270  0.3282 -0.0985
12745TIP3   OH259725   0.999   5.240  12.752 -0.2430  0.2003  0.0130
12745TIP3    H159726   0.950   5.269  12.829 -2.0046  0.7412 -1.2281
12745TIP3    H259727   1.038   5.157  12.777 -1.8780 -0.2861  1.0866
12746TIP3   OH259728   5.501   1.289  14.183  0.0849 -0.0577  0.3956
12746TIP3    H159729   5.522   1.324  14.270 -0.1342  0.5312  0.2138
12746TIP3    H259730   5.568   1.326  14.125  0.8356 -1.2350  0.4670
12747TIP3   OH259731   3.169   6.085   2.830  0.5009  0.1418  0.1666
12747TIP3    H159732   3.151   6.021   2.899  2.4166 -0.7419 -0.0902
12747TIP3    H259733   3.220   6.153   2.873  0.1709  0.5062 -0.0063
12748TIP3   OH259734   0.280   0.453  13.650 -0.6370 -0.2722  0.0731
12748TIP3    H159735   0.232   0.412  13.577 -0.5082  0.2355 -0.3047
12748TIP3    H259736   0.216   0.456  13.721 -0.1979 -2.5117  0.6235
12749TIP3   OH259737   0.657   3.190   1.772  0.1842 -0.3554 -0.3304
12749TIP3    H159738   0.621   3.230   1.852 -0.8331  1.6057 -1.6929
12749TIP3    H259739   0.597   3.118   1.753  0.8949 -1.3815  1.0567
12750TIP3   OH259740   0.267   5.768  16.493 -0.3105 -0.0165  0.3370
12750TIP3    H159741   0.281   5.718  16.574 -0.8905  0.5075  0.7762
12750TIP3    H259742   0.253   5.702  16.426  0.8147 -0.4740  0.5351
12751TIP3   OH259743   3.546   4.549   5.537  0.8903  0.0682  0.2219
12751TIP3    H159744   3.563   4.504   5.454 -2.2581 -0.8364 -0.0530
12751TIP3    H259745   3.556   4.642   5.516  1.8342 -0.2288 -0.7080
12752TIP3   OH259746   5.538   0.073   5.867 -0.3926  0.0760  0.4761
12752TIP3    H159747   5.600   0.008   5.901 -1.2678 -0.0075  2.0207
12752TIP3    H259748   5.564   0.155   5.909  0.3413  0.6462 -1.0097
12753TIP3   OH259749   6.300   0.777  16.997 -0.5709 -0.1301  0.2829
12753TIP3    H159750   6.236   0.758  16.929  0.0967 -1.0911 -0.0965
12753TIP3    H259751   6.369   0.827  16.953 -1.6337  2.0305  0.9680
12754TIP3   OH259752   0.490   6.722  12.496 -0.4828  0.5377 -0.1013
12754TIP3    H159753   0.408   6.747  12.539 -0.5713  0.8745 -0.4599
12754TIP3    H259754   0.479   6.750  12.405 -0.7783 -1.2807 -0.6568
12755TIP3   OH259755   4.701   6.009   4.284  0.2343  0.2770 -0.3213
12755TIP3    H159756   4.672   5.949   4.215 -2.4150  1.5467 -0.4256
12755TIP3    H259757   4.728   6.088   4.237  1.2711  0.0866 -0.0521
12756TIP3   OH259758   3.831   4.673  11.545 -0.1553 -0.1079  0.5348
12756TIP3    H159759   3.790   4.752  11.510 -0.9958 -1.2444 -1.2015
12756TIP3    H259760   3.868   4.629  11.469  2.4328 -0.2450  1.7613
12757TIP3   OH259761   6.700   6.815   4.594 -0.3906  0.5738  0.4725
12757TIP3    H159762   6.652   6.755   4.652  1.5538 -0.5763  0.9835
12757TIP3    H259763   6.792   6.796   4.611  0.2578  1.3078 -1.8925
12758TIP3   OH259764   6.682   6.267  13.859 -0.3524  0.4478 -0.4552
12758TIP3    H159765   6.589   6.272  13.835  0.0329 -0.5947 -2.3719
12758TIP3    H259766   6.704   6.356  13.887 -1.8444  0.7810 -0.2439
12759TIP3   OH259767   1.473   6.790   0.899 -0.1825 -0.5568  0.0269
12759TIP3    H159768   1.545   6.770   0.839  0.5609 -0.2779  0.8064
12759TIP3    H259769   1.494   6.741   0.978 -0.5029  0.0632  0.4985
12760TIP3   OH259770   3.509   6.555   3.750 -0.2754 -0.6055 -0.7541
12760TIP3    H159771   3.577   6.515   3.695 -0.6925 -1.0884 -0.9263
12760TIP3    H259772   3.431   6.502   3.734 -0.6645 -0.1276 -0.4669
12761TIP3   OH259773   6.563   4.324  16.296  0.0031  0.2173  0.6330
12761TIP3    H159774   6.565   4.238  16.253  0.3860  0.1534  0.7712
12761TIP3    H259775   6.510   4.310  16.374  0.1900  0.0635  0.7357
12762TIP3   OH259776   6.531   2.462  13.168 -0.2209 -0.6181  0.1222
12762TIP3    H159777   6.552   2.555  13.167 -1.9328 -0.1872  0.7305
12762TIP3    H259778   6.615   2.418  13.183  0.4902  0.8604  0.6473
12763TIP3   OH259779   0.785   6.566   5.855 -0.1307  0.0983 -0.7773
12763TIP3    H159780   0.841   6.512   5.911  1.9823  1.6755 -1.2437
12763TIP3    H259781   0.759   6.639   5.911  2.3643  1.9243 -1.8486
12764TIP3   OH259782   0.361   2.419   6.112  0.0174 -0.1066  0.2945
12764TIP3    H159783   0.344   2.341   6.060 -2.5578  1.5383 -1.5723
12764TIP3    H259784   0.455   2.416   6.131 -0.1373 -4.1828  1.3577
12765TIP3   OH259785   3.719   6.548   2.488 -0.5791  0.3596  0.6803
12765TIP3    H159786   3.668   6.532   2.408 -1.3024  1.1515  0.9662
12765TIP3    H259787   3.703   6.471   2.543  2.5162 -1.8243 -1.1685
12766TIP3   OH259788   6.646   4.966  13.951 -0.1641  0.5179  0.2622
12766TIP3    H159789   6.556   4.932  13.946 -1.0639  2.6297  0.7370
12766TIP3    H259790   6.650   5.011  14.035  0.6544  2.1779 -0.6023
12767TIP3   OH259791   2.037   6.637   3.510 -0.6868  0.6729 -0.7882
12767TIP3    H159792   2.124   6.674   3.500 -0.7110  0.7570 -0.6916
12767TIP3    H259793   2.017   6.646   3.603 -0.3038 -0.4562 -0.5804
12768TIP3   OH259794   1.647   4.452   2.956 -0.0261  0.0066 -0.6149
12768TIP3    H159795   1.737   4.480   2.975 -0.6388  2.0283 -0.4509
12768TIP3    H259796   1.596   4.485   3.030 -0.9185 -1.1046 -0.7156
12769TIP3   OH259797   4.875   1.297  10.885  0.5357 -0.3660  0.0511
12769TIP3    H159798   4.804   1.328  10.828 -0.1678 -1.1540  0.4729
12769TIP3    H259799   4.945   1.361  10.873 -0.0449  0.1335 -0.7908
12770TIP3   OH259800   5.686   1.361   5.592  0.4315 -0.3075 -0.0997
12770TIP3    H159801   5.765   1.318   5.559 -0.2095 -0.8362 -0.9883
12770TIP3    H259802   5.679   1.441   5.539 -0.9971 -1.5077 -1.8860
12771TIP3   OH259803   5.959   4.192   2.063 -0.2157 -0.2608 -0.0362
12771TIP3    H159804   5.948   4.279   2.101 -1.3886 -0.1055 -0.6897
12771TIP3    H259805   5.980   4.136   2.138  0.5810  0.5716  0.3866
12772TIP3   OH259806   4.007   5.064  12.615 -0.0802  0.2636 -0.6325
12772TIP3    H159807   3.915   5.085  12.634 -0.8954 -1.0009 -2.7948
12772TIP3    H259808   4.057   5.134  12.657 -1.9706  0.7023  1.0606
12773TIP3   OH259809   5.034   1.004  15.345  0.2164  0.2759  0.3603
12773TIP3    H159810   4.957   1.056  15.323 -1.0576 -1.8278 -0.4105
12773TIP3    H259811   5.049   0.949  15.268  1.3077 -0.7435  1.2523
12774TIP3   OH259812   3.531   3.171  13.224  0.1611 -0.1015  0.0379
12774TIP3    H159813   3.437   3.189  13.229  0.2760  0.4443  0.3344
12774TIP3    H259814   3.572   3.251  13.255  0.7060 -0.9558  1.6063
12775TIP3   OH259815   4.640   2.006   0.562  0.0690  0.0364  0.0414
12775TIP3    H159816   4.564   2.008   0.619 -0.4545 -0.1683 -0.6303
12775TIP3    H259817   4.703   1.950   0.606  0.2483  1.0485  1.1116
12776TIP3   OH259818   3.506   6.063  11.473 -0.0747  0.4652  0.3579
12776TIP3    H159819   3.595   6.081  11.501  0.4008  0.4747 -1.1006
12776TIP3    H259820   3.472   6.002  11.539  2.0840 -2.0475 -0.6602
12777TIP3   OH259821   0.014   0.492  12.687  0.0648  0.5357 -0.0633
12777TIP3    H159822   0.031   0.450  12.772 -1.9327 -0.0805  0.0847
12777TIP3    H259823   0.097   0.485  12.640  1.1982  0.7821  1.7708
12778TIP3   OH259824   5.810   4.139  16.503 -0.1181 -0.3022 -0.1580
12778TIP3    H159825   5.732   4.193  16.514  0.1416  0.2339 -0.9115
12778TIP3    H259826   5.881   4.201  16.487  1.0059 -0.5737  3.0640
12779TIP3   OH259827   0.224   4.359  12.427 -0.2464  0.5610  0.3926
12779TIP3    H159828   0.275   4.358  12.508  0.6533  1.5286 -0.1416
12779TIP3    H259829   0.289   4.354  12.357 -0.9086  1.2795 -0.3016
12780TIP3   OH259830   4.635   2.780   6.126 -0.3470 -0.5455 -0.3342
12780TIP3    H159831   4.557   2.813   6.171 -0.6637 -0.3210 -1.0414
12780TIP3    H259832   4.601   2.716   6.063  0.2173 -2.0183  0.7823
12781TIP3   OH259833   1.155   0.211  10.248 -0.2898  0.4256  0.1237
12781TIP3    H159834   1.062   0.190  10.245 -0.4464  1.0247  0.5010
12781TIP3    H259835   1.170   0.241  10.338  0.2586  0.3714  0.0552
12782TIP3   OH259836   6.247   2.475  16.484 -0.0087  0.2980  0.1228
12782TIP3    H159837   6.309   2.462  16.555  0.8742  0.9464 -0.5044
12782TIP3    H259838   6.194   2.550  16.511 -0.5141 -0.2316  0.6414
12783TIP3   OH259839   4.321   6.133  16.196  0.3516  0.4957 -0.3822
12783TIP3    H159840   4.344   6.052  16.150 -0.1075  0.4198 -0.4895
12783TIP3    H259841   4.351   6.119  16.285 -2.3781 -1.0725  0.4082
12784TIP3   OH259842   6.105   0.879   5.457 -0.6126 -0.4407 -0.1713
12784TIP3    H159843   6.059   0.962   5.464  2.4235  1.3548  0.4004
12784TIP3    H259844   6.146   0.881   5.371  1.4501 -0.1349  0.7489
12785TIP3   OH259845   1.372   5.874  14.857  0.2033  0.1377  0.1514
12785TIP3    H159846   1.290   5.914  14.831  1.0360  1.0979 -1.1393
12785TIP3    H259847   1.429   5.949  14.878  1.3743 -0.3979 -0.9931
12786TIP3   OH259848   3.710   3.321   1.223 -0.1775 -0.1990  0.7844
12786TIP3    H159849   3.695   3.405   1.180  0.2339 -0.8232 -0.6492
12786TIP3    H259850   3.706   3.257   1.152  1.4231 -1.1820  1.5160
12787TIP3   OH259851   3.229   3.879  12.189 -0.3168  0.1445  0.4976
12787TIP3    H159852   3.145   3.924  12.182 -0.2280  0.2139 -0.2061
12787TIP3    H259853   3.248   3.851  12.099  0.5651  0.4142  0.5965
12788TIP3   OH259854   2.916   0.003   5.157 -0.2356 -0.4130 -0.2297
12788TIP3    H159855   2.821   0.006   5.162 -0.3117  0.7047 -1.5335
12788TIP3    H259856   2.936   0.030   5.067  1.3450  0.4410  0.3357
12789TIP3   OH259857   1.496   4.956  11.319 -0.3888  0.2566  0.2048
12789TIP3    H159858   1.500   4.925  11.229 -1.0015 -0.0323  0.2747
12789TIP3    H259859   1.421   4.910  11.357  1.4019 -1.7026  1.6280
12790TIP3   OH259860   1.488   4.915   5.564  0.2179  0.5833  0.0408
12790TIP3    H159861   1.487   5.003   5.603 -0.4065 -0.5298  2.7181
12790TIP3    H259862   1.579   4.901   5.539  0.6796  1.3368  1.2218
12791TIP3   OH259863   6.653   4.416   0.430 -0.4117  0.1461  0.2157
12791TIP3    H159864   6.748   4.405   0.432 -0.4403 -0.0465  0.4938
12791TIP3    H259865   6.622   4.346   0.372 -0.3096  0.7539 -0.5944
12792TIP3   OH259866   1.296   3.803   0.077 -0.4047 -0.2935  0.0863
12792TIP3    H159867   1.356   3.877   0.075 -1.1721  0.3426  0.0517
12792TIP3    H259868   1.288   3.776  -0.015  0.7796 -1.1909  0.2182
12793TIP3   OH259869   4.710   2.277   3.047 -0.4222  0.1464  0.2926
12793TIP3    H159870   4.683   2.265   2.956  0.2336 -0.1263  0.1256
12793TIP3    H259871   4.784   2.217   3.058 -0.9970 -0.4144  1.2410
12794TIP3   OH259872   5.230   5.512  14.446 -0.6200 -0.4415  0.2854
12794TIP3    H159873   5.209   5.559  14.527 -1.2422 -1.2496  0.6055
12794TIP3    H259874   5.265   5.580  14.387 -2.7208  0.7115  0.2687
12795TIP3   OH259875   5.314   3.591   0.471  0.1423  0.3141  0.4434
12795TIP3    H159876   5.374   3.578   0.397 -1.3182  1.1666 -0.9571
12795TIP3    H259877   5.271   3.506   0.481  0.2986  0.2111  0.2641
12796TIP3   OH259878   2.570   6.819  16.311  0.3117 -0.5563  0.4183
12796TIP3    H159879   2.569   6.913  16.331 -1.5415 -0.6119  0.7825
12796TIP3    H259880   2.610   6.779  16.388  0.0155 -0.1501  0.7938
12797TIP3   OH259881   3.313   1.878  13.200 -0.1495 -0.3872  0.1491
12797TIP3    H159882   3.388   1.822  13.182  0.1978  0.4779 -1.2080
12797TIP3    H259883   3.350   1.957  13.239 -0.3426 -0.0106 -0.4051
12798TIP3   OH259884   5.897   1.792  10.439 -0.4322 -0.2966 -0.5128
12798TIP3    H159885   5.944   1.875  10.449  1.4682 -1.1220 -1.9598
12798TIP3    H259886   5.859   1.795  10.352 -0.3980 -0.9146 -0.5572
12799TIP3   OH259887   3.492   5.340   4.024  0.2575 -0.5899  0.5475
12799TIP3    H159888   3.454   5.380   3.947  1.0871 -1.9158 -0.5926
12799TIP3    H259889   3.421   5.340   4.089 -0.4626  0.4794 -0.2142
12800TIP3   OH259890   3.242   2.820   5.149  0.4132  0.0967 -0.6049
12800TIP3    H159891   3.205   2.907   5.162 -0.8151 -0.5638  0.5681
12800TIP3    H259892   3.172   2.760   5.174  1.7933 -1.2227  0.2553
12801TIP3   OH259893   0.701   6.449  13.641  0.4899  0.6789  0.2959
12801TIP3    H159894   0.700   6.375  13.702  0.6044  0.8793  0.5443
12801TIP3    H259895   0.730   6.523  13.694  2.7121  0.4433 -0.4959
12802TIP3   OH259896   1.974   5.267  13.158 -0.2101 -0.3775 -0.6434
12802TIP3    H159897   1.879   5.264  13.157 -0.2904  0.0550  1.7785
12802TIP3    H259898   2.000   5.212  13.232  1.3714  0.3014 -0.6434
12803TIP3   OH259899   0.812   4.972   3.032  0.6300 -1.0950 -0.3105
12803TIP3    H159900   0.829   4.954   2.939 -0.4007  1.0352 -0.9739
12803TIP3    H259901   0.746   5.041   3.031  0.7108 -0.9145  2.0332
12804TIP3   OH259902   1.228   3.923  11.901 -0.1329 -0.4784 -0.6951
12804TIP3    H159903   1.306   3.868  11.904 -0.4562 -0.9788 -1.3704
12804TIP3    H259904   1.154   3.862  11.900 -0.5079 -0.0280 -0.9944
12805TIP3   OH259905   2.511   2.165  16.477 -0.3547 -0.4735 -0.0617
12805TIP3    H159906   2.467   2.129  16.401 -0.2098  0.0421 -0.3952
12805TIP3    H259907   2.488   2.106  16.549 -0.6670 -0.8378 -0.4581
12806TIP3   OH259908   5.574   5.734   0.512  0.1292 -0.5498  0.2252
12806TIP3    H159909   5.633   5.669   0.550  1.8900  0.6329 -0.3812
12806TIP3    H259910   5.562   5.799   0.581 -0.0969 -0.5412  0.1801
12807TIP3   OH259911   1.976   1.180   1.647  0.5240 -0.2251  0.1168
12807TIP3    H159912   1.938   1.102   1.687 -0.7077  0.1268 -0.3117
12807TIP3    H259913   1.919   1.252   1.676  0.4145  0.2215 -1.1516
12808TIP3   OH259914   3.775   2.508   4.812 -0.6250  0.5260 -0.1170
12808TIP3    H159915   3.844   2.452   4.777 -1.1447 -0.2668  0.1075
12808TIP3    H259916   3.798   2.596   4.782  0.8462  0.3844  0.5125
12809TIP3   OH259917   3.079   3.557  12.999 -0.2226  0.0789  0.4846
12809TIP3    H159918   3.001   3.548  12.944  2.1534  3.0880 -3.9423
12809TIP3    H259919   3.116   3.469  13.001 -2.6702 -1.0395  1.1938
12810TIP3   OH259920   6.420   1.434  15.713 -0.5673  0.3193 -0.1612
12810TIP3    H159921   6.463   1.480  15.641 -0.1532 -1.1155 -0.8718
12810TIP3    H259922   6.342   1.396  15.674 -0.9372  0.4702  0.4245
12811TIP3   OH259923   5.588   2.469   2.206 -0.3108  0.7886  0.1533
12811TIP3    H159924   5.591   2.373   2.199 -2.8016  0.5333  1.5365
12811TIP3    H259925   5.545   2.498   2.126  1.3956  0.9188 -0.7751
12812TIP3   OH259926   3.029   3.121  11.037 -0.2140 -0.5810 -0.6250
12812TIP3    H159927   3.104   3.151  10.985 -1.8914  2.8645 -1.3109
12812TIP3    H259928   2.970   3.081  10.973 -0.2437 -0.6510 -0.5551
12813TIP3   OH259929   3.621   0.142  13.631  0.3233  0.5881  0.4921
12813TIP3    H159930   3.539   0.123  13.676 -0.4642 -1.3334 -1.5894
12813TIP3    H259931   3.689   0.113  13.692 -0.6891 -1.6470  0.6578
12814TIP3   OH259932   1.927   4.034  11.224  0.2596  0.1214  0.1012
12814TIP3    H159933   1.905   3.994  11.141 -0.1640 -0.1755  0.3532
12814TIP3    H259934   1.880   4.118  11.223 -0.1127 -0.0817  0.2282
12815TIP3   OH259935   6.390   5.434  11.851 -0.0587  0.1498 -0.1508
12815TIP3    H159936   6.442   5.440  11.931 -0.4105 -0.1139  0.0998
12815TIP3    H259937   6.309   5.480  11.872 -0.2640 -0.1597 -0.2613
12816TIP3   OH259938   1.103   0.643   3.552 -0.7898  1.0496  0.0403
12816TIP3    H159939   1.144   0.711   3.498 -0.6125  0.6015 -0.4014
12816TIP3    H259940   1.014   0.673   3.566 -1.4882  0.2398 -2.2141
12817TIP3   OH259941   0.645   1.402  10.189 -0.0498  0.0702 -0.0979
12817TIP3    H159942   0.646   1.461  10.264 -0.1049  1.3823 -1.0881
12817TIP3    H259943   0.677   1.319  10.223  0.7197  0.8658  1.1894
12818TIP3   OH259944   0.317   1.042  13.651  0.2668  0.0591 -0.6421
12818TIP3    H159945   0.234   1.084  13.629 -0.6537 -0.8408  0.9713
12818TIP3    H259946   0.345   1.000  13.569 -1.0823 -0.0103 -1.0833
12819TIP3   OH259947   5.004   1.103  11.347  0.1987  0.3499  0.1672
12819TIP3    H159948   4.959   1.170  11.399 -0.0558  0.4116 -0.1293
12819TIP3    H259949   4.943   1.084  11.276  0.7090  0.5395 -0.3247
12820TIP3   OH259950   5.909   2.031  12.425 -0.0993  0.7308  0.3654
12820TIP3    H159951   5.832   2.021  12.370 -0.1152 -1.1154  0.6457
12820TIP3    H259952   5.938   2.121  12.411 -0.3969  0.4776 -2.2379
12821TIP3   OH259953   6.250   6.108  16.158 -0.1798 -0.0312  0.1353
12821TIP3    H159954   6.190   6.179  16.137  0.1158  0.0359 -0.5126
12821TIP3    H259955   6.288   6.083  16.074  1.4437  0.5945  0.6238
12822TIP3   OH259956   6.171   1.892  16.154  0.3683 -0.2667 -0.4674
12822TIP3    H159957   6.210   1.808  16.176 -1.0132 -0.7781  0.1637
12822TIP3    H259958   6.229   1.930  16.088  2.9536 -0.1057  1.7669
12823TIP3   OH259959   4.513   1.996  11.186 -1.0491  0.0607  0.5328
12823TIP3    H159960   4.429   1.967  11.223 -1.6068 -1.0169 -1.4343
12823TIP3    H259961   4.497   2.002  11.092  1.2783 -0.8745  0.0084
12824TIP3   OH259962   5.800   1.768   1.219 -0.8393  0.5140  0.0542
12824TIP3    H159963   5.872   1.760   1.156  0.5894  2.2466  1.3682
12824TIP3    H259964   5.830   1.719   1.295  0.0351  2.9922  1.4277
12825TIP3   OH259965   4.762   1.492  16.354  0.0233 -0.1354  0.1104
12825TIP3    H159966   4.757   1.399  16.375  2.0808 -0.1380  0.8123
12825TIP3    H259967   4.738   1.497  16.262 -1.1721 -1.2072  0.3398
12826TIP3   OH259968   2.797   6.640  15.253 -0.3789 -0.6913 -0.6338
12826TIP3    H159969   2.723   6.633  15.313  1.3245 -1.2806  1.5110
12826TIP3    H259970   2.837   6.553  15.253  1.2597  0.0269 -0.4475
12827TIP3   OH259971   2.757   6.211   0.441 -0.2397 -0.0364  0.2931
12827TIP3    H159972   2.793   6.271   0.507  1.3905  0.7384 -1.2263
12827TIP3    H259973   2.821   6.212   0.370 -3.1206  1.2150 -2.5198
12828TIP3   OH259974   0.633   4.004   2.591  0.1795  0.0142 -0.2385
12828TIP3    H159975   0.595   4.087   2.562  0.2216  0.6254  1.3734
12828TIP3    H259976   0.666   4.022   2.679  2.2944 -1.0643 -0.7237
12829TIP3   OH259977   5.833   4.890   6.327  0.0491 -0.1727  0.1736
12829TIP3    H159978   5.865   4.962   6.381 -1.3557  1.8788 -1.5628
12829TIP3    H259979   5.744   4.916   6.302 -0.2415 -2.1655 -1.1530
12830TIP3   OH259980   0.955   1.139   1.967 -0.1502  0.2780 -0.1711
12830TIP3    H159981   1.023   1.175   1.910 -0.1809 -0.5226 -0.7261
12830TIP3    H259982   1.003   1.083   2.029 -0.2938 -0.1964 -0.4905
12831TIP3   OH259983   4.754   4.452   0.466  0.1949  0.2908  0.0378
12831TIP3    H159984   4.817   4.448   0.539  1.4923 -2.1500 -1.0646
12831TIP3    H259985   4.668   4.444   0.508  0.7079  1.7684  1.4568
12832TIP3   OH259986   5.904   0.257   4.138 -0.3730 -0.2428  0.1049
12832TIP3    H159987   5.920   0.298   4.223 -0.1048  0.3954 -0.2406
12832TIP3    H259988   5.987   0.267   4.091 -1.5706  2.9781 -1.6730
12833TIP3   OH259989   1.291   0.165  16.367  0.1035  0.0089 -0.1367
12833TIP3    H159990   1.220   0.112  16.332  1.6274 -2.2948  0.0400
12833TIP3    H259991   1.264   0.185  16.457 -1.0232  0.5744 -0.5871
12834TIP3   OH259992   4.814   1.656   5.135  0.7489  0.5458  0.4412
12834TIP3    H159993   4.866   1.585   5.097 -1.8547 -0.3242 -1.8641
12834TIP3    H259994   4.834   1.732   5.080  1.2887  0.8636  1.0510
12835TIP3   OH259995   4.076   2.141   5.532 -0.0720  0.0181 -0.9623
12835TIP3    H159996   4.083   2.184   5.447 -0.1326 -0.2411 -1.0999
12835TIP3    H259997   3.982   2.142   5.551  0.0145  0.8565 -0.4873
12836TIP3   OH259998   3.759   6.174   6.009 -0.1396 -0.1244  0.2541
12836TIP3    H159999   3.677   6.131   5.985 -0.0457  0.8517 -2.0378
12836TIP3    H260000   3.827   6.119   5.971  0.2370 -0.3265  1.1861
12837TIP3   OH260001   3.656   2.172   2.252  0.3288  0.1629 -0.3243
12837TIP3    H160002   3.722   2.106   2.273  0.2988  0.0316 -0.6408
12837TIP3    H260003   3.681   2.248   2.304  1.0270  0.2875 -0.8427
12838TIP3   OH260004   2.336   6.775  15.862  0.4123  0.1744  0.2997
12838TIP3    H160005   2.356   6.742  15.949 -1.9350 -0.8749  0.5182
12838TIP3    H260006   2.319   6.697  15.809 -2.0449  0.8246 -0.0314
12839TIP3   OH260007   5.325   5.200   2.761 -0.0637 -0.3109 -0.1727
12839TIP3    H160008   5.375   5.225   2.838  1.3410 -2.6878 -0.1937
12839TIP3    H260009   5.258   5.141   2.794 -0.8732  0.3838 -0.5372
12840TIP3   OH260010   5.664   1.708   2.392  0.4616 -0.1815  0.0375
12840TIP3    H160011   5.625   1.771   2.332 -0.9221 -0.1382  0.9373
12840TIP3    H260012   5.755   1.736   2.400  0.4622  0.3204 -1.3395
12841TIP3   OH260013   2.140   6.100  14.957 -0.1011 -0.6866 -0.4080
12841TIP3    H160014   2.107   6.172  14.903 -1.8092 -0.6477  0.6205
12841TIP3    H260015   2.180   6.040  14.894  0.7540  0.8086 -1.3560
12842TIP3   OH260016   3.993   6.198  13.357 -0.4839 -0.1641 -0.2463
12842TIP3    H160017   3.989   6.276  13.301 -1.6224  0.0928  0.1744
12842TIP3    H260018   3.904   6.187  13.389  0.0978 -0.4191  1.3790
12843TIP3   OH260019   1.564   5.861   0.834  0.0248 -0.0716  0.4524
12843TIP3    H160020   1.553   5.884   0.926  0.8158  0.7976  0.3391
12843TIP3    H260021   1.594   5.770   0.836 -1.6435 -0.6563  0.9580
12844TIP3   OH260022   2.391   0.717  15.737 -0.0669  0.1001  0.0358
12844TIP3    H160023   2.409   0.629  15.771 -2.0699 -0.5232 -0.4204
12844TIP3    H260024   2.351   0.702  15.651 -0.0485  1.4752 -0.2250
12845TIP3   OH260025   0.917   0.644  15.862  0.3005  0.0795  0.3317
12845TIP3    H160026   0.840   0.588  15.851 -0.7603  1.4418  0.5473
12845TIP3    H260027   0.891   0.708  15.928  2.5508 -0.9816  2.3614
12846TIP3   OH260028   1.105   2.205  12.477  0.3623  0.0373  0.2162
12846TIP3    H160029   1.078   2.113  12.477  0.8445 -0.1345 -1.4772
12846TIP3    H260030   1.024   2.254  12.464  0.3815 -0.3207 -1.5863
12847TIP3   OH260031   4.180   0.508   3.626 -0.2176  0.2113  0.5979
12847TIP3    H160032   4.275   0.518   3.638  0.0922 -0.5121 -1.0628
12847TIP3    H260033   4.156   0.575   3.563 -0.6265 -0.2746  0.2279
12848TIP3   OH260034   3.554   3.126   3.962 -0.1377 -0.1481  0.0516
12848TIP3    H160035   3.606   3.200   3.994 -0.0347 -0.7363  1.3114
12848TIP3    H260036   3.501   3.100   4.038 -2.8484  0.8811 -1.3636
12849TIP3   OH260037   2.162   2.492  11.336 -0.1773  0.1495 -0.0664
12849TIP3    H160038   2.093   2.476  11.400 -0.9591  0.3734 -0.8319
12849TIP3    H260039   2.210   2.567  11.372 -0.2132 -0.1127  0.5542
12850TIP3   OH260040   4.129   1.403  14.438 -0.2634  0.2842 -0.2546
12850TIP3    H160041   4.066   1.475  14.426 -0.6115 -0.1464 -1.0374
12850TIP3    H260042   4.112   1.372  14.527  1.1927  2.4068  0.8478
12851TIP3   OH260043   4.937   1.082   3.046 -0.0796 -0.0090 -0.2707
12851TIP3    H160044   5.007   1.080   3.112 -0.7350 -0.9041  0.4221
12851TIP3    H260045   4.857   1.064   3.095 -0.7132  0.2810 -1.1691
12852TIP3   OH260046   6.782   3.142   1.570  0.1778  0.1900 -0.0039
12852TIP3    H160047   6.747   3.086   1.639 -0.6518  0.4208 -0.2296
12852TIP3    H260048   6.734   3.224   1.579 -0.3781  0.0228 -1.2356
12853TIP3   OH260049   1.442   5.226   2.343 -0.3730 -0.8816 -0.1755
12853TIP3    H160050   1.457   5.136   2.373 -2.4177 -2.4838 -3.3812
12853TIP3    H260051   1.518   5.275   2.373  1.3018 -3.8908  0.8773
12854TIP3   OH260052   1.397   0.891  12.578 -0.2913  0.0125  0.1897
12854TIP3    H160053   1.354   0.963  12.625 -1.6255  0.5428 -1.7561
12854TIP3    H260054   1.326   0.838  12.544  0.5767  0.1361 -1.9506
12855TIP3   OH260055   4.266   0.113  13.989 -0.5092  0.3920  0.0132
12855TIP3    H160056   4.313   0.148  14.064  0.2717  1.0350 -0.7606
12855TIP3    H260057   4.296   0.022  13.983  0.3175  0.6719 -0.2111
12856TIP3   OH260058   4.599   2.367  17.244 -0.4983  0.0342  0.1628
12856TIP3    H160059   4.614   2.288  17.296  0.0369  0.7678  1.1392
12856TIP3    H260060   4.682   2.383  17.200 -1.0178 -0.7245 -1.1631
12857TIP3   OH260061   4.520   1.614   3.546 -0.3084 -0.5187 -0.0055
12857TIP3    H160062   4.480   1.689   3.501 -0.3548 -0.7346 -0.3332
12857TIP3    H260063   4.500   1.628   3.638 -1.4206 -0.7779 -0.1907
12858TIP3   OH260064   4.792   5.776  12.089  0.2449  0.7185  0.6399
12858TIP3    H160065   4.881   5.802  12.066  0.2776  1.5769  1.6936
12858TIP3    H260066   4.797   5.747  12.180 -0.0485 -1.8698 -0.0631
12859TIP3   OH260067   4.870   2.595  13.315  0.1084 -0.3958 -0.3082
12859TIP3    H160068   4.801   2.608  13.250  1.2130  0.8642 -1.3006
12859TIP3    H260069   4.860   2.667  13.376 -0.0668 -0.7845  0.1241
12860TIP3   OH260070   6.613   1.405  11.031  0.0798  0.3119  0.0723
12860TIP3    H160071   6.601   1.351  10.953 -1.1612  0.3146  0.2558
12860TIP3    H260072   6.707   1.400  11.049  0.2116 -0.5442 -0.7986
12861TIP3   OH260073   4.189   2.020  15.575 -0.6063  0.5683 -0.2009
12861TIP3    H160074   4.141   1.937  15.576  0.5907 -0.1491  1.2758
12861TIP3    H260075   4.124   2.086  15.602 -0.9763 -0.2626  1.0107
12862TIP3   OH260076   3.357   4.021  11.492 -0.8308 -0.0443  0.3484
12862TIP3    H160077   3.388   4.050  11.406 -0.3199  0.8874  0.8439
12862TIP3    H260078   3.342   3.927  11.480 -0.9211  0.0946 -0.8025
12863TIP3   OH260079   3.377   1.800   3.007 -0.1899 -0.0727 -0.1307
12863TIP3    H160080   3.428   1.724   3.034  1.4630  0.7818 -0.6805
12863TIP3    H260081   3.368   1.791   2.912 -0.3556  0.1942 -0.1427
12864TIP3   OH260082   5.567   1.664  13.966  0.1988  0.2798 -0.4396
12864TIP3    H160083   5.492   1.612  13.996 -0.9613  1.2858 -1.4407
12864TIP3    H260084   5.600   1.617  13.890 -2.2631  1.9625 -2.7711
12865TIP3   OH260085   2.302   0.263   4.338 -0.2381  0.1577 -0.0560
12865TIP3    H160086   2.335   0.201   4.274 -2.5145 -0.3221 -0.8731
12865TIP3    H260087   2.237   0.315   4.290 -0.2395  1.4281  1.2556
12866TIP3   OH260088   0.794   5.881   2.635  0.0021  0.3371  0.2147
12866TIP3    H160089   0.867   5.897   2.695  0.0794  1.9392 -0.2594
12866TIP3    H260090   0.759   5.796   2.662  1.3550  0.0410  1.1491
12867TIP3   OH260091   6.018   1.628  12.256  0.0613  0.3504  0.5104
12867TIP3    H160092   6.026   1.533  12.254 -0.4358  0.2479  2.0372
12867TIP3    H260093   5.924   1.644  12.245  0.0335  0.6144  1.1116
12868TIP3   OH260094   1.458   5.198   2.072 -0.1943 -0.6384  0.1571
12868TIP3    H160095   1.543   5.241   2.063 -0.6504  0.1380 -0.6113
12868TIP3    H260096   1.438   5.203   2.165 -0.4280  1.2420  0.0514
12869TIP3   OH260097   4.890   3.865   5.042  0.1729 -0.5108 -0.2092
12869TIP3    H160098   4.862   3.775   5.058 -0.7740 -0.1404  0.2759
12869TIP3    H260099   4.870   3.880   4.950 -0.5618 -0.4891 -0.0511
12870TIP3   OH260100   2.846   1.169   2.774  0.1865 -0.4362 -0.1423
12870TIP3    H160101   2.938   1.153   2.752  0.0607  1.0459 -1.9821
12870TIP3    H260102   2.847   1.254   2.819 -0.2867 -0.4066 -0.1872
12871TIP3   OH260103   0.666   1.327  12.265 -0.4085 -0.3540 -0.2767
12871TIP3    H160104   0.755   1.298  12.244 -0.5606 -0.4014 -0.8716
12871TIP3    H260105   0.659   1.414  12.227 -0.4655 -0.1532  0.1814
12872TIP3   OH260106   3.951   0.665   4.478  0.0731  0.6807 -0.1430
12872TIP3    H160107   3.891   0.739   4.468 -0.8435  0.0873  0.8340
12872TIP3    H260108   3.972   0.664   4.572 -0.7551 -0.9315  0.0469
12873TIP3   OH260109   3.981   4.309   1.448 -0.0890 -0.3436 -0.0530
12873TIP3    H160110   4.048   4.272   1.390 -1.5984 -1.2189 -1.3031
12873TIP3    H260111   3.976   4.402   1.423 -0.3682 -0.6042 -0.9996
12874TIP3   OH260112   4.170   3.192  11.458  0.8849  0.1034  0.1122
12874TIP3    H160113   4.262   3.202  11.482  0.8567  2.4461 -0.5532
12874TIP3    H260114   4.122   3.229  11.532  0.4911 -0.3080  0.0700
12875TIP3   OH260115   3.566   4.954  11.706 -0.1787 -0.3177  0.2919
12875TIP3    H160116   3.590   4.954  11.799  0.1222  1.7650  0.2620
12875TIP3    H260117   3.476   4.986  11.705  0.4535  1.5640 -0.2109
12876TIP3   OH260118   6.444   6.791  12.258 -0.2571 -0.1273 -0.2469
12876TIP3    H160119   6.488   6.800  12.342 -0.5063 -0.8574 -0.0347
12876TIP3    H260120   6.508   6.823  12.194 -0.7999  2.3790  0.3587
12877TIP3   OH260121   1.310   0.766  16.185  0.5908 -0.4214  0.7232
12877TIP3    H160122   1.309   0.843  16.128  1.3520 -0.8888  0.0625
12877TIP3    H260123   1.335   0.800  16.271  3.4364 -0.2442 -0.0900
12878TIP3   OH260124   0.070   2.091  10.660  0.1709  0.1861  0.4444
12878TIP3    H160125   0.155   2.135  10.648 -0.5408  1.6201  0.4882
12878TIP3    H260126   0.066   2.074  10.754  1.0065 -1.2067  0.2668
12879TIP3   OH260127   6.083   4.835   2.766 -0.5348  0.1953 -0.7162
12879TIP3    H160128   6.092   4.815   2.673  1.3480  1.1275 -0.7735
12879TIP3    H260129   6.147   4.779   2.809  0.5394  1.6871 -0.2846
12880TIP3   OH260130   5.674   4.211  12.161  0.3186 -0.3771 -0.4540
12880TIP3    H160131   5.726   4.259  12.226  0.3614  0.9164 -1.4002
12880TIP3    H260132   5.665   4.123  12.198  1.9370 -0.2249  0.4177
12881TIP3   OH260133   6.459   6.408   2.821  0.4952  0.8280 -0.5128
12881TIP3    H160134   6.405   6.343   2.867  1.2582 -0.4328 -1.3481
12881TIP3    H260135   6.466   6.481   2.883 -2.5477  1.2894 -0.5211
12882TIP3   OH260136   6.634   5.030   4.803  0.5537  0.2248  0.0918
12882TIP3    H160137   6.685   5.097   4.758  0.9051  0.0702  0.2576
12882TIP3    H260138   6.695   4.990   4.865  0.1964  0.1308  0.3878
12883TIP3   OH260139   3.597   0.005  14.978 -0.3553 -0.1856 -0.3436
12883TIP3    H160140   3.540   0.031  15.050  0.6868  1.7305 -0.1333
12883TIP3    H260141   3.682  -0.012  15.019 -0.0383 -0.1985 -0.9844
12884TIP3   OH260142   2.536   4.804  13.563 -0.4962  0.3613 -0.0996
12884TIP3    H160143   2.566   4.802  13.654 -1.6219  0.7430  0.2898
12884TIP3    H260144   2.512   4.895  13.548 -3.0278 -0.1793  0.1629
12885TIP3   OH260145   2.507   6.235  11.444 -0.7516 -0.0897 -0.2033
12885TIP3    H160146   2.568   6.161  11.442 -1.2795 -0.5187 -0.5613
12885TIP3    H260147   2.514   6.270  11.533 -0.0022 -0.1465 -0.2348
12886TIP3   OH260148   5.817   6.795   3.926 -0.3149  0.3624  0.0884
12886TIP3    H160149   5.913   6.788   3.920 -0.3425 -0.1324  0.2059
12886TIP3    H260150   5.791   6.720   3.979 -1.0639 -1.4686 -2.6515
12887TIP3   OH260151   4.384   1.524  11.183 -0.3518  0.4120 -0.7267
12887TIP3    H160152   4.354   1.437  11.212 -0.9866  0.5285 -1.0188
12887TIP3    H260153   4.466   1.507  11.137  0.2827  0.1336  0.4569
12888TIP3   OH260154   0.400   6.339   2.463 -0.9827  0.4375 -0.5959
12888TIP3    H160155   0.450   6.261   2.441  0.2497  0.6330  1.2285
12888TIP3    H260156   0.322   6.306   2.507 -0.8635  0.1962 -0.5615
12889TIP3   OH260157   4.901   2.160   5.531 -0.4578  0.1208  0.4649
12889TIP3    H160158   4.809   2.143   5.551 -0.4858  1.3842  1.5069
12889TIP3    H260159   4.945   2.076   5.546 -1.3029 -0.2813  0.7356
12890TIP3   OH260160   4.812   4.873  15.485 -0.3189 -0.2851  0.1942
12890TIP3    H160161   4.780   4.797  15.436 -0.0295 -0.9017  0.9443
12890TIP3    H260162   4.744   4.939  15.474 -0.0444 -0.2449 -1.4149
12891TIP3   OH260163   6.149   0.653   1.546 -0.1531  0.6680 -0.6675
12891TIP3    H160164   6.212   0.725   1.544 -0.1432  0.7174  0.5261
12891TIP3    H260165   6.173   0.603   1.624 -0.8156 -0.0254 -0.9037
12892TIP3   OH260166   0.000   2.553   4.798  0.4986 -0.0018 -0.3931
12892TIP3    H160167  -0.011   2.646   4.779 -0.2911 -0.1054 -0.4419
12892TIP3    H260168  -0.084   2.525   4.833  0.7818 -0.6659 -0.2240
12893TIP3   OH260169   2.058   2.271   5.942 -0.4425  0.0461 -0.3874
12893TIP3    H160170   2.070   2.293   6.034  1.2762 -0.8450 -0.3638
12893TIP3    H260171   2.024   2.181   5.943 -0.6240  0.1126 -0.6120
12894TIP3   OH260172   5.265   5.513   4.709  0.4888  0.8566  0.0583
12894TIP3    H160173   5.329   5.482   4.645 -0.4238  0.3018 -0.6029
12894TIP3    H260174   5.199   5.558   4.657 -0.0285  0.8065  0.6611
12895TIP3   OH260175   1.771   0.963   3.652 -0.2356  0.2656 -0.3728
12895TIP3    H160176   1.755   0.992   3.742 -0.1953  0.4681 -0.4289
12895TIP3    H260177   1.857   0.998   3.630  0.0501 -0.3608 -0.2600
12896TIP3   OH260178   4.786   4.038   5.233  0.4563 -0.6624  0.1780
12896TIP3    H160179   4.813   3.980   5.161 -0.0656  0.0822 -0.6434
12896TIP3    H260180   4.867   4.061   5.277  0.8812 -0.5161 -0.6586
12897TIP3   OH260181   1.773   0.527  12.486  0.0708 -0.2663 -0.2984
12897TIP3    H160182   1.817   0.457  12.535  0.9004  1.3865  1.4775
12897TIP3    H260183   1.777   0.498  12.395  1.8371 -1.7815  0.1802
12898TIP3   OH260184   4.316   4.601  10.523 -0.0155 -0.0071  0.3415
12898TIP3    H160185   4.297   4.694  10.515 -1.0446 -0.2084  0.2928
12898TIP3    H260186   4.232   4.561  10.547  0.1780 -1.0403 -0.5988
12899TIP3   OH260187   2.805   5.593  13.702  0.0863  0.1481 -0.6352
12899TIP3    H160188   2.739   5.634  13.645  1.3014  3.2214 -0.0007
12899TIP3    H260189   2.887   5.637  13.679  1.3069 -1.1900  0.9492
12900TIP3   OH260190   6.654   6.339   1.724  0.1065 -0.4910 -0.2283
12900TIP3    H160191   6.580   6.279   1.723 -1.5671  1.3179 -4.2840
12900TIP3    H260192   6.680   6.347   1.633  2.2127  2.6341  0.4825
12901TIP3   OH260193   0.413   3.442  13.947 -0.6275  0.4749 -0.3114
12901TIP3    H160194   0.444   3.374  13.886  1.1472  2.2612 -1.5274
12901TIP3    H260195   0.377   3.392  14.021 -0.5775 -1.7760 -1.6887
12902TIP3   OH260196   5.787   4.438   1.724  0.0956  0.0273 -0.1896
12902TIP3    H160197   5.883   4.435   1.716 -0.0076  0.7314 -2.2138
12902TIP3    H260198   5.768   4.387   1.803  2.1246 -0.2375  0.1835
12903TIP3   OH260199   0.430   1.608   6.097 -0.3698  0.2378 -0.2775
12903TIP3    H160200   0.520   1.592   6.127 -0.8400 -0.6844  0.7431
12903TIP3    H260201   0.429   1.700   6.074  0.8432  0.2738 -0.2959
12904TIP3   OH260202   1.554   2.340   1.054 -0.4675  0.6965  0.4954
12904TIP3    H160203   1.572   2.429   1.083 -0.7065  0.6257  0.8813
12904TIP3    H260204   1.542   2.291   1.135  3.8520 -0.6514  0.5566
12905TIP3   OH260205   2.235   6.033  12.104  0.3823  0.1476 -0.4661
12905TIP3    H160206   2.155   5.984  12.123  1.1990 -1.1574 -0.3178
12905TIP3    H260207   2.213   6.124  12.125 -0.5367 -0.4260  1.2144
12906TIP3   OH260208   0.259   3.597  11.126 -0.5897  0.1211 -0.3121
12906TIP3    H160209   0.195   3.590  11.196 -0.3438 -2.4651 -0.2646
12906TIP3    H260210   0.343   3.583  11.169 -0.0521  2.1658 -0.5908
12907TIP3   OH260211   3.590   0.936   3.000 -0.1205 -0.5943  0.2790
12907TIP3    H160212   3.575   0.917   2.908  0.7300 -1.6611  0.3444
12907TIP3    H260213   3.571   1.030   3.009  0.6344 -0.2863 -1.1514
12908TIP3   OH260214   3.025   5.119  10.698  0.0870  0.3285 -0.4084
12908TIP3    H160215   2.960   5.077  10.641  0.3173  0.9435 -1.1339
12908TIP3    H260216   2.979   5.194  10.737 -0.0444 -0.0395  0.1630
12909TIP3   OH260217   4.749   1.547  17.201 -0.1369  0.4732 -0.0876
12909TIP3    H160218   4.716   1.595  17.125  1.0861  0.8680 -0.3852
12909TIP3    H260219   4.731   1.455  17.180  0.0714  0.5888 -0.8080
12910TIP3   OH260220   0.450   1.263   6.426 -0.0120  0.2287  0.3623
12910TIP3    H160221   0.360   1.291   6.412  0.5246  1.5117 -0.6993
12910TIP3    H260222   0.494   1.341   6.461  0.2623 -0.9528  2.9124
12911TIP3   OH260223   3.425   0.569  12.786 -0.5377  0.5029 -0.0587
12911TIP3    H160224   3.476   0.650  12.786  0.8114 -0.2906  1.1124
12911TIP3    H260225   3.372   0.573  12.865  0.4629 -0.2730  0.6776
12912TIP3   OH260226   5.076   2.128  15.275 -0.5714 -0.2652 -0.3567
12912TIP3    H160227   5.118   2.143  15.360 -2.8563 -0.3700  0.8769
12912TIP3    H260228   5.143   2.149  15.211  0.8164  1.1434  1.4569
12913TIP3   OH260229   6.256   3.901   1.043 -0.2576 -0.1554 -0.1624
12913TIP3    H160230   6.252   3.883   0.949 -3.1477 -0.4421 -0.0851
12913TIP3    H260231   6.291   3.990   1.048  0.8351 -0.4760 -1.4298
12914TIP3   OH260232   5.233   1.093   0.443 -0.6425  0.3681 -0.3288
12914TIP3    H160233   5.319   1.098   0.483 -0.9493  0.3276  0.3584
12914TIP3    H260234   5.208   1.184   0.426  0.2213  0.3227 -2.0877
12915TIP3   OH260235   3.837   2.306   5.565  0.0496  0.1449 -0.6670
12915TIP3    H160236   3.852   2.389   5.520 -0.4299 -0.1642 -1.4265
12915TIP3    H260237   3.789   2.253   5.501 -0.2701 -0.4648  0.0661
12916TIP3   OH260238   5.600   1.400  11.784  0.1656 -0.3530 -0.5429
12916TIP3    H160239   5.514   1.402  11.741  0.2306 -0.4263 -0.6741
12916TIP3    H260240   5.580   1.417  11.877  0.1086  0.6653 -0.7242
12917TIP3   OH260241   4.819   2.486  11.430  0.7494 -0.4520  0.7880
12917TIP3    H160242   4.724   2.477  11.418  0.6647  1.1338  0.0607
12917TIP3    H260243   4.857   2.430  11.362  0.2729  1.4417 -1.1666
12918TIP3   OH260244   5.188   2.340  12.186  0.1958  0.6449  0.4376
12918TIP3    H160245   5.158   2.425  12.218  2.1868  2.1334 -1.2546
12918TIP3    H260246   5.280   2.335  12.214  0.3819 -0.5133 -0.2895
12919TIP3   OH260247   0.009   4.425  14.868  0.0808 -0.7877 -0.0853
12919TIP3    H160248   0.092   4.389  14.838 -0.1274  0.1713 -1.9284
12919TIP3    H260249  -0.057   4.382  14.814 -0.4210  0.1246 -0.2233
12920TIP3   OH260250   0.032   0.943  14.128 -0.4408 -0.2731 -0.2227
12920TIP3    H160251   0.107   0.883  14.131 -0.9516 -0.9127  1.9678
12920TIP3    H260252   0.072   1.031  14.133  0.1930 -0.6217  1.5637
12921TIP3   OH260253   0.698   5.688   0.549 -0.4970  0.0409  0.2749
12921TIP3    H160254   0.742   5.688   0.463 -0.1401  1.3971  0.4297
12921TIP3    H260255   0.608   5.663   0.529 -0.1685 -0.7018 -0.3464
12922TIP3   OH260256   0.157   4.179   4.713 -0.4295  0.3006  0.3586
12922TIP3    H160257   0.243   4.207   4.681 -0.2514 -1.2146 -0.5694
12922TIP3    H260258   0.150   4.087   4.687 -2.5472  0.5219 -0.0604
12923TIP3   OH260259   3.327   3.367   3.802 -0.1360  0.6666 -0.2084
12923TIP3    H160260   3.308   3.369   3.708  0.6951  1.0756 -0.3702
12923TIP3    H260261   3.354   3.456   3.824  0.9194  0.2791  0.1531
12924TIP3   OH260262   6.070   6.782  13.878  0.2636 -0.9459 -0.8054
12924TIP3    H160263   6.101   6.691  13.878  0.2769 -0.9742  0.9766
12924TIP3    H260264   6.075   6.809  13.969  0.0751  0.8073 -1.2796
12925TIP3   OH260265   3.500   3.060  12.115  0.2118  0.1992 -0.4607
12925TIP3    H160266   3.423   3.024  12.159 -0.7239  1.6896 -0.8181
12925TIP3    H260267   3.465   3.109  12.041  1.4770  1.1499 -0.4738
12926TIP3   OH260268   4.975   0.392  16.368  0.3683 -0.2844 -0.1159
12926TIP3    H160269   5.047   0.336  16.397  0.6538  0.1796  0.0619
12926TIP3    H260270   5.014   0.477  16.352  0.0309 -0.2643 -0.9132
12927TIP3   OH260271   3.278   5.383  13.471 -0.0544 -0.2230 -0.1053
12927TIP3    H160272   3.221   5.308  13.487 -0.1880 -0.4260 -1.4670
12927TIP3    H260273   3.218   5.457  13.461  0.0315 -0.0956  0.2719
12928TIP3   OH260274   5.912   5.050   3.594 -0.5739  0.1418 -0.1532
12928TIP3    H160275   5.986   5.001   3.559 -1.3498 -0.1684 -1.4496
12928TIP3    H260276   5.846   5.045   3.525 -1.7214  0.5965  0.8811
12929TIP3   OH260277   4.416   1.030  14.002 -0.4245 -0.0154 -0.1330
12929TIP3    H160278   4.407   1.097  14.070  2.6517 -1.8061  2.3234
12929TIP3    H260279   4.496   1.054  13.955  1.0408 -2.1062  1.1421
12930TIP3   OH260280   2.676   6.269  16.646 -0.5470  0.7656 -0.3268
12930TIP3    H160281   2.726   6.334  16.696 -1.3031  1.0111  0.1171
12930TIP3    H260282   2.668   6.306  16.559 -1.4382  1.5282  0.0639
12931TIP3   OH260283   3.735   4.600   1.190  0.1456 -0.5690  0.0243
12931TIP3    H160284   3.692   4.572   1.271  0.3014  0.3690  0.4493
12931TIP3    H260285   3.779   4.521   1.158  0.6215 -0.8137  1.2030
12932TIP3   OH260286   6.284   1.198  11.977 -0.7097  0.0178  0.4301
12932TIP3    H160287   6.366   1.233  11.942 -0.0097 -1.6026  0.3836
12932TIP3    H260288   6.290   1.213  12.072  1.0221 -2.6875  0.8411
12933TIP3   OH260289   5.758   3.477   5.672 -0.0298  0.0897  0.6462
12933TIP3    H160290   5.807   3.434   5.742 -1.7639 -0.4843  1.5637
12933TIP3    H260291   5.669   3.444   5.682 -0.3661  0.1185 -1.7512
12934TIP3   OH260292   1.153   6.068   4.449 -0.2954  0.4772 -0.2819
12934TIP3    H160293   1.216   6.131   4.484  0.8048 -1.3755  1.2295
12934TIP3    H260294   1.068   6.109   4.466  0.3626  1.3371  1.1569
12935TIP3   OH260295   1.949   1.923   2.676  0.5255  0.3079  0.6220
12935TIP3    H160296   1.960   1.979   2.599 -1.1432  0.8300  0.7150
12935TIP3    H260297   2.038   1.907   2.707  1.0904  3.6897  1.1520
12936TIP3   OH260298   4.516   5.604   3.685 -0.5308  0.2240  0.0436
12936TIP3    H160299   4.526   5.530   3.625  1.1431  1.1248 -0.8488
12936TIP3    H260300   4.426   5.633   3.670 -0.4266 -0.1089 -1.4274
12937TIP3   OH260301   5.751   4.427  13.679  0.3372  0.0942 -0.0256
12937TIP3    H160302   5.760   4.401  13.587  0.5359 -0.0071  0.0222
12937TIP3    H260303   5.824   4.383  13.724 -0.0192 -0.2197  0.2577
12938TIP3   OH260304   4.004   5.638  17.299  0.1048 -0.1919  0.4769
12938TIP3    H160305   4.045   5.637  17.213 -0.5939 -1.2878  0.1373
12938TIP3    H260306   3.987   5.546  17.319 -0.5020  0.1073  1.4076
12939TIP3   OH260307   1.086   5.119  10.745  0.0730  0.0929 -0.5259
12939TIP3    H160308   1.044   5.110  10.660 -2.6350 -0.4278  0.7621
12939TIP3    H260309   1.084   5.213  10.764  2.5826  0.4995 -1.8278
12940TIP3   OH260310   4.362   2.550   0.027 -0.2703 -0.2607  1.2545
12940TIP3    H160311   4.361   2.468  -0.022 -1.1319 -1.7213  3.5834
12940TIP3    H260312   4.433   2.601  -0.013  0.8041 -2.4381  0.2369
12941TIP3   OH260313   1.317   2.656   4.117  0.7559  0.9706  0.0397
12941TIP3    H160314   1.388   2.696   4.067  0.3513  1.3032 -0.2812
12941TIP3    H260315   1.278   2.593   4.056  1.6335 -0.2260  0.6653
12942TIP3   OH260316   3.816   5.700  16.038 -0.1577  0.2089 -0.9172
12942TIP3    H160317   3.852   5.776  15.991 -1.0696  0.7369 -0.7755
12942TIP3    H260318   3.784   5.736  16.120  1.6019 -0.7412  0.2460
12943TIP3   OH260319   2.306   0.349   4.596 -0.4554 -0.4457  0.4595
12943TIP3    H160320   2.314   0.318   4.505  0.8112  1.7009 -0.2246
12943TIP3    H260321   2.213   0.343   4.615 -0.7636 -0.8191 -1.0210
12944TIP3   OH260322   4.795   0.947  16.529 -0.1702 -0.6814 -0.2245
12944TIP3    H160323   4.868   1.002  16.498  0.1599 -0.6749  0.5347
12944TIP3    H260324   4.726   0.961  16.465  0.3959 -0.4560 -0.8007
12945TIP3   OH260325   2.151   5.382  12.234 -0.0775 -0.3004  0.4978
12945TIP3    H160326   2.208   5.403  12.308  0.5597  1.2640 -0.3805
12945TIP3    H260327   2.075   5.341  12.273  1.1601 -1.4340  1.8116
12946TIP3   OH260328   0.828   6.336  15.054 -0.2401 -0.2617 -0.6752
12946TIP3    H160329   0.873   6.299  15.130 -0.6970  0.7523  0.1155
12946TIP3    H260330   0.742   6.293  15.054 -0.1836 -0.3744 -0.7056
12947TIP3   OH260331   4.483   0.935  13.664  0.0778 -0.1350 -0.2597
12947TIP3    H160332   4.393   0.913  13.687  0.1500 -1.6834 -1.3312
12947TIP3    H260333   4.505   1.009  13.721 -1.7212  0.0145  0.2985
12948TIP3   OH260334   0.716   0.368  11.248 -0.7979  0.0593 -0.2556
12948TIP3    H160335   0.622   0.379  11.255 -1.0334 -1.3853 -0.7048
12948TIP3    H260336   0.728   0.274  11.234  0.7760  0.0199  0.9564
12949TIP3   OH260337   0.159   5.058   3.523 -0.0032 -1.1218  0.5981
12949TIP3    H160338   0.152   5.144   3.482  0.6692 -2.4100 -2.5281
12949TIP3    H260339   0.069   5.023   3.520 -0.3944 -0.3645  2.4217
12950TIP3   OH260340   0.010   2.906  13.687  0.3042 -0.1990 -0.0162
12950TIP3    H160341  -0.001   2.916  13.592 -2.5214 -0.3369  0.1963
12950TIP3    H260342  -0.025   2.988  13.723  0.3450 -0.5854  0.9224
12951TIP3   OH260343   6.293   1.532   0.937 -0.1908 -0.7467 -0.3284
12951TIP3    H160344   6.211   1.504   0.899 -0.2339  1.4032 -2.0100
12951TIP3    H260345   6.268   1.574   1.020 -1.0468  1.2231 -1.5089
12952TIP3   OH260346   4.642   5.592   3.907  0.0454 -0.1624 -0.0163
12952TIP3    H160347   4.623   5.501   3.928 -1.2019  0.4329  1.6315
12952TIP3    H260348   4.588   5.610   3.830 -0.2734 -0.6064  0.0984
12953TIP3   OH260349   3.306   3.951   1.716 -0.5090 -0.6005 -0.9216
12953TIP3    H160350   3.369   3.922   1.650  0.2965 -1.2657  0.1287
12953TIP3    H260351   3.271   3.871   1.753 -1.4491 -0.2296 -0.9696
12954TIP3   OH260352   1.985   5.849   1.920  0.1852 -0.1677 -0.0159
12954TIP3    H160353   2.068   5.896   1.917 -0.2321  0.5403 -0.5815
12954TIP3    H260354   1.962   5.835   1.828 -0.4534 -0.1242  0.1363
12955TIP3   OH260355   1.109   3.602  13.366  0.3274  0.0005 -0.1745
12955TIP3    H160356   1.165   3.525  13.379  2.1123  1.2302 -0.1449
12955TIP3    H260357   1.122   3.626  13.275  1.3423  1.3517  0.2808
12956TIP3   OH260358   2.532   3.469  12.722  0.0245  0.3445  0.0707
12956TIP3    H160359   2.527   3.374  12.728  1.0516  0.3031  0.4073
12956TIP3    H260360   2.572   3.486  12.638 -1.2985  0.5344 -0.5476
12957TIP3   OH260361   6.094   4.297  13.141 -0.5119 -0.4356  0.1571
12957TIP3    H160362   6.109   4.250  13.059 -1.5436 -1.7953  0.7156
12957TIP3    H260363   6.180   4.300  13.183 -0.2694 -1.0739 -0.2851
12958TIP3   OH260364   5.940   0.235  11.416 -0.0502  0.2627 -0.5255
12958TIP3    H160365   5.986   0.188  11.486  0.1174  0.5342 -0.4495
12958TIP3    H260366   5.989   0.316  11.406 -0.0109  0.1807 -1.0320
12959TIP3   OH260367   4.922   3.938   6.329  0.0173 -0.0752 -0.2313
12959TIP3    H160368   4.888   3.964   6.415 -0.8365  0.1123 -0.6146
12959TIP3    H260369   4.945   3.846   6.340  1.6527  0.3852  0.7040
12960TIP3   OH260370   5.586   2.879   1.649 -0.2315 -0.1277  0.4626
12960TIP3    H160371   5.595   2.819   1.575  0.8136 -0.2894  0.7084
12960TIP3    H260372   5.632   2.836   1.721 -1.8917 -0.3444  1.4509
12961TIP3   OH260373   0.255   5.639  16.203 -0.1478  0.2354  0.0320
12961TIP3    H160374   0.218   5.666  16.120 -0.0726 -1.2142 -0.4979
12961TIP3    H260375   0.346   5.615  16.182 -0.0494  0.1205  0.5715
12962TIP3   OH260376   5.697   1.045  15.191 -0.7480 -0.0007  0.0202
12962TIP3    H160377   5.649   0.982  15.138 -0.1747 -0.6958  0.3076
12962TIP3    H260378   5.664   1.131  15.163 -1.5245 -0.4249 -0.3814
12963TIP3   OH260379   5.745   2.213   1.878 -0.2196  0.1038  0.1832
12963TIP3    H160380   5.765   2.283   1.815  0.2326  0.3866  0.6392
12963TIP3    H260381   5.652   2.226   1.898  0.3306  1.9537  1.9069
12964TIP3   OH260382   5.166   2.549   5.295 -0.1768 -0.3516 -0.1121
12964TIP3    H160383   5.085   2.501   5.315  0.8994 -1.7058  1.3137
12964TIP3    H260384   5.231   2.509   5.353  1.0589  2.1168  0.2955
12965TIP3   OH260385   5.112   2.435  15.647 -0.0080  0.4209  0.3209
12965TIP3    H160386   5.163   2.490  15.707  0.9203  0.5043 -0.5219
12965TIP3    H260387   5.178   2.381  15.603 -0.2279  2.5292 -2.9499
12966TIP3   OH260388   2.350   6.626   5.208  0.0325  0.5169  0.3368
12966TIP3    H160389   2.412   6.556   5.229  0.8162  1.4875  1.4030
12966TIP3    H260390   2.384   6.664   5.127  0.3186  0.4537  0.4238
12967TIP3   OH260391   4.265   3.186  11.872 -0.4435 -0.1370  0.0322
12967TIP3    H160392   4.349   3.211  11.909 -1.2233  1.2598  0.9328
12967TIP3    H260393   4.254   3.094  11.898  0.4653 -0.1239  0.5098
12968TIP3   OH260394   0.506   5.266   2.513 -0.5063 -0.2470 -0.9833
12968TIP3    H160395   0.469   5.243   2.598 -0.1450 -0.2971 -0.8378
12968TIP3    H260396   0.600   5.252   2.523 -0.5423 -1.0517 -1.6412
12969TIP3   OH260397   1.769   5.378   0.954  0.0653  0.6201 -0.1509
12969TIP3    H160398   1.813   5.334   0.882 -0.1090 -0.5784  0.4373
12969TIP3    H260399   1.678   5.388   0.924 -0.4858 -1.6023  0.5636
12970TIP3   OH260400   5.548   3.311  15.857  0.2400  0.5174  0.0442
12970TIP3    H160401   5.620   3.341  15.913 -0.5840  1.0291  0.8525
12970TIP3    H260402   5.529   3.223  15.888  1.5708 -0.2827 -1.2533
12971TIP3   OH260403   0.294   2.880   0.065 -0.3725  0.2439 -0.1402
12971TIP3    H160404   0.307   2.964   0.020  1.6629 -0.1036 -0.3143
12971TIP3    H260405   0.301   2.815  -0.005  0.1649 -0.1609  0.2809
12972TIP3   OH260406   2.564   0.859   2.084 -0.0521  0.5374  0.5194
12972TIP3    H160407   2.560   0.797   2.157  1.9528  0.4418  0.6146
12972TIP3    H260408   2.654   0.894   2.087 -0.4302  1.7517 -0.9104
12973TIP3   OH260409   0.461   2.583  14.373 -0.1646  0.0902  0.3535
12973TIP3    H160410   0.511   2.516  14.326 -1.8312 -0.1956 -1.1185
12973TIP3    H260411   0.403   2.533  14.432 -1.6064  0.1483 -0.9461
12974TIP3   OH260412   2.831   4.304   3.257 -0.2256  0.0908 -0.0272
12974TIP3    H160413   2.894   4.332   3.191  0.4486 -0.4003  0.3900
12974TIP3    H260414   2.821   4.210   3.241  1.6474 -0.5161  1.9207
12975TIP3   OH260415   1.927   1.106   2.832 -0.2583 -0.1947 -0.2771
12975TIP3    H160416   2.016   1.123   2.802 -0.4269  0.4473 -0.4322
12975TIP3    H260417   1.909   1.017   2.803  0.5083 -0.5170  0.1924
12976TIP3   OH260418   3.828   6.153  11.075  0.1258 -0.0928  0.0202
12976TIP3    H160419   3.783   6.085  11.125  1.0604 -1.0989 -0.4796
12976TIP3    H260420   3.758   6.200  11.029 -0.6091 -0.0980  1.0916
12977TIP3   OH260421   4.859   4.884   4.479 -0.4825 -0.5604 -0.4485
12977TIP3    H160422   4.797   4.836   4.423 -0.8510 -0.3325 -0.2398
12977TIP3    H260423   4.806   4.915   4.553 -0.5322  1.1344 -1.1293
12978TIP3   OH260424   0.251   6.676   0.971 -0.6365  0.1043 -0.8585
12978TIP3    H160425   0.283   6.729   0.898  1.2434  2.0662  1.2134
12978TIP3    H260426   0.319   6.610   0.984 -0.5680  0.2610 -0.4071
12979TIP3   OH260427   5.371   3.627  14.871  0.1574 -0.2117  0.1588
12979TIP3    H160428   5.442   3.562  14.875  2.2764  1.8273 -1.1573
12979TIP3    H260429   5.358   3.654  14.962  1.4775 -0.2803  0.3945
12980TIP3   OH260430   4.041   4.657   4.177  0.8322 -0.5595  0.7569
12980TIP3    H160431   3.954   4.687   4.150  0.5526 -1.3466  0.7547
12980TIP3    H260432   4.092   4.658   4.097  0.9364  0.2417  0.8203
12981TIP3   OH260433   1.656   2.862   1.857  0.1847 -0.2159 -0.3623
12981TIP3    H160434   1.688   2.842   1.945  1.2632 -0.7265 -0.8483
12981TIP3    H260435   1.627   2.953   1.863  1.5943  0.2318  0.1806
12982TIP3   OH260436   4.903   0.750  11.254  0.0150  0.3790  0.0320
12982TIP3    H160437   4.814   0.778  11.276  0.4915  0.6204  1.8432
12982TIP3    H260438   4.909   0.660  11.287 -0.1369 -0.3492 -1.8318
12983TIP3   OH260439   3.974   3.065  14.829  0.0863  0.2895  0.0956
12983TIP3    H160440   4.003   3.154  14.847  1.2742 -0.3024  1.2731
12983TIP3    H260441   3.937   3.034  14.911 -0.6640 -0.1872 -0.4091
12984TIP3   OH260442   4.618   5.863   3.444 -0.0873  0.7141  0.5952
12984TIP3    H160443   4.618   5.902   3.532 -0.0002  0.0403  0.8962
12984TIP3    H260444   4.542   5.805   3.444  0.5733 -0.1607  0.6206
12985TIP3   OH260445   4.771   3.954  10.715 -0.0009 -0.7384 -0.3267
12985TIP3    H160446   4.814   3.946  10.630  1.3066 -2.2816  0.4102
12985TIP3    H260447   4.829   3.906  10.775 -0.2814  1.2607  1.6746
12986TIP3   OH260448   6.320   0.195  12.897  0.1027  0.3308  0.3982
12986TIP3    H160449   6.369   0.213  12.816  0.4222 -1.0024  0.2706
12986TIP3    H260450   6.382   0.147  12.952 -0.3590  0.5790  1.1450
12987TIP3   OH260451   5.379   0.678  16.547 -0.3375 -0.2816 -1.0008
12987TIP3    H160452   5.326   0.665  16.626 -0.1366  1.9662 -0.4360
12987TIP3    H260453   5.314   0.689  16.477 -0.5400 -0.6136 -0.8688
12988TIP3   OH260454   5.274   5.848  11.654 -0.3230  0.0532 -0.2438
12988TIP3    H160455   5.325   5.766  11.649  0.4665  0.5562 -0.5396
12988TIP3    H260456   5.189   5.825  11.617  0.1864 -0.4063 -1.1690
12989TIP3   OH260457   5.551   6.337  16.669  0.2046  0.2661 -0.3454
12989TIP3    H160458   5.498   6.257  16.668  1.1513 -0.4113  1.1697
12989TIP3    H260459   5.516   6.388  16.743  1.0976  0.2045  0.1257
12990TIP3   OH260460   3.092   1.640   5.346  0.3519  0.2975 -0.8328
12990TIP3    H160461   3.125   1.668   5.260  1.1894  1.9622 -0.0033
12990TIP3    H260462   3.106   1.715   5.403 -1.8971 -0.1069  0.3536
12991TIP3   OH260463   1.500   2.544   5.742 -0.1673  0.3061 -0.1052
12991TIP3    H160464   1.551   2.462   5.737  0.3552  0.6674 -0.8788
12991TIP3    H260465   1.409   2.515   5.749 -0.0028 -0.3504 -0.5590
12992TIP3   OH260466   3.656   1.172   2.506  0.0381  0.3702  0.1391
12992TIP3    H160467   3.574   1.199   2.464  0.3379  1.6971  0.3492
12992TIP3    H260468   3.723   1.225   2.464  0.2862  2.1765  2.5866
12993TIP3   OH260469   6.062   1.291   3.096  0.3060 -0.4077  0.3344
12993TIP3    H160470   6.052   1.231   3.171 -0.8527 -2.5506 -1.4145
12993TIP3    H260471   6.068   1.378   3.136  0.1981 -1.4813  2.9312
12994TIP3   OH260472   5.800   1.642  16.720  0.1075 -0.8454 -0.5062
12994TIP3    H160473   5.880   1.685  16.748  0.0082 -1.2655  0.4792
12994TIP3    H260474   5.788   1.669  16.629  0.8215  0.0186 -0.3516
12995TIP3   OH260475   5.909   6.126   0.682 -0.2723  0.8307 -0.1378
12995TIP3    H160476   5.870   6.201   0.638 -0.0652  1.5401  0.8705
12995TIP3    H260477   5.865   6.050   0.642 -2.4687  1.5687  0.7165
12996TIP3   OH260478   2.719   6.728  17.008 -0.2206  0.6199 -0.6649
12996TIP3    H160479   2.665   6.750  16.932 -1.5573 -2.3888 -0.6894
12996TIP3    H260480   2.803   6.702  16.970 -1.1667 -1.7543 -1.2994
12997TIP3   OH260481   4.280   6.531  12.465 -0.2178 -0.0255 -0.0114
12997TIP3    H160482   4.292   6.527  12.560  1.7882  0.2090 -0.2179
12997TIP3    H260483   4.334   6.460  12.431 -2.0697 -1.0478 -0.9257
12998TIP3   OH260484   4.113   1.584   5.920 -0.8732  0.2262 -0.5241
12998TIP3    H160485   4.055   1.516   5.884  1.0789 -0.1518 -3.2455
12998TIP3    H260486   4.059   1.663   5.922 -1.9372 -0.4439 -1.4985
12999TIP3   OH260487   5.896   0.780  16.123 -0.4008 -0.5479 -0.4879
12999TIP3    H160488   5.879   0.688  16.103  0.4995 -0.6150 -1.0158
12999TIP3    H260489   5.974   0.779  16.177 -1.4036 -0.1886  1.0182
13000TIP3   OH260490   2.034   5.035   2.652  0.2086  0.4459 -0.1715
13000TIP3    H160491   2.039   5.017   2.746  1.2541 -0.9977 -0.4639
13000TIP3    H260492   1.955   5.088   2.642  1.1232  2.2968  1.7336
13001TIP3   OH260493   3.091   6.139  16.250 -0.2969 -0.2409  0.2823
13001TIP3    H160494   3.020   6.203  16.258 -0.9118 -1.0558  1.6837
13001TIP3    H260495   3.047   6.058  16.224  0.2782 -0.4751  0.0241
13002TIP3   OH260496   0.854   2.749   4.502 -0.5948  0.8528 -0.3302
13002TIP3    H160497   0.799   2.820   4.469 -1.4013  0.5937  0.3984
13002TIP3    H260498   0.880   2.777   4.590  0.4408  0.9593 -0.6588
13003TIP3   OH260499   4.813   3.920  14.476  0.5725 -0.2510 -0.1416
13003TIP3    H160500   4.781   3.847  14.529  0.6567  0.1798  0.5054
13003TIP3    H260501   4.734   3.961  14.441  0.5207 -0.5802 -0.4219
13004TIP3   OH260502   2.079   0.934   1.180  0.1273 -0.0673  0.1207
13004TIP3    H160503   2.090   1.029   1.180  0.8639 -0.0756  3.0268
13004TIP3    H260504   2.105   0.906   1.268  0.9495 -3.1034 -0.9587
13005TIP3   OH260505   1.511   4.617   2.775 -0.0197  0.3223  0.2335
13005TIP3    H160506   1.445   4.666   2.824  0.9271  1.3084  0.5620
13005TIP3    H260507   1.544   4.552   2.837 -0.6701 -0.1739  0.0681
13006TIP3   OH260508   6.645   5.248   3.813 -0.0167  0.0522  0.5769
13006TIP3    H160509   6.557   5.215   3.832 -0.7386  1.5374 -0.0627
13006TIP3    H260510   6.659   5.317   3.878  1.1452 -0.9042  1.3829
13007TIP3   OH260511   5.402   1.090   5.540  0.0840 -0.1823 -0.0396
13007TIP3    H160512   5.407   1.084   5.635  0.5461  2.2062  0.1461
13007TIP3    H260513   5.332   1.152   5.523  2.1064  1.9960 -1.0733
13008TIP3   OH260514   1.067   1.762  13.360  0.5279 -0.2309  0.3317
13008TIP3    H160515   1.054   1.836  13.300  0.9072  1.7960  2.6144
13008TIP3    H260516   1.040   1.795  13.445  3.3654 -1.8139  1.9770
13009TIP3   OH260517   2.192   2.028  15.674  0.4467 -0.4892  0.3598
13009TIP3    H160518   2.195   2.121  15.651 -2.5266  0.3080  2.6385
13009TIP3    H260519   2.110   1.996  15.638  1.7293 -2.4991 -0.9790
13010TIP3   OH260520   4.781   6.303   5.293 -0.1753  0.3980 -0.2064
13010TIP3    H160521   4.860   6.341   5.331 -0.6350  1.1980 -0.0307
13010TIP3    H260522   4.778   6.214   5.328  0.1993  0.6437  0.4712
13011TIP3   OH260523   3.041   0.496  11.491  0.3409  0.0580 -0.6912
13011TIP3    H160524   3.003   0.415  11.458  0.0090  0.7621 -2.1168
13011TIP3    H260525   2.980   0.565  11.463 -0.3975  0.6947  2.0803
13012TIP3   OH260526   0.849   4.832   4.425  0.4970 -0.0763  0.0039
13012TIP3    H160527   0.782   4.894   4.395  0.0201 -0.2694  0.6421
13012TIP3    H260528   0.878   4.866   4.509  0.4053 -0.5758  0.2452
13013TIP3   OH260529   0.860   5.057  13.361 -0.5345 -0.3628  0.4683
13013TIP3    H160530   0.866   5.139  13.311  0.2162 -0.1353  0.9049
13013TIP3    H260531   0.926   5.067  13.430  1.3893 -2.3188 -0.9195
13014TIP3   OH260532   2.642   1.604   5.450  0.2228 -0.4408 -0.0783
13014TIP3    H160533   2.675   1.691   5.427 -1.0023  0.0680  0.0008
13014TIP3    H260534   2.720   1.556   5.479  0.6476  1.3362  2.0604
13015TIP3   OH260535   0.225   2.300  16.752 -0.4234  0.7610 -0.1637
13015TIP3    H160536   0.197   2.383  16.789 -1.0050 -0.1160  1.4289
13015TIP3    H260537   0.165   2.236  16.788  2.4135 -0.9497  1.9114
13016TIP3   OH260538   4.122   3.886  15.880  0.2095 -0.1954 -0.0910
13016TIP3    H160539   4.124   3.804  15.831  1.7289 -0.8606  1.0102
13016TIP3    H260540   4.213   3.902  15.905 -0.4824 -0.0107  2.6447
13017TIP3   OH260541   4.693   1.140  13.752  0.0967  0.2696 -0.6522
13017TIP3    H160542   4.726   1.199  13.820 -1.0552 -0.6022  0.7187
13017TIP3    H260543   4.759   1.071  13.745 -1.2204 -1.4402  2.0344
13018TIP3   OH260544   1.972   1.928  15.518  0.5593 -0.2938  0.2699
13018TIP3    H160545   1.925   2.006  15.545 -0.9967 -0.9533 -0.4447
13018TIP3    H260546   1.905   1.867  15.488  1.7780 -1.6682  0.1640
13019TIP3   OH260547   1.538   1.541  11.226 -0.0202  0.0293 -0.7370
13019TIP3    H160548   1.480   1.476  11.186  0.1366  0.8822 -2.4377
13019TIP3    H260549   1.616   1.491  11.251 -0.6061 -0.7401 -0.4180
13020TIP3   OH260550   1.393   4.151  14.425 -0.0206  0.3152  0.6306
13020TIP3    H160551   1.346   4.068  14.417 -2.5388  1.4353  2.5705
13020TIP3    H260552   1.466   4.131  14.484  0.5311 -0.8724 -0.3927
13021TIP3   OH260553   6.272   0.805   1.304  0.6462  0.2947 -0.5449
13021TIP3    H160554   6.336   0.846   1.361  0.6602  0.9255 -1.0035
13021TIP3    H260555   6.187   0.824   1.345  0.7250 -0.2565 -0.1169
13022TIP3   OH260556   0.856   0.482  12.263  0.0143  0.2578  0.0314
13022TIP3    H160557   0.765   0.489  12.293 -0.1893  1.5932 -0.7679
13022TIP3    H260558   0.887   0.399  12.298 -1.1861  0.2623  1.1981
13023TIP3   OH260559   0.476   0.261  14.852  0.6136 -0.1585 -0.2322
13023TIP3    H160560   0.530   0.340  14.845  2.8015 -1.6700 -1.4117
13023TIP3    H260561   0.478   0.222  14.765  0.5561 -2.1152  0.5895
13024TIP3   OH260562   2.890   4.248   5.272  0.7605 -0.0273 -0.3052
13024TIP3    H160563   2.878   4.235   5.366 -0.6000 -0.9627 -0.5720
13024TIP3    H260564   2.964   4.190   5.249 -0.2643 -1.4586 -0.1433
13025TIP3   OH260565   1.659   4.481  13.368  0.1894  0.4257  0.2542
13025TIP3    H160566   1.620   4.401  13.404  0.4842  0.1334 -0.0697
13025TIP3    H260567   1.629   4.551  13.426 -0.7515  0.1945  0.0602
13026TIP3   OH260568   3.113   6.784  15.808 -0.5387 -0.0306 -0.4096
13026TIP3    H160569   3.105   6.817  15.897  0.5226 -0.0089 -0.3150
13026TIP3    H260570   3.107   6.863  15.753 -1.6758 -0.0928 -0.4059
13027TIP3   OH260571   5.681   2.301  12.424  0.0325 -0.1437 -0.2121
13027TIP3    H160572   5.689   2.248  12.504  1.5105  1.2396  0.6104
13027TIP3    H260573   5.741   2.374  12.437 -1.2973  1.3053 -1.6736
13028TIP3   OH260574   4.081   5.659   1.814 -0.1474 -0.2863  0.3942
13028TIP3    H160575   3.989   5.641   1.796 -0.4408  0.2882  1.2199
13028TIP3    H260576   4.079   5.730   1.878  0.8510 -0.7977  1.0223
13029TIP3   OH260577   3.982   6.773   2.062 -0.0766 -0.4350 -0.2169
13029TIP3    H160578   4.074   6.776   2.036  0.9793 -0.1832  3.0427
13029TIP3    H260579   3.950   6.862   2.047  0.1525 -0.5459 -1.4538
13030TIP3   OH260580   3.044   0.605   5.644 -0.1325  0.1515  0.1168
13030TIP3    H160581   2.968   0.574   5.694 -0.8105 -1.1989 -1.6656
13030TIP3    H260582   3.017   0.599   5.552  0.8664  3.0818 -0.4956
13031TIP3   OH260583   4.511   2.026   4.045 -0.1032 -0.2211 -0.0777
13031TIP3    H160584   4.548   2.073   3.970  0.1197 -0.1077  0.1028
13031TIP3    H260585   4.419   2.051   4.045 -0.1002 -0.2051 -0.3036
13032TIP3   OH260586   1.447   3.181  16.592  0.2945 -0.2684  0.0819
13032TIP3    H160587   1.430   3.241  16.519  2.1731 -0.0020 -0.1783
13032TIP3    H260588   1.431   3.094  16.556  1.5422 -0.1597 -0.7785
13033TIP3   OH260589   3.593   2.767   2.652  0.5045  0.1373 -0.6571
13033TIP3    H160590   3.639   2.789   2.732  0.4988  0.4189 -0.7300
13033TIP3    H260591   3.521   2.710   2.680  1.1110 -0.6055 -0.5882
13034TIP3   OH260592   5.436   2.109   1.447 -0.4239 -0.3366 -0.0239
13034TIP3    H160593   5.467   2.027   1.409  3.4656 -0.5848  3.0874
13034TIP3    H260594   5.368   2.083   1.509 -2.0503 -0.6001 -1.7902
13035TIP3   OH260595   4.792   2.917  15.421  0.1831  0.3935  0.2758
13035TIP3    H160596   4.737   2.993  15.437 -1.2327 -0.6012  0.2676
13035TIP3    H260597   4.862   2.950  15.364 -0.2466  1.7353  0.4875
13036TIP3   OH260598   3.802   1.011  16.227  0.5250 -0.4557  0.1928
13036TIP3    H160599   3.745   0.934  16.216 -0.5024  0.5516 -2.2857
13036TIP3    H260600   3.741   1.084  16.241  1.4943 -0.0521  2.8326
13037TIP3   OH260601   2.398   4.611   6.671  0.2523  0.1110  0.9163
13037TIP3    H160602   2.372   4.616   6.763 -0.4877 -1.2227  0.8089
13037TIP3    H260603   2.320   4.639   6.623  0.6062  0.7104  0.6738
13038TIP3   OH260604   1.120   1.574  11.557  0.2807  0.0123  0.1891
13038TIP3    H160605   1.193   1.549  11.502  0.0086  0.9393 -0.6282
13038TIP3    H260606   1.121   1.670  11.555  0.9280  0.1434  2.6791
13039TIP3   OH260607   4.415   5.574  15.608  0.2872 -0.7539 -0.1113
13039TIP3    H160608   4.485   5.627  15.646 -1.0517  1.2062 -0.2315
13039TIP3    H260609   4.390   5.514  15.678 -1.0294  1.7165  1.7263
13040TIP3   OH260610   0.047   5.399  16.664 -0.0698  0.2468 -0.7432
13040TIP3    H160611   0.125   5.387  16.719 -0.1527 -0.9099 -0.8543
13040TIP3    H260612  -0.027   5.379  16.721 -0.1727 -0.6367 -1.1616
13041TIP3   OH260613   6.151   0.563  16.333 -0.0644  0.3086 -0.1480
13041TIP3    H160614   6.128   0.541  16.424  1.8810 -0.9067  0.1136
13041TIP3    H260615   6.126   0.654  16.323 -2.4907 -0.1728  0.8398
13042TIP3   OH260616   1.312   6.235  17.024 -0.1036 -0.3086  0.2149
13042TIP3    H160617   1.242   6.297  17.005  0.9129  1.0766  0.8113
13042TIP3    H260618   1.359   6.226  16.941 -1.4280 -1.8842 -0.4113
13043TIP3   OH260619   6.394   3.942  15.791  0.3802  0.0815  0.0783
13043TIP3    H160620   6.324   3.894  15.747  0.2612 -0.4965  0.8775
13043TIP3    H260621   6.366   4.034  15.788 -0.3188 -0.1218  0.2353
13044TIP3   OH260622   4.577   3.416  14.716 -0.8284 -0.2716 -0.1842
13044TIP3    H160623   4.638   3.344  14.733 -0.0044  0.5103  0.2589
13044TIP3    H260624   4.548   3.401  14.626  1.7143  0.5052 -1.2392
13045TIP3   OH260625   4.679   1.378  16.103  0.0149  0.2021  0.1050
13045TIP3    H160626   4.626   1.351  16.028 -1.4221  0.2218  1.0743
13045TIP3    H260627   4.711   1.465  16.081  2.6584 -1.1708 -2.0068
13046TIP3   OH260628   3.900   0.060  14.599  0.4653  0.1264  0.5481
13046TIP3    H160629   3.984   0.091  14.566  0.4569 -1.5259 -1.2392
13046TIP3    H260630   3.849   0.038  14.520 -1.0468 -0.3910  1.6074
13047TIP3   OH260631   4.572   2.290   6.630  0.1783 -0.5203 -0.5316
13047TIP3    H160632   4.497   2.270   6.574 -0.8581  2.4678 -0.4139
13047TIP3    H260633   4.533   2.306   6.717  0.3201  3.8286 -1.0322
13048TIP3   OH260634   0.411   4.656   6.313  0.0487 -0.6749 -0.0670
13048TIP3    H160635   0.429   4.641   6.405  0.2366  0.1247  0.0355
13048TIP3    H260636   0.422   4.571   6.271 -1.5594 -1.3866  0.8776
13049TIP3   OH260637   5.693   5.373  12.853  0.1944  0.1702  0.6523
13049TIP3    H160638   5.660   5.445  12.800  1.2953 -0.4918 -1.0043
13049TIP3    H260639   5.768   5.409  12.899 -0.6910  0.7114  1.7258
13050TIP3   OH260640   0.341   0.307   0.422 -0.9085  0.3045 -0.1982
13050TIP3    H160641   0.271   0.341   0.366  1.2427  1.9276 -2.0568
13050TIP3    H260642   0.386   0.385   0.455  1.1884 -0.6443 -0.6315
13051TIP3   OH260643   2.369   0.449  12.101 -0.5443  0.1200 -0.2544
13051TIP3    H160644   2.400   0.412  12.018 -1.2632  0.2590 -0.5864
13051TIP3    H260645   2.290   0.400  12.122  2.3286 -3.7952  3.1371
13052TIP3   OH260646   0.390   4.660   5.513 -0.1623 -0.1133 -0.2223
13052TIP3    H160647   0.304   4.701   5.501 -0.2036 -0.4504 -1.1127
13052TIP3    H260648   0.382   4.609   5.593 -0.9177 -0.4509 -0.5096
13053TIP3   OH260649   2.764   1.887  13.852 -0.1855 -0.3697 -0.0342
13053TIP3    H160650   2.690   1.947  13.847 -0.3276 -0.5768 -0.5432
13053TIP3    H260651   2.792   1.891  13.943  0.2655  1.0181 -0.2058
13054TIP3   OH260652   2.410   5.283   5.389 -0.2122 -0.3017  0.2478
13054TIP3    H160653   2.436   5.338   5.463  1.5272 -1.5073  0.5962
13054TIP3    H260654   2.433   5.334   5.312  2.1471 -0.7905  0.5607
13055TIP3   OH260655   3.376   2.104   5.699 -0.5670  0.0573  0.1584
13055TIP3    H160656   3.438   2.176   5.697  1.4320 -1.5519  0.5084
13055TIP3    H260657   3.328   2.115   5.781 -1.0138  1.5120 -0.2757
13056TIP3   OH260658   6.425   1.833  15.274 -0.0209 -0.1679 -0.0906
13056TIP3    H160659   6.379   1.916  15.276 -0.1365 -0.2303  1.9813
13056TIP3    H260660   6.518   1.857  15.276 -0.0587 -0.0571  1.2239
13057TIP3   OH260661   6.758   1.285   3.281  0.2576 -0.4472 -0.2823
13057TIP3    H160662   6.838   1.263   3.233  0.4632  0.1162 -0.2023
13057TIP3    H260663   6.714   1.349   3.226  1.0872  1.1348  0.8076
13058TIP3   OH260664   0.661   1.875   5.394 -0.1632  0.5543  0.1338
13058TIP3    H160665   0.686   1.822   5.318  1.0879 -0.7059  1.3664
13058TIP3    H260666   0.697   1.962   5.375 -1.5728  0.8205 -1.5711
13059TIP3   OH260667   1.279   0.211   0.295  0.2118 -0.0702  0.3169
13059TIP3    H160668   1.265   0.117   0.295  0.9142 -0.1849 -0.2031
13059TIP3    H260669   1.334   0.227   0.372  0.6590 -0.1854  0.0276
13060TIP3   OH260670   0.009   6.469   4.239  0.3790  0.1961  0.4261
13060TIP3    H160671   0.084   6.524   4.219  0.4648  0.5810  1.7192
13060TIP3    H260672   0.032   6.383   4.204  2.3147 -0.2166  2.4819
13061TIP3   OH260673   1.180   4.137  13.427 -0.5228 -0.1817 -0.1934
13061TIP3    H160674   1.246   4.087  13.475 -1.0366  0.3977  1.1527
13061TIP3    H260675   1.112   4.074  13.404 -1.4925 -0.0447  2.0766
13062TIP3   OH260676   0.227   4.997  13.754 -0.2291  0.0766  0.4857
13062TIP3    H160677   0.197   4.994  13.663  0.4400 -0.3507  0.2706
13062TIP3    H260678   0.284   4.920  13.763  0.4441  0.6147  0.9951
13063TIP3   OH260679   5.589   3.497  15.446  0.1769 -0.1243  0.7512
13063TIP3    H160680   5.540   3.430  15.493 -0.7836  0.3230  0.4061
13063TIP3    H260681   5.626   3.451  15.370 -0.8879 -0.1732  0.2434
13064TIP3   OH260682   0.010   1.849  13.772 -0.2505 -1.0509 -0.2649
13064TIP3    H160683  -0.012   1.865  13.864  0.8477 -1.7923  0.1386
13064TIP3    H260684   0.054   1.764  13.772  0.3098 -0.7779 -1.3906
13065TIP3   OH260685   1.585   1.007   4.300  0.7472  0.1920  0.5854
13065TIP3    H160686   1.627   1.070   4.243  0.8390  0.3001  0.7720
13065TIP3    H260687   1.642   1.002   4.377  0.6588  0.0001  0.6391
13066TIP3   OH260688   0.721   4.944   3.538  0.5909 -0.4757 -0.1744
13066TIP3    H160689   0.697   4.941   3.445  0.3109 -0.2549 -0.1083
13066TIP3    H260690   0.798   4.886   3.544 -0.9856 -2.6934 -0.0728
13067TIP3   OH260691   0.176   3.348   1.681  0.0056  0.5036  0.2177
13067TIP3    H160692   0.087   3.314   1.686  0.0638  0.3939  0.5048
13067TIP3    H260693   0.168   3.430   1.632  0.0415 -0.5660 -1.6606
13068TIP3   OH260694   4.576   5.232   2.750 -0.2947  0.2278  0.3326
13068TIP3    H160695   4.615   5.275   2.674 -0.4135 -0.7538 -0.3051
13068TIP3    H260696   4.604   5.285   2.825 -1.2682  1.9881 -0.4881
13069TIP3   OH260697   2.698   6.680  13.112  0.2997  0.0814  0.0643
13069TIP3    H160698   2.766   6.614  13.128  1.2039  0.8543 -0.4831
13069TIP3    H260699   2.658   6.694  13.197  0.4153 -0.8352  0.2779
13070TIP3   OH260700   1.627   3.326  16.996 -0.0604 -0.4202 -0.2047
13070TIP3    H160701   1.717   3.357  16.987 -0.6385  1.1717 -0.8993
13070TIP3    H260702   1.635   3.234  17.020  1.7476 -0.2449 -0.0283
13071TIP3   OH260703   5.347   5.007   4.602  0.8178 -0.3655  0.0207
13071TIP3    H160704   5.295   4.926   4.600  0.0390  0.1365 -1.7120
13071TIP3    H260705   5.300   5.064   4.662 -0.5157 -0.0352 -1.2811
13072TIP3   OH260706   2.408   4.555  16.414  0.2957  0.2773 -0.7672
13072TIP3    H160707   2.496   4.593  16.423  0.3926 -0.1930  0.6296
13072TIP3    H260708   2.351   4.630  16.398  0.7685  0.7586 -0.2610
13073TIP3   OH260709   0.919   4.186  10.589 -0.1335  0.3122 -0.4192
13073TIP3    H160710   0.899   4.201  10.681 -1.7809 -0.2636 -0.6597
13073TIP3    H260711   0.925   4.273  10.551 -1.2961  0.5221 -0.1365
13074TIP3   OH260712   4.800   0.355   0.744 -0.3828 -0.5688  0.1970
13074TIP3    H160713   4.727   0.359   0.681  0.4987  1.3255 -0.7879
13074TIP3    H260714   4.767   0.399   0.822 -0.0210  1.2229 -0.6103
13075TIP3   OH260715   6.435   4.615  14.817  0.3901 -0.5844 -0.4379
13075TIP3    H160716   6.464   4.546  14.877  0.8683 -1.0737 -1.2229
13075TIP3    H260717   6.488   4.691  14.842 -1.6923  0.2444  1.9513
13076TIP3   OH260718   4.597   1.598  10.820 -0.5076 -0.8235 -0.0264
13076TIP3    H160719   4.656   1.674  10.815 -0.2693 -1.0927 -2.2259
13076TIP3    H260720   4.635   1.535  10.759 -2.3765 -1.5126 -0.5198
13077TIP3   OH260721   3.215   2.683   3.410  1.1542 -0.3306 -0.1188
13077TIP3    H160722   3.267   2.608   3.440 -0.4138 -1.5835 -0.4351
13077TIP3    H260723   3.214   2.743   3.485  1.2954 -1.2421  0.6218
13078TIP3   OH260724   6.358   1.494   1.866 -0.3726  0.1420 -0.5580
13078TIP3    H160725   6.332   1.404   1.848  0.8743 -0.2819 -0.4085
13078TIP3    H260726   6.327   1.511   1.955 -2.0602  0.4638 -1.1724
13079TIP3   OH260727   1.610   0.322   3.518 -0.1851  0.1574 -0.3100
13079TIP3    H160728   1.573   0.315   3.430 -1.4649  1.3123  0.1011
13079TIP3    H260729   1.563   0.256   3.569  2.2028 -2.1971 -0.9381
13080TIP3   OH260730   3.526   3.724   3.596 -0.4620  0.9575 -0.3835
13080TIP3    H160731   3.435   3.750   3.582 -1.4367 -2.1429 -0.4209
13080TIP3    H260732   3.570   3.743   3.512 -1.3191  1.4014 -0.7418
13081TIP3   OH260733   2.873   2.170   1.341  0.1052 -0.6912 -0.2068
13081TIP3    H160734   2.839   2.145   1.427 -0.9432  0.7908 -0.1552
13081TIP3    H260735   2.836   2.257   1.325  0.1596 -0.9955 -2.2159
13082TIP3   OH260736   1.002   3.695   4.146 -0.3339  0.3929 -0.9070
13082TIP3    H160737   1.075   3.634   4.156  0.0132  1.1278  1.9603
13082TIP3    H260738   1.008   3.726   4.056  2.9085  0.4088 -0.7767
13083TIP3   OH260739   6.200   5.090  11.445 -0.4878  0.0304  0.6557
13083TIP3    H160740   6.137   5.150  11.484 -0.8797 -0.9062  1.5207
13083TIP3    H260741   6.162   5.064  11.362 -0.6082  0.4918  0.5658
13084TIP3   OH260742   1.191   1.194   1.519 -0.0142  0.4279  0.8465
13084TIP3    H160743   1.116   1.136   1.510  1.0836 -1.0634  0.9372
13084TIP3    H260744   1.166   1.274   1.473 -2.4589  0.8089  2.6459
13085TIP3   OH260745   3.151   1.402  11.867  0.1138  0.2360  0.2405
13085TIP3    H160746   3.196   1.475  11.824  0.4974 -0.9714 -1.5333
13085TIP3    H260747   3.199   1.324  11.838 -2.0651 -0.9609 -0.3421
13086TIP3   OH260748   6.694   1.323  12.422 -0.2437  0.0944  0.7554
13086TIP3    H160749   6.667   1.262  12.491  0.4414  0.2942  1.2135
13086TIP3    H260750   6.770   1.282  12.381 -0.4313  0.1446  0.3547
13087TIP3   OH260751   1.018   5.519  14.671  0.1721  0.2219  0.1035
13087TIP3    H160752   1.099   5.501  14.624  0.1587  1.5026 -0.4383
13087TIP3    H260753   0.956   5.548  14.604 -0.8839 -1.0783  0.4457
13088TIP3   OH260754   4.519   1.327  12.750 -0.1690 -0.2462 -0.2058
13088TIP3    H160755   4.578   1.360  12.818 -0.4777 -0.5824  0.2347
13088TIP3    H260756   4.491   1.404  12.702  1.1856 -0.1485 -0.8835
13089TIP3   OH260757   2.827   1.190  16.896 -0.3902 -0.1824 -0.0683
13089TIP3    H160758   2.762   1.205  16.827 -0.7078 -1.2042 -0.0003
13089TIP3    H260759   2.868   1.107  16.873  1.2013  0.6194 -0.3237
13090TIP3   OH260760   4.737   6.127   1.797 -0.4490  0.2213 -0.4004
13090TIP3    H160761   4.791   6.074   1.738 -0.5137 -0.3729  0.0688
13090TIP3    H260762   4.651   6.130   1.754  0.2882  2.3945 -1.9006
13091TIP3   OH260763   5.024   1.769  15.595  0.0561  0.0692 -0.7602
13091TIP3    H160764   5.009   1.680  15.564  2.5274  0.3203 -3.0982
13091TIP3    H260765   5.034   1.761  15.690 -0.3014 -2.0375 -0.8562
13092TIP3   OH260766   3.270   3.488   4.588  0.6114  0.0255  0.1277
13092TIP3    H160767   3.337   3.549   4.618 -1.2794  2.7401 -0.7811
13092TIP3    H260768   3.201   3.493   4.654  0.0610 -0.4877 -0.3873
13093TIP3   OH260769   1.762   5.886   1.733 -0.0891 -0.6568 -0.5208
13093TIP3    H160770   1.672   5.917   1.729 -0.1376 -0.5823  0.8422
13093TIP3    H260771   1.785   5.889   1.826  1.6361  0.2259 -0.9355
13094TIP3   OH260772   1.537   5.273   1.682 -0.4212 -0.5150 -0.7013
13094TIP3    H160773   1.452   5.301   1.714  0.6578  0.8050  1.2102
13094TIP3    H260774   1.582   5.238   1.758  1.6373  1.1562 -1.0374
13095TIP3   OH260775   6.731   6.152  15.772  0.4352  0.3654 -0.5041
13095TIP3    H160776   6.760   6.149  15.680 -2.4962 -0.1368 -1.5166
13095TIP3    H260777   6.675   6.229  15.777 -0.9220 -0.6325  0.3475
13096TIP3   OH260778   6.618   3.803  12.836  0.0246  0.6752  0.1006
13096TIP3    H160779   6.527   3.830  12.848  0.3563  1.0512  2.0595
13096TIP3    H260780   6.668   3.885  12.832  0.0990  0.6386 -3.7602
13097TIP3   OH260781   0.177   0.849   6.590 -0.2628  0.4211  0.0612
13097TIP3    H160782   0.176   0.925   6.532 -1.5187  1.1595  0.9923
13097TIP3    H260783   0.087   0.817   6.590  0.0940 -0.6411  0.2409
13098TIP3   OH260784   4.135   3.206  12.841  0.1300  0.4102 -0.2162
13098TIP3    H160785   4.213   3.205  12.786 -0.5835  0.0299 -1.2369
13098TIP3    H260786   4.062   3.202  12.780 -0.7217  1.4134  0.7002
13099TIP3   OH260787   5.360   3.250   0.734 -0.0931 -0.1119  0.3024
13099TIP3    H160788   5.292   3.313   0.756  0.2063  0.9038 -1.4680
13099TIP3    H260789   5.442   3.298   0.749  0.1523 -0.3143 -0.3853
13100TIP3   OH260790   2.967   3.748  14.278  0.3844  0.3953 -0.3418
13100TIP3    H160791   2.934   3.670  14.234  1.9410  0.0042 -0.8930
13100TIP3    H260792   3.004   3.801  14.207  2.4943 -0.0184  0.3893
13101TIP3   OH260793   4.928   6.805   0.511  0.8609 -0.0616  0.1183
13101TIP3    H160794   4.903   6.732   0.454 -2.1719  1.9961 -1.4571
13101TIP3    H260795   4.934   6.766   0.598  0.6543 -2.4172 -0.8544
13102TIP3   OH260796   1.231   1.916  11.149 -0.5408  0.5002 -0.6776
13102TIP3    H160797   1.253   2.007  11.130  0.0693  0.7549  1.0694
13102TIP3    H260798   1.315   1.873  11.164 -0.9085  0.2702  0.9638
13103TIP3   OH260799   0.686   2.156  12.329 -0.0826 -0.2685  0.2421
13103TIP3    H160800   0.598   2.160  12.293  0.5373  0.5852 -1.2226
13103TIP3    H260801   0.742   2.196  12.263  1.3550 -0.3594  1.3456
13104TIP3   OH260802   6.183   6.426  12.379  0.4014  0.1071  0.1557
13104TIP3    H160803   6.226   6.435  12.464 -1.4642  1.9661  0.9818
13104TIP3    H260804   6.251   6.447  12.316  2.0727 -2.1585  1.0616
13105TIP3   OH260805   2.379   2.838  17.283  0.1871 -0.2980 -0.1860
13105TIP3    H160806   2.409   2.785  17.209 -1.5037  0.6529 -1.6389
13105TIP3    H260807   2.427   2.920  17.275 -1.3142  0.5081 -1.3908
13106TIP3   OH260808   1.858   3.550  15.250 -0.4682  0.5292 -0.4715
13106TIP3    H160809   1.905   3.479  15.206  0.0673  0.8731 -0.4651
13106TIP3    H260810   1.765   3.527  15.241 -0.3375 -2.3943  3.1320
13107TIP3   OH260811   4.937   5.685  16.930  0.4698  0.1734  0.2781
13107TIP3    H160812   4.884   5.762  16.907 -1.4280 -0.9610  0.6310
13107TIP3    H260813   4.932   5.680  17.025 -0.0125 -0.7445  0.2226
13108TIP3   OH260814   1.535   5.948  14.361  0.2591 -0.1185 -1.0611
13108TIP3    H160815   1.631   5.951  14.369  0.2986  1.5722 -1.6953
13108TIP3    H260816   1.504   5.975  14.448  0.4069  1.0868 -1.3653
13109TIP3   OH260817   3.437   5.926  13.084 -0.3256  0.0131  0.1026
13109TIP3    H160818   3.394   6.002  13.044 -0.6373 -0.1739  0.0783
13109TIP3    H260819   3.531   5.942  13.072 -0.3589  0.7301  0.7155
13110TIP3   OH260820   3.202   1.629   3.710 -0.3160  0.2024  0.3502
13110TIP3    H160821   3.266   1.635   3.639  0.6086 -1.6726  0.9504
13110TIP3    H260822   3.128   1.583   3.672  0.5192 -1.5705  0.7397
13111TIP3   OH260823   6.045   0.739  12.667  0.1242  0.7047 -0.2866
13111TIP3    H160824   6.129   0.785  12.661  0.5199  0.0363  0.0012
13111TIP3    H260825   6.053   0.667  12.604 -1.1816  2.0553 -2.0955
13112TIP3   OH260826   2.320   5.962   1.136  0.1326 -0.1043  0.1749
13112TIP3    H160827   2.383   6.010   1.083 -0.5680 -0.9021 -1.4422
13112TIP3    H260828   2.235   5.980   1.094 -0.6511  0.3145  1.8294
13113TIP3   OH260829   5.270   2.428   2.418 -0.0446 -1.2831  0.5340
13113TIP3    H160830   5.355   2.423   2.460  0.0480  1.1708  0.7618
13113TIP3    H260831   5.212   2.464   2.485 -0.5712 -0.1555 -0.4904
13114TIP3   OH260832   4.226   0.172   0.850  0.0378 -0.4730  0.3029
13114TIP3    H160833   4.169   0.213   0.784  0.5754 -2.3834 -1.4492
13114TIP3    H260834   4.167   0.148   0.921 -0.5138  1.9345  0.7542
13115TIP3   OH260835   2.238   3.420   5.797  0.1479 -0.6478  0.3914
13115TIP3    H160836   2.324   3.434   5.755 -0.1628  2.3698  0.5008
13115TIP3    H260837   2.242   3.332   5.832  3.3608 -0.4900  0.6976
13116TIP3   OH260838   0.977   6.450  15.764 -0.0797 -0.3878  0.1918
13116TIP3    H160839   1.072   6.438  15.766 -0.2375 -1.6579  1.3836
13116TIP3    H260840   0.944   6.396  15.835 -1.6860  0.3012  0.0209
13117TIP3   OH260841   5.481   1.456   3.933 -0.1684 -0.4592 -0.0375
13117TIP3    H160842   5.431   1.537   3.935 -0.2948 -0.5334 -0.1395
13117TIP3    H260843   5.535   1.463   3.854  0.3953 -0.1357  0.3752
13118TIP3   OH260844   1.805   1.146  12.881  0.1888  0.3452  0.0093
13118TIP3    H160845   1.762   1.137  12.966 -0.1346  0.9243 -0.0862
13118TIP3    H260846   1.770   1.074  12.828  0.0097  0.2841  0.2104
13119TIP3   OH260847   3.353   5.118  14.965  0.3051  0.0488 -0.8176
13119TIP3    H160848   3.328   5.038  15.011  1.6058  0.3209  0.4481
13119TIP3    H260849   3.270   5.163  14.950 -0.4569 -1.5302 -1.6157
13120TIP3   OH260850   2.127   2.560   4.129 -0.2314  0.1303 -0.1136
13120TIP3    H160851   2.129   2.655   4.133  2.6854  0.1280  2.1612
13120TIP3    H260852   2.200   2.537   4.071 -0.2996 -0.7169  0.1221
13121TIP3   OH260853   5.425   4.378   5.854  0.0474 -0.3300 -0.2240
13121TIP3    H160854   5.454   4.365   5.764 -2.5389  1.4995 -1.4326
13121TIP3    H260855   5.331   4.359   5.852  0.0524 -1.0653  2.3301
13122TIP3   OH260856   0.193   2.415  14.462  0.0450  0.5452 -0.5204
13122TIP3    H160857   0.226   2.330  14.493  0.2982  1.6872  2.6213
13122TIP3    H260858   0.098   2.408  14.467  0.0321  1.5572  3.5087
13123TIP3   OH260859   2.715   4.406   1.778 -0.4554  0.1601  0.0485
13123TIP3    H160860   2.698   4.331   1.835  0.5363  0.4726  0.7889
13123TIP3    H260861   2.799   4.386   1.736 -1.2465 -0.1322 -1.4427
13124TIP3   OH260862   3.108   5.432  11.896  0.4550 -0.3193 -0.1051
13124TIP3    H160863   3.165   5.457  11.823 -0.4199  0.6347 -0.4859
13124TIP3    H260864   3.028   5.402  11.854 -0.0237  0.1427  0.4623
13125TIP3   OH260865   4.992   2.137   2.418 -0.3035 -0.3192 -0.0316
13125TIP3    H160866   4.954   2.107   2.501 -0.9845 -1.4031 -0.6959
13125TIP3    H260867   4.970   2.230   2.414  1.4518  0.2421  1.8927
13126TIP3   OH260868   2.594   6.545  14.924  0.5197  0.0584 -1.0576
13126TIP3    H160869   2.592   6.499  15.008 -1.3207 -1.9523 -2.1307
13126TIP3    H260870   2.686   6.543  14.899  0.9103 -0.4215  0.2972
13127TIP3   OH260871   0.882   3.710  14.202  0.3100  0.0732  0.0763
13127TIP3    H160872   0.900   3.760  14.282 -0.0270  1.9451 -0.9546
13127TIP3    H260873   0.850   3.775  14.139 -2.7634 -1.8441 -0.5767
13128TIP3   OH260874   3.652   5.693  12.453  0.1540 -0.0180  0.0215
13128TIP3    H160875   3.678   5.713  12.364  0.4065  0.6381  0.2351
13128TIP3    H260876   3.710   5.747  12.508 -2.7447  2.9470  0.4941
13129TIP3   OH260877   5.661   1.135   2.366  0.0442  0.1931  0.4728
13129TIP3    H160878   5.729   1.076   2.333  1.3621  0.3172  2.7647
13129TIP3    H260879   5.709   1.203   2.413 -1.5979  1.4936  0.3630
13130TIP3   OH260880   0.868   0.137  13.344  0.6901  0.3958  0.1547
13130TIP3    H160881   0.900   0.079  13.414 -0.0293 -0.1823  0.0165
13130TIP3    H260882   0.779   0.160  13.371  1.3394  2.3467  0.7530
13131TIP3   OH260883   2.436   4.220   0.442 -0.2511 -0.4310  0.2316
13131TIP3    H160884   2.450   4.315   0.439  0.2092 -0.5053 -0.0185
13131TIP3    H260885   2.417   4.197   0.351 -0.6019 -0.5438  0.3337
13132TIP3   OH260886   1.106   0.655   0.665  0.1781 -0.4252 -0.2354
13132TIP3    H160887   1.043   0.723   0.643  1.8489  1.4138  0.3212
13132TIP3    H260888   1.165   0.652   0.590  1.1689  0.0937  0.4893
13133TIP3   OH260889   3.439   5.460   1.943  0.1081  0.6492 -0.2236
13133TIP3    H160890   3.357   5.411   1.949 -0.1817  1.0633 -0.6555
13133TIP3    H260891   3.460   5.485   2.033  0.7610 -1.0506  0.1319
13134TIP3   OH260892   0.195   3.155  14.517 -0.2251  0.0839 -0.6046
13134TIP3    H160893   0.179   3.071  14.473  1.6606 -0.3252 -0.6113
13134TIP3    H260894   0.279   3.184  14.482 -0.5220  1.6397 -0.0749
13135TIP3   OH260895   2.533   4.686   0.681 -0.3881 -0.1500 -0.1633
13135TIP3    H160896   2.579   4.672   0.764  1.6375 -1.9128 -1.4890
13135TIP3    H260897   2.576   4.763   0.643  1.0353 -1.3076 -1.0214
13136TIP3   OH260898   3.829   6.392   1.133  0.5375 -0.5483  0.2160
13136TIP3    H160899   3.882   6.361   1.207  1.3305  0.1035 -0.0575
13136TIP3    H260900   3.805   6.312   1.086  1.8699 -0.8306 -0.0311
13137TIP3   OH260901   2.926   3.694   1.863  0.1335  0.4929  0.1743
13137TIP3    H160902   2.889   3.640   1.793  0.4955  1.9507 -1.1804
13137TIP3    H260903   2.850   3.719   1.916 -0.1942 -0.2997  0.1055
13138TIP3   OH260904   4.340   1.622   2.960  0.0288  0.5104  0.6176
13138TIP3    H160905   4.381   1.552   2.909 -0.6683  0.2500  0.3943
13138TIP3    H260906   4.326   1.583   3.047 -1.0793  0.0859  0.2672
13139TIP3   OH260907   3.263   0.974  13.921 -0.0794  0.7737 -0.5431
13139TIP3    H160908   3.218   0.963  14.004  1.2265  0.6270  0.1781
13139TIP3    H260909   3.229   0.904  13.866 -1.1259  1.0088 -0.2252
13140TIP3   OH260910   3.515   5.074   0.451  0.5234 -0.4638  0.0646
13140TIP3    H160911   3.552   5.094   0.537  0.3678 -0.2635  0.0882
13140TIP3    H260912   3.420   5.081   0.464  0.4338 -1.7525  0.1973
13141TIP3   OH260913   3.098   0.468   6.203  0.0430 -0.5051 -0.8738
13141TIP3    H160914   3.172   0.465   6.142 -0.1647  0.3854 -1.1761
13141TIP3    H260915   3.130   0.424   6.282  1.4742  1.2995 -0.3863
13142TIP3   OH260916   2.320   5.975  14.770 -0.3556  0.3687  0.2998
13142TIP3    H160917   2.269   5.935  14.700  0.3653 -0.4850  0.2429
13142TIP3    H260918   2.373   5.903  14.805  2.6613  1.6536 -1.3047
13143TIP3   OH260919   1.069   2.407  16.466  0.1936  0.1572 -0.0661
13143TIP3    H160920   1.037   2.494  16.442 -1.4180 -0.4114 -0.0803
13143TIP3    H260921   1.003   2.347  16.432  0.4969 -0.9816  1.2808
13144TIP3   OH260922   5.274   4.790  14.605 -0.0323  0.0127 -0.2767
13144TIP3    H160923   5.249   4.705  14.642  1.8251 -0.3784  0.1599
13144TIP3    H260924   5.261   4.780  14.511 -0.4285 -0.5389 -0.1697
13145TIP3   OH260925   0.578   2.066   4.195  0.1862 -0.3746 -0.2087
13145TIP3    H160926   0.518   2.008   4.243 -0.5648  0.6336  0.1032
13145TIP3    H260927   0.523   2.107   4.129  1.2114 -1.7229 -1.9775
13146TIP3   OH260928   5.192   6.300   1.630  0.6297  0.5751  0.2883
13146TIP3    H160929   5.155   6.284   1.543 -0.5782 -0.5202  0.9808
13146TIP3    H260930   5.214   6.393   1.629 -0.8721  0.9618 -0.6497
13147TIP3   OH260931   6.180   3.827  16.549 -0.3026 -0.1485  0.0987
13147TIP3    H160932   6.143   3.739  16.550 -1.1602  0.2096  0.2842
13147TIP3    H260933   6.155   3.863  16.464  1.7426 -0.7712 -0.8328
13148TIP3   OH260934   1.564   2.260  11.337  0.6628  0.3014 -0.1690
13148TIP3    H160935   1.525   2.297  11.258 -3.6165 -1.4267  0.8379
13148TIP3    H260936   1.604   2.178  11.308  2.2561  1.3340 -1.0024
13149TIP3   OH260937   5.066   3.515   1.378  0.1491 -0.0622 -0.8976
13149TIP3    H160938   5.119   3.594   1.389 -2.1036  1.4034  0.1765
13149TIP3    H260939   5.080   3.465   1.458 -0.1121  0.3299 -0.6082
13150TIP3   OH260940   1.656   5.821  12.904 -0.3220 -0.5652 -0.2408
13150TIP3    H160941   1.646   5.841  12.997 -0.4348 -1.0518 -0.1456
13150TIP3    H260942   1.689   5.731  12.902  0.2595 -0.3435 -0.6569
13151TIP3   OH260943   6.022   2.662  10.922  0.5418  0.0983  0.1459
13151TIP3    H160944   6.099   2.605  10.924  1.9191  1.8814  2.4691
13151TIP3    H260945   5.999   2.675  11.014 -1.0734  1.5442 -0.4044
13152TIP3   OH260946   4.678   5.742  16.386 -0.2717 -0.0802  0.0570
13152TIP3    H160947   4.643   5.733  16.297 -1.2775 -2.0719  0.6001
13152TIP3    H260948   4.602   5.727  16.443  0.6351 -0.2595  1.2571
13153TIP3   OH260949   3.834   5.443   1.671 -0.2427 -0.1032 -0.6446
13153TIP3    H160950   3.811   5.462   1.762 -0.4701 -0.1276 -0.6959
13153TIP3    H260951   3.796   5.516   1.621 -1.3574 -0.8166 -0.8712
13154TIP3   OH260952   1.832   5.673  15.281 -0.7992 -0.2427  0.4205
13154TIP3    H160953   1.864   5.743  15.224 -0.4193 -1.3755 -0.8161
13154TIP3    H260954   1.743   5.698  15.304  0.3545  2.2672  2.7425
13155TIP3   OH260955   2.406   3.515  15.840 -0.0409 -0.0047 -0.0589
13155TIP3    H160956   2.394   3.466  15.921 -3.0530 -0.8005 -0.8376
13155TIP3    H260957   2.389   3.451  15.770  1.8386  0.8069 -1.3468
13156TIP3   OH260958   1.167   4.463   4.386 -0.0593 -0.0002 -0.0132
13156TIP3    H160959   1.124   4.393   4.336  1.2149  0.2940 -1.5781
13156TIP3    H260960   1.255   4.429   4.403 -0.6679 -0.4530  2.8604
13157TIP3   OH260961   2.338   1.861  12.225 -0.0702 -0.6505  0.6547
13157TIP3    H160962   2.404   1.930  12.238 -0.1670 -0.0462 -1.5818
13157TIP3    H260963   2.337   1.813  12.307  0.2353  1.8133  2.2163
13158TIP3   OH260964   5.062   5.678   0.983 -0.1448  0.1677  0.0533
13158TIP3    H160965   5.118   5.727   0.923  0.1251 -1.7568 -1.3597
13158TIP3    H260966   4.974   5.711   0.966 -0.0221 -0.0804 -1.1479
13159TIP3   OH260967   2.022   2.975   1.008  0.3074 -0.2159 -0.0490
13159TIP3    H160968   2.049   2.963   1.099  1.4516  0.4259 -0.2756
13159TIP3    H260969   2.012   3.069   0.998  2.0183 -0.0832 -1.0293
13160TIP3   OH260970   4.140   1.998  11.962 -0.6543 -0.0762  0.0348
13160TIP3    H160971   4.085   2.072  11.987  0.4200  1.0482 -0.7611
13160TIP3    H260972   4.218   2.007  12.016 -0.6386 -0.8014  0.1387
13161TIP3   OH260973   2.865   0.575  16.596  0.1879  0.3303 -0.4456
13161TIP3    H160974   2.823   0.660  16.607  0.6823  0.4418  0.7561
13161TIP3    H260975   2.958   0.591  16.614  0.1023 -0.6767  1.1627
13162TIP3   OH260976   2.473   3.856  13.742 -0.0008  0.4571  0.2392
13162TIP3    H160977   2.508   3.894  13.823  0.8509 -0.8271  0.4934
13162TIP3    H260978   2.385   3.894  13.734  0.0360  0.8713  1.5692
13163TIP3   OH260979   4.340   5.719   4.966  0.0605 -0.0304 -0.1715
13163TIP3    H160980   4.304   5.803   4.995 -0.3080 -0.2004 -0.1229
13163TIP3    H260981   4.352   5.729   4.872 -0.8981 -0.2472 -0.3278
13164TIP3   OH260982   6.712   3.373   0.294 -0.2590  0.5104 -0.0570
13164TIP3    H160983   6.799   3.333   0.292 -0.6516 -0.4946  1.4047
13164TIP3    H260984   6.685   3.375   0.202  1.0024  0.1635 -0.4541
13165TIP3   OH260985   4.772   6.122   5.821 -0.1143 -0.4449  0.7053
13165TIP3    H160986   4.778   6.094   5.730 -0.4525  0.4254  0.4003
13165TIP3    H260987   4.803   6.047   5.872 -2.8130 -2.1476  0.0578
13166TIP3   OH260988   4.340   3.565   2.789  0.8400  0.3904  0.4146
13166TIP3    H160989   4.324   3.473   2.767  3.1839  0.4447 -2.0370
13166TIP3    H260990   4.410   3.562   2.854  1.9918  0.4115 -0.7868
13167TIP3   OH260991   4.103   2.318   5.322  0.4062 -0.3317  0.4164
13167TIP3    H160992   4.150   2.357   5.249  0.6746 -1.1189  0.1583
13167TIP3    H260993   4.044   2.387   5.353  0.0597 -0.0890 -0.7382
13168TIP3   OH260994   1.237   6.208  16.273 -0.3343  0.4089  0.5048
13168TIP3    H160995   1.155   6.158  16.274  0.6113 -1.2357  0.3787
13168TIP3    H260996   1.304   6.144  16.298  0.7608  2.0226  1.9675
13169TIP3   OH260997   4.831   4.774   3.207  0.6095 -0.3073 -0.5080
13169TIP3    H160998   4.874   4.761   3.291  0.5732  1.0148 -0.2673
13169TIP3    H260999   4.740   4.748   3.222  0.6904 -0.4341 -0.2340
13170TIP3   OH261000   5.757   1.863   0.317  0.3212  0.7613  0.3006
13170TIP3    H161001   5.712   1.944   0.340  0.5844  0.7547  0.8587
13170TIP3    H261002   5.706   1.794   0.360  0.0033  0.6126 -0.3075
13171TIP3   OH261003   1.711   4.905  13.667  0.4374 -0.1735  0.1738
13171TIP3    H161004   1.765   4.894  13.745 -0.6096  2.6841  1.4069
13171TIP3    H261005   1.760   4.966  13.612 -0.1350  0.0534 -0.0911
13172TIP3   OH261006   4.439   5.440  14.035 -0.3683  0.7840 -0.3951
13172TIP3    H161007   4.427   5.347  14.051 -1.3445  1.0929  0.7844
13172TIP3    H261008   4.392   5.456  13.953  0.9505  0.0037 -1.3317
13173TIP3   OH261009   6.533   3.823   5.799  0.1452  0.0881  0.1008
13173TIP3    H161010   6.515   3.873   5.879 -0.3563 -2.2530  1.5411
13173TIP3    H261011   6.573   3.742   5.830 -0.6585 -1.1771 -1.9714
13174TIP3   OH261012   5.888   5.868  13.596 -0.1564  0.1133  0.2639
13174TIP3    H161013   5.896   5.801  13.664  1.7281 -0.2940 -0.2957
13174TIP3    H261014   5.797   5.897  13.602 -0.4155 -0.8872  2.0210
13175TIP3   OH261015   0.206   6.297  16.608 -0.0820 -0.5397  1.1909
13175TIP3    H161016   0.127   6.301  16.662 -0.8425 -0.6461  0.1147
13175TIP3    H261017   0.218   6.204  16.589  0.3064 -0.5236  1.3620
13176TIP3   OH261018   3.100   4.904  15.954 -0.3164 -0.2893 -0.2895
13176TIP3    H161019   3.033   4.971  15.965  0.2364  0.0946  0.8386
13176TIP3    H261020   3.114   4.869  16.042  0.5747 -0.7485 -0.6021
13177TIP3   OH261021   1.099   5.061  13.541 -0.1412  0.1693  0.1184
13177TIP3    H161022   1.191   5.059  13.567  0.3240 -1.8294 -1.4524
13177TIP3    H261023   1.052   5.028  13.618  0.5560  0.1859  0.5666
13178TIP3   OH261024   1.608   6.269   2.267 -0.3918  0.3615  0.3252
13178TIP3    H161025   1.545   6.250   2.198  0.8863  0.4781 -0.9330
13178TIP3    H261026   1.661   6.190   2.273  1.9966  1.6719 -1.6588
13179TIP3   OH261027   5.570   0.514   6.233  0.2317 -0.2489 -0.4754
13179TIP3    H161028   5.547   0.566   6.157 -1.8260 -0.8903 -0.3397
13179TIP3    H261029   5.636   0.567   6.279 -0.9462  1.7164 -0.9276
13180TIP3   OH261030   5.592   3.879  12.501 -0.6920 -0.1599  0.6145
13180TIP3    H161031   5.625   3.906  12.415  0.7532  2.8065  1.9367
13180TIP3    H261032   5.664   3.829  12.540 -0.2134  0.8726  1.0967
13181TIP3   OH261033   4.190   4.876  15.661  0.0102  0.2922 -0.1170
13181TIP3    H161034   4.233   4.825  15.729  1.1485  2.2440  0.7161
13181TIP3    H261035   4.147   4.811  15.606  0.9414 -1.5013  1.1656
13182TIP3   OH261036   3.052   0.269   2.394 -0.2420  0.8307 -0.0730
13182TIP3    H161037   3.015   0.267   2.306 -3.1567 -0.8498  1.0384
13182TIP3    H261038   3.080   0.179   2.410  1.1808  1.3381  0.3782
13183TIP3   OH261039   1.253   2.400   5.450 -0.0330 -0.1286 -0.3630
13183TIP3    H161040   1.275   2.490   5.476  1.2137  0.2996 -2.6857
13183TIP3    H261041   1.285   2.346   5.523 -1.0416  1.2646  1.1999
13184TIP3   OH261042   6.310   6.360  16.789  0.6687  0.0463 -0.2475
13184TIP3    H161043   6.336   6.268  16.788 -1.4604 -0.6046 -0.3293
13184TIP3    H261044   6.376   6.404  16.736  1.8512 -1.3759 -0.0363
13185TIP3   OH261045   4.192   0.908  16.074  0.6395 -0.3484 -0.4440
13185TIP3    H161046   4.274   0.925  16.027  1.2953 -2.2354 -0.0626
13185TIP3    H261047   4.195   0.815  16.094 -2.2287 -0.7480 -1.5401
13186TIP3   OH261048   1.504   1.200  12.635  0.1287 -0.4670 -0.5340
13186TIP3    H161049   1.559   1.277  12.620  0.9689 -1.0608 -0.5886
13186TIP3    H261050   1.504   1.188  12.730 -0.3453 -0.1524 -0.4949
13187TIP3   OH261051   2.996   0.242  16.717 -0.0214 -0.0498  0.1447
13187TIP3    H161052   3.088   0.230  16.694  0.4158  1.0581  1.2512
13187TIP3    H261053   2.958   0.287  16.642  0.7970  1.2223  0.4634
13188TIP3   OH261054   6.785   5.594   6.140  0.7684  0.2548 -0.3830
13188TIP3    H161055   6.836   5.673   6.160 -0.3116  0.8853 -0.0603
13188TIP3    H261056   6.818   5.565   6.055  3.5758 -0.9310  0.9848
13189TIP3   OH261057   2.974   3.867  14.040  0.4033 -0.4489 -0.5752
13189TIP3    H161058   3.005   3.957  14.053 -1.0812 -0.1743  1.8156
13189TIP3    H261059   2.962   3.859  13.946  0.1463  2.0283 -0.8294
13190TIP3   OH261060   3.781   4.047   6.369 -0.3074  1.3104  0.2741
13190TIP3    H161061   3.788   3.998   6.451  0.4863  0.3928 -0.3269
13190TIP3    H261062   3.753   4.134   6.396 -0.5826  0.8690  1.4723
13191TIP3   OH261063   3.245   0.411   3.354 -0.6213 -0.3961  0.0998
13191TIP3    H161064   3.320   0.450   3.400 -1.7048 -1.0911  2.6807
13191TIP3    H261065   3.275   0.323   3.330  0.1465  0.1719 -1.1017
13192TIP3   OH261066   4.558   5.949   3.178  0.2365 -0.5108 -0.5785
13192TIP3    H161067   4.594   5.897   3.250  0.9933 -1.5225 -1.6507
13192TIP3    H261068   4.471   5.912   3.162 -0.1382  0.0503  0.1403
13193TIP3   OH261069   0.691   0.491  15.785  0.2090 -0.0301 -0.0764
13193TIP3    H161070   0.613   0.476  15.838 -2.0435  0.3644 -2.9835
13193TIP3    H261071   0.721   0.404  15.760 -0.3152 -0.1571 -0.2698
13194TIP3   OH261072   2.629   2.493  14.459 -0.7034  0.1629 -0.0676
13194TIP3    H161073   2.645   2.497  14.365 -0.5292 -3.0394 -0.2826
13194TIP3    H261074   2.712   2.463  14.496 -1.0126  0.6346  1.0494
13195TIP3   OH261075   5.624   6.437   3.191 -0.2020 -0.5452 -0.1516
13195TIP3    H161076   5.700   6.412   3.244  0.4354 -0.9285 -1.2066
13195TIP3    H261077   5.549   6.419   3.247  0.5086  1.7756  1.7279
13196TIP3   OH261078   5.766   5.055  11.833  0.2351  0.0232  0.2937
13196TIP3    H161079   5.775   5.149  11.847 -1.1732  0.2838 -0.3846
13196TIP3    H261080   5.808   5.016  11.909  0.2189  1.2188  0.9500
13197TIP3   OH261081   6.121   3.475  12.086 -0.4250 -0.6781  0.1098
13197TIP3    H161082   6.122   3.382  12.063  0.2108 -0.2695 -1.6208
13197TIP3    H261083   6.129   3.521  12.002  0.1759  0.9297  1.0077
13198TIP3   OH261084   0.687   3.524   2.473 -0.4263 -0.0979 -0.0828
13198TIP3    H161085   0.718   3.582   2.542  0.8056  0.0291 -0.7255
13198TIP3    H261086   0.702   3.572   2.392 -0.6006 -0.7894 -0.5341
13199TIP3   OH261087   5.354   1.078   2.710  0.6501  0.1586 -0.5055
13199TIP3    H161088   5.356   1.033   2.794 -0.5142  0.3029 -0.3927
13199TIP3    H261089   5.425   1.038   2.660 -0.2820 -1.7566 -0.3763
13200TIP3   OH261090   0.848   6.705  16.093  0.2956 -0.4469  0.1776
13200TIP3    H161091   0.759   6.686  16.121  0.4099 -0.5898  0.4523
13200TIP3    H261092   0.888   6.748  16.169  0.5161 -0.5514  0.1220
13201TIP3   OH261093   5.615   3.566  16.740  0.2278  0.2476 -0.2210
13201TIP3    H161094   5.685   3.545  16.801  2.3536  0.9785 -2.2502
13201TIP3    H261095   5.582   3.651  16.768  0.3889  0.0517  0.5721
13202TIP3   OH261096   4.406   6.722  16.346 -0.6215 -0.6455 -0.3393
13202TIP3    H161097   4.427   6.636  16.383 -0.5310 -0.2305  0.6257
13202TIP3    H261098   4.458   6.727  16.266 -0.2137 -1.2779 -0.1232
13203TIP3   OH261099   3.681   6.494   5.967 -0.5708  0.3899 -0.0153
13203TIP3    H161100   3.718   6.408   5.947 -1.7028 -0.2416  0.4662
13203TIP3    H261101   3.726   6.554   5.908  1.4336 -0.2465  0.7717
13204TIP3   OH261102   1.447   2.037   3.271  0.1338  0.2820 -0.4536
13204TIP3    H161103   1.436   2.010   3.180  0.7098  1.5523 -0.9250
13204TIP3    H261104   1.541   2.031   3.287  0.3303  2.0447 -0.6422
13205TIP3   OH261105   6.694   3.630   1.719 -0.2660 -0.6371  0.3992
13205TIP3    H161106   6.740   3.687   1.658 -0.0049 -0.8680  0.3773
13205TIP3    H261107   6.746   3.635   1.800 -1.5068  0.9617  1.1619
13206TIP3   OH261108   0.330   2.174   5.972  0.7766 -0.0049  0.4889
13206TIP3    H161109   0.354   2.085   6.000  0.3718 -0.5016 -0.6793
13206TIP3    H261110   0.239   2.183   5.998  0.2488 -0.6495 -0.9954
13207TIP3   OH261111   1.766   5.267   0.115 -0.0551 -0.0202 -0.0495
13207TIP3    H161112   1.685   5.310   0.086  0.0894  0.9759  0.9654
13207TIP3    H261113   1.738   5.211   0.187  0.2902  1.1518  1.0341
13208TIP3   OH261114   3.448   3.680   4.611 -0.0131  0.0352  0.4170
13208TIP3    H161115   3.505   3.688   4.688  1.7341  2.2922 -0.9976
13208TIP3    H261116   3.493   3.617   4.555  0.4345  0.8392 -0.1399
13209TIP3   OH261117   0.750   3.066  12.178 -1.0985  0.0186  0.5950
13209TIP3    H161118   0.815   3.131  12.151 -0.6059 -0.1442  1.3570
13209TIP3    H261119   0.756   3.065  12.274  0.1995 -2.4623  0.5469
13210TIP3   OH261120   5.308   5.289   3.999 -0.0840 -0.3887 -0.1202
13210TIP3    H161121   5.352   5.318   3.920  1.3819 -0.5427  0.6026
13210TIP3    H261122   5.378   5.256   4.055 -0.9222  0.7755  1.7198
13211TIP3   OH261123   2.789   6.023   4.837 -0.6745  0.6226 -0.3334
13211TIP3    H161124   2.727   6.095   4.825 -0.8840  0.4077 -0.5320
13211TIP3    H261125   2.838   6.047   4.916 -1.9494  0.1162  0.6479
13212TIP3   OH261126   0.434   4.331  14.586 -0.2294 -0.0665 -0.4060
13212TIP3    H161127   0.380   4.315  14.663 -0.5455 -1.1675 -0.8462
13212TIP3    H261128   0.415   4.259  14.527 -0.4808  1.1023 -1.8071
13213TIP3   OH261129   0.283   2.052   1.364 -0.3968 -0.0481  0.5693
13213TIP3    H161130   0.198   2.096   1.359  0.3300  1.3379 -0.5702
13213TIP3    H261131   0.303   2.048   1.457 -1.0267  0.9929  0.7620
13214TIP3   OH261132   5.925   1.181   2.440  0.2252  0.1269  0.1323
13214TIP3    H161133   6.009   1.138   2.456  0.8062  0.4828 -1.7218
13214TIP3    H261134   5.916   1.181   2.345 -0.9096  1.9252  0.2013
13215TIP3   OH261135   2.125   0.316   6.173  0.1082 -0.3054 -0.1705
13215TIP3    H161136   2.078   0.250   6.224  1.0346 -0.3441  0.6697
13215TIP3    H261137   2.101   0.297   6.082 -1.5203 -0.2714  0.2237
13216TIP3   OH261138   5.018   6.041  16.358  0.3263  0.3712 -0.2002
13216TIP3    H161139   5.057   5.995  16.432  0.4648  0.9741  0.1106
13216TIP3    H261140   5.083   6.107  16.335  0.2124  0.2933 -0.7587
13217TIP3   OH261141   5.571   1.020  10.934  0.1491  0.0562  0.0399
13217TIP3    H161142   5.618   1.003  11.016 -1.1851  1.8893  1.2833
13217TIP3    H261143   5.637   1.050  10.873  1.0007 -0.1430  0.8446
13218TIP3   OH261144   5.951   3.019   3.426 -0.4495 -0.1081  0.4131
13218TIP3    H161145   5.994   3.076   3.490  0.2377 -1.6421  1.3709
13218TIP3    H261146   5.863   3.005   3.462 -0.0379 -1.0319  1.0809
13219TIP3   OH261147   2.571   1.378  15.056 -0.5318  0.6506  0.6566
13219TIP3    H161148   2.518   1.455  15.077 -2.5045 -0.7379  1.1224
13219TIP3    H261149   2.545   1.355  14.966 -1.8658 -0.8280  1.3537
13220TIP3   OH261150   5.974   6.188   0.936 -0.4332  0.4560 -0.4300
13220TIP3    H161151   5.987   6.160   0.846 -0.4031  0.9740 -0.5920
13220TIP3    H261152   6.062   6.209   0.968 -0.3517 -0.4470 -0.0296
13221TIP3   OH261153   0.601   3.692  14.215 -0.1954 -0.4031  0.2155
13221TIP3    H161154   0.692   3.669  14.235 -0.3824  0.8325  2.9673
13221TIP3    H261155   0.550   3.650  14.284 -1.4693  0.7345  0.0073
13222TIP3   OH261156   0.307   1.542  11.686  0.2199 -0.2908  0.1628
13222TIP3    H161157   0.382   1.576  11.637  1.7839 -1.4587  1.6193
13222TIP3    H261158   0.320   1.447  11.686 -0.6634 -0.4310  1.3344
13223TIP3   OH261159   6.636   3.676   1.182 -0.3947  0.6904  0.2213
13223TIP3    H161160   6.609   3.594   1.223 -0.9240  1.4281  1.4019
13223TIP3    H261161   6.581   3.684   1.104  0.2008 -0.4334 -0.3381
13224TIP3   OH261162   5.911   3.409  15.823  0.8257 -0.0098  0.2567
13224TIP3    H161163   5.987   3.379  15.773  0.1117 -2.0492  0.3321
13224TIP3    H261164   5.917   3.505  15.819  2.2622 -0.1108 -1.4528
13225TIP3   OH261165   3.127   3.681  16.112  0.1357  0.4256  0.2034
13225TIP3    H161166   3.175   3.763  16.123  0.3940  0.2335  0.5508
13225TIP3    H261167   3.055   3.702  16.053  0.9744  0.5939 -0.8025
13226TIP3   OH261168   1.791   3.084   1.129 -0.2091 -0.5043 -0.1086
13226TIP3    H161169   1.789   3.010   1.189  2.4823  1.0601  2.1172
13226TIP3    H261170   1.822   3.046   1.046  3.2737 -1.6425  1.5508
13227TIP3   OH261171   6.001   4.896  14.793  0.3950 -0.4089  0.0483
13227TIP3    H161172   5.929   4.955  14.770  0.2047 -0.4509  0.5268
13227TIP3    H261173   5.958   4.815  14.820  0.6392 -0.5879 -0.0980
13228TIP3   OH261174   4.348   3.938   2.148  0.2893 -0.0636  0.0333
13228TIP3    H161175   4.442   3.947   2.167  0.8650  0.9760 -2.7992
13228TIP3    H261176   4.320   3.865   2.203  2.9269 -0.8638  0.4829
13229TIP3   OH261177   3.538   4.539  12.426 -0.1002  0.4333 -0.3297
13229TIP3    H161178   3.624   4.581  12.418  0.1115  0.3372  1.1372
13229TIP3    H261179   3.538   4.472  12.359  1.0050  0.4010 -0.3195
13230TIP3   OH261180   1.507   4.403   1.302 -0.0366  0.4478  0.1326
13230TIP3    H161181   1.467   4.476   1.254  0.5549  1.9350  1.8054
13230TIP3    H261182   1.434   4.359   1.344 -0.2272  1.2974  0.7093
13231TIP3   OH261183   0.113   1.657  11.840  0.2927 -0.1633  0.1239
13231TIP3    H161184   0.198   1.626  11.811 -0.0196 -2.7284  1.6128
13231TIP3    H261185   0.101   1.617  11.927 -1.6149  1.6706  0.8065
13232TIP3   OH261186   5.500   0.191  11.170  0.6500 -0.3375  0.1119
13232TIP3    H161187   5.505   0.097  11.188  0.0892 -0.2395  0.8533
13232TIP3    H261188   5.433   0.200  11.103  1.2851 -0.5301 -0.5606
13233TIP3   OH261189   0.129   2.365  17.254 -0.6831  0.1339  0.0323
13233TIP3    H161190   0.087   2.446  17.226 -0.6695 -0.1837 -0.9625
13233TIP3    H261191   0.076   2.336  17.329 -0.7401  1.0013  0.3391
13234TIP3   OH261192   1.920   2.476  16.536 -0.3128  0.2189 -1.0521
13234TIP3    H161193   1.917   2.569  16.516  0.0469  0.6542  0.7793
13234TIP3    H261194   1.828   2.453  16.554 -0.2888  0.4365 -0.6345
13235TIP3   OH261195   0.637   1.124  12.698 -0.1748 -1.0011 -0.3918
13235TIP3    H161196   0.552   1.105  12.737 -0.1371  0.0508  0.2324
13235TIP3    H261197   0.618   1.137  12.605 -0.7503 -0.4593 -0.2040
13236TIP3   OH261198   1.367   4.171  12.537 -0.4697 -0.2627 -0.3110
13236TIP3    H161199   1.352   4.162  12.631 -2.1773  0.0505 -0.5079
13236TIP3    H261200   1.448   4.124  12.520  1.9553  2.7215  1.8899
13237TIP3   OH261201   3.558   6.729  11.239  0.2299  0.0151  0.3865
13237TIP3    H161202   3.578   6.709  11.148 -1.4678  3.4207 -0.9256
13237TIP3    H261203   3.641   6.755  11.278  0.5804  1.3074 -1.1129
13238TIP3   OH261204   6.104   2.387   0.820  0.2594  0.3765  0.4210
13238TIP3    H161205   6.049   2.427   0.888  0.4230  0.5358  0.4600
13238TIP3    H261206   6.153   2.320   0.866  1.9438  1.8760  0.9260
13239TIP3   OH261207   0.544   1.534   2.173 -0.2467  0.3190  0.2695
13239TIP3    H161208   0.586   1.606   2.220  1.0317  0.6260 -1.2600
13239TIP3    H261209   0.502   1.483   2.242 -0.1474  1.8372  1.5211
13240TIP3   OH261210   6.672   6.439  15.624 -0.3732 -0.3648  0.0742
13240TIP3    H161211   6.737   6.486  15.572 -0.0329 -0.5570  0.3197
13240TIP3    H261212   6.612   6.402  15.560  0.4811 -1.2612 -0.2432
13241TIP3   OH261213   1.927   4.400  14.231 -0.2572  0.2377 -0.1620
13241TIP3    H161214   1.975   4.420  14.312  2.0823 -2.7091 -0.6421
13241TIP3    H261215   1.842   4.367  14.261  1.2412 -2.6023  1.3742
13242TIP3   OH261216   3.561   1.856   4.693 -0.0508  0.2539  0.0405
13242TIP3    H161217   3.642   1.822   4.731 -0.4093 -1.4937 -0.6663
13242TIP3    H261218   3.564   1.950   4.710  1.8041  0.1294  0.6055
13243TIP3   OH261219   1.384   0.436   2.923  0.4923  0.2314 -0.0835
13243TIP3    H161220   1.365   0.351   2.961 -1.0228  0.7890  0.5075
13243TIP3    H261221   1.366   0.499   2.994  0.0775  1.1250 -0.9527
13244TIP3   OH261222   1.401   2.685  15.888  0.0278  0.0683  0.3725
13244TIP3    H161223   1.414   2.778  15.907  0.9522 -0.3878  2.2241
13244TIP3    H261224   1.317   2.681  15.842 -1.5562  1.5718  2.9209
13245TIP3   OH261225   4.669   3.907   3.257 -0.2677 -0.7872  0.0149
13245TIP3    H161226   4.580   3.893   3.290  0.0087 -2.0894  0.2552
13245TIP3    H261227   4.726   3.875   3.326  0.3614 -1.4693 -0.7960
13246TIP3   OH261228   3.368   1.374   2.573 -1.0199  0.3441 -0.6533
13246TIP3    H161229   3.346   1.281   2.569 -2.2039  0.5427  0.3485
13246TIP3    H261230   3.446   1.383   2.520 -2.3041 -0.7904 -2.8759
13247TIP3   OH261231   1.528   4.276   0.549  0.0781 -0.4686 -0.4190
13247TIP3    H161232   1.536   4.186   0.580 -1.4771 -0.6378 -0.4360
13247TIP3    H261233   1.615   4.314   0.562  0.1964 -1.3269  1.6235
13248TIP3   OH261234   1.199   6.469  12.451 -0.2448 -0.2100  0.1265
13248TIP3    H161235   1.215   6.481  12.358  0.1115 -1.3293  0.0293
13248TIP3    H261236   1.104   6.476  12.460 -0.1506  1.9477  0.0206
13249TIP3   OH261237   0.160   2.517   5.004 -0.7817  0.5717 -0.1007
13249TIP3    H161238   0.239   2.488   4.958 -0.2769  0.4138  0.8571
13249TIP3    H261239   0.108   2.560   4.936  0.2552  0.9469 -0.6808
13250TIP3   OH261240   1.610   1.397  14.011 -0.5097 -0.3233  0.1213
13250TIP3    H161241   1.649   1.436  14.089 -0.3690  0.2584 -0.2338
13250TIP3    H261242   1.669   1.325  13.988  1.2262  1.4426 -1.2740
13251TIP3   OH261243   0.932   1.866   4.488 -0.0999 -0.5186 -0.0303
13251TIP3    H161244   0.958   1.956   4.467  0.0174 -0.2538  1.1773
13251TIP3    H261245   0.908   1.869   4.581 -0.0716 -1.7434  0.0322
13252TIP3   OH261246   3.636   2.943  14.780 -0.2815  0.1004 -0.1118
13252TIP3    H161247   3.657   2.902  14.864 -0.9875  0.8728  0.4544
13252TIP3    H261248   3.585   3.021  14.803 -1.4656 -0.2879 -1.3049
13253TIP3   OH261249   1.580   1.785   0.730  0.0619  0.5627 -0.0750
13253TIP3    H161250   1.605   1.775   0.638 -2.1679 -0.3036 -0.6765
13253TIP3    H261251   1.579   1.879   0.744  0.1822  0.7234 -1.0287
13254TIP3   OH261252   1.353   0.808   2.129 -0.0923  0.0314  0.2436
13254TIP3    H161253   1.272   0.838   2.088 -1.0626  0.0923  2.0861
13254TIP3    H261254   1.406   0.887   2.136 -0.9720  0.5543  1.3906
13255TIP3   OH261255   1.159   3.502   5.126 -0.2686  0.3497 -0.2316
13255TIP3    H161256   1.167   3.526   5.219 -0.4071  0.2274 -0.1882
13255TIP3    H261257   1.120   3.415   5.127  0.3067  0.0857 -0.3864
13256TIP3   OH261258   1.746   4.833  11.560  0.1111  0.1341 -0.0282
13256TIP3    H161259   1.773   4.752  11.602  2.3154  0.9387  0.2755
13256TIP3    H261260   1.752   4.899  11.629  1.7917  1.1180 -1.0495
13257TIP3   OH261261   2.308   3.036   4.650 -0.7545  0.3860  0.5198
13257TIP3    H161262   2.221   3.045   4.612 -0.5517  1.2765  0.2441
13257TIP3    H261263   2.351   3.119   4.631  0.2056 -0.1014  0.5294
13258TIP3   OH261264   2.868   4.829  14.500  0.8994 -0.1509  0.2244
13258TIP3    H161265   2.806   4.828  14.574 -0.0514  0.4917 -0.5430
13258TIP3    H261266   2.951   4.799  14.538  0.2537 -0.5256  1.3944
13259TIP3   OH261267   2.922   0.569   3.084  0.0634 -0.4775 -0.1235
13259TIP3    H161268   2.874   0.649   3.062  1.3107  0.0311 -1.0601
13259TIP3    H261269   2.904   0.555   3.177 -1.8632 -0.2919 -0.4204
13260TIP3   OH261270   0.490   4.005   4.990 -0.4500  0.0717  0.1074
13260TIP3    H161271   0.433   3.940   5.031 -1.5585  0.4659 -0.7702
13260TIP3    H261272   0.496   3.978   4.898  1.4452 -0.4152  0.3289
13261TIP3   OH261273   0.808   3.284   2.966  0.0654  0.4492 -0.3692
13261TIP3    H161274   0.868   3.241   2.906 -0.1358 -0.6651  0.2055
13261TIP3    H261275   0.736   3.222   2.978 -1.2238  1.7367 -1.0251
13262TIP3   OH261276   2.714   2.349  16.846  0.0849 -0.3833  0.6308
13262TIP3    H161277   2.630   2.339  16.891 -1.2309  0.0290 -1.5654
13262TIP3    H261278   2.737   2.261  16.816  0.0567 -0.3831  0.6085
13263TIP3   OH261279   1.309   0.612   2.329  0.0880  0.3860 -0.2146
13263TIP3    H161280   1.326   0.668   2.254  0.3507  1.9224  0.9263
13263TIP3    H261281   1.225   0.643   2.364 -1.1937 -1.8163 -1.1474
13264TIP3   OH261282   1.614   3.141   0.502  0.3820 -0.6648  0.0527
13264TIP3    H161283   1.570   3.164   0.584  0.3024  1.6093 -0.5628
13264TIP3    H261284   1.707   3.147   0.522  0.3624 -0.1290 -0.0050
13265TIP3   OH261285   1.174   2.164  14.578 -0.4045 -0.1375  0.4333
13265TIP3    H161286   1.211   2.121  14.656 -0.3024 -0.5604  0.1544
13265TIP3    H261287   1.227   2.242  14.567  1.3111 -1.3920 -0.7275
13266TIP3   OH261288   1.026   4.005   3.944  0.2768  0.0151 -0.4320
13266TIP3    H161289   1.001   3.920   3.907  1.4865 -0.2937 -0.5508
13266TIP3    H261290   1.113   4.022   3.910  1.4806 -0.2824  2.1929
13267TIP3   OH261291   4.279   1.215   1.405 -0.0614 -0.6075 -0.4450
13267TIP3    H161292   4.238   1.301   1.395 -0.8302 -1.1438 -2.5238
13267TIP3    H261293   4.355   1.218   1.346 -0.1931 -1.3946 -0.6693
13268TIP3   OH261294   2.035   1.936  14.130  0.0864 -0.8964  0.0809
13268TIP3    H161295   1.974   1.994  14.084  1.4984  2.0703  1.7081
13268TIP3    H261296   2.101   1.914  14.064  1.0597  1.7485  0.0874
13269TIP3   OH261297   0.933   0.640   1.034  0.1958  1.1747 -0.0965
13269TIP3    H161298   0.928   0.590   0.953  0.1990 -0.0618  0.6292
13269TIP3    H261299   0.889   0.722   1.015 -2.0465 -0.0783 -0.6518
13270TIP3   OH261300   5.178   1.319   5.712 -0.7722  0.2228  0.6821
13270TIP3    H161301   5.223   1.403   5.721 -0.9597  0.3581  0.3682
13270TIP3    H261302   5.103   1.325   5.771 -0.0576 -0.2333  1.6688
13271TIP3   OH261303   6.155   5.020  16.808  0.3179  0.5991  0.1315
13271TIP3    H161304   6.070   5.051  16.840 -0.4610  0.2575 -1.4841
13271TIP3    H261305   6.136   4.934  16.770  0.8939  1.4250 -2.2040
13272TIP3   OH261306   3.868   4.954  15.056  0.1137  0.1365 -0.7531
13272TIP3    H161307   3.775   4.975  15.063  0.0224  0.5919 -2.7796
13272TIP3    H261308   3.871   4.858  15.055 -0.3522  0.1246 -0.9691
13273TIP3   OH261309   5.246   3.365   5.365 -0.3525 -0.6504 -0.2497
13273TIP3    H161310   5.220   3.423   5.294 -0.5616 -0.6856 -0.2040
13273TIP3    H261311   5.179   3.297   5.366 -0.4271 -0.5759  0.0680
13274TIP3   OH261312   6.064   5.285  13.807  0.3477  0.2621  0.4514
13274TIP3    H161313   6.158   5.268  13.800  0.7534  2.5829 -0.8132
13274TIP3    H261314   6.058   5.365  13.859 -0.7878  0.9901 -0.7386
13275TIP3   OH261315   1.248   5.155  11.871 -0.3784  0.7508 -0.1706
13275TIP3    H161316   1.206   5.108  11.799  1.0761  1.1465 -1.3187
13275TIP3    H261317   1.229   5.247  11.854 -1.1453  0.7822  0.7265
13276TIP3   OH261318   2.691   3.361  15.909 -0.2257 -0.0195  0.6143
13276TIP3    H161319   2.700   3.366  16.004 -0.6627  2.9655  0.5923
13276TIP3    H261320   2.686   3.452  15.880 -1.3217 -0.8514 -2.1754
13277TIP3   OH261321   2.099   0.330   3.204  0.0950  0.2316 -0.1050
13277TIP3    H161322   2.081   0.424   3.203 -0.4290  0.1374 -1.6643
13277TIP3    H261323   2.015   0.289   3.225  0.1653  0.0722 -0.1356
13278TIP3   OH261324   2.286   4.032   4.781 -0.3491  0.0065 -0.0480
13278TIP3    H161325   2.312   3.974   4.710 -1.8068 -3.3684  1.9056
13278TIP3    H261326   2.299   3.980   4.860  1.3166  3.5947  2.2928
13279TIP3   OH261327   6.636   6.593   3.496 -0.3768 -0.1218 -0.0091
13279TIP3    H161328   6.579   6.666   3.473  2.1521  1.9604 -0.1087
13279TIP3    H261329   6.669   6.615   3.583 -1.3630 -2.4284  1.0547
13280TIP3   OH261330   0.960   2.369   2.086 -0.2032 -0.3276 -0.8992
13280TIP3    H161331   1.001   2.451   2.112 -0.3234 -0.5782  0.1300
13280TIP3    H261332   1.019   2.301   2.119  0.1817 -0.6637 -2.2219
13281TIP3   OH261333   6.081   4.077  15.083 -0.0977 -0.3650  0.6184
13281TIP3    H161334   6.037   4.043  15.005 -0.9660 -0.8959  1.3246
13281TIP3    H261335   6.150   4.134  15.049  0.5889 -1.8571 -0.5644
13282TIP3   OH261336   3.251   6.114  15.043 -0.5251 -0.5568 -0.6512
13282TIP3    H161337   3.299   6.143  14.966  0.1369 -0.6633 -0.2904
13282TIP3    H261338   3.161   6.105  15.014 -1.1402  3.3088 -0.5064
13283TIP3   OH261339   6.141   4.500   1.768  0.4899 -0.9482 -0.2975
13283TIP3    H161340   6.128   4.476   1.859  0.3287  0.8925  0.2015
13283TIP3    H261341   6.142   4.416   1.721  0.2631 -1.9053  1.3296
13284TIP3   OH261342   1.900   4.406   5.870 -0.3953 -1.3460 -0.3905
13284TIP3    H161343   1.961   4.340   5.901  0.2212 -0.4112  0.4273
13284TIP3    H261344   1.954   4.482   5.848 -1.2175 -0.5509  0.2142
13285TIP3   OH261345   5.772   4.097   4.254  0.2890 -0.1698 -0.0927
13285TIP3    H161346   5.778   4.024   4.193  0.5593  0.0005 -0.2706
13285TIP3    H261347   5.678   4.105   4.273  0.3183 -0.9932  0.4582
13286TIP3   OH261348   1.496   0.704   1.082  0.2402  0.0786 -0.4470
13286TIP3    H161349   1.556   0.689   1.155  1.1338  0.0243 -1.1793
13286TIP3    H261350   1.552   0.731   1.010 -0.5263 -0.7626 -1.3809
13287TIP3   OH261351   1.516   5.996  11.866  0.2920 -0.1619 -0.7821
13287TIP3    H161352   1.597   6.042  11.845 -0.4223  1.7702  0.4488
13287TIP3    H261353   1.448   6.044  11.818 -0.5472  0.5381  1.0096
13288TIP3   OH261354   1.680   3.040  11.261 -0.0465  0.4398  0.1070
13288TIP3    H161355   1.724   2.955  11.261 -0.8521  0.0191  0.3475
13288TIP3    H261356   1.589   3.021  11.281 -0.4832  1.2385 -0.9850
13289TIP3   OH261357   3.157   3.067   5.167  0.4462 -0.2903 -0.5581
13289TIP3    H161358   3.078   3.059   5.220  1.1208 -2.8597  0.1892
13289TIP3    H261359   3.139   3.141   5.108 -1.2231  1.1902  1.6547
13290TIP3   OH261360   3.223   6.383   3.210  0.3885 -0.2946  0.5269
13290TIP3    H161361   3.273   6.439   3.269  1.0639 -0.4257  0.0862
13290TIP3    H261362   3.246   6.414   3.122  1.0133 -1.4391  0.2643
13291TIP3   OH261363   6.695   2.763  12.319 -0.2076 -0.1872 -0.2757
13291TIP3    H161364   6.618   2.802  12.279 -0.3982 -1.2792 -1.0324
13291TIP3    H261365   6.664   2.728  12.402 -0.2626  0.3566 -0.0637
13292TIP3   OH261366   4.592   3.627   6.824  0.0562 -0.8142  0.1999
13292TIP3    H161367   4.610   3.721   6.827  0.5017 -0.8813 -0.4339
13292TIP3    H261368   4.510   3.618   6.873  0.6136 -0.2504  1.2662
13293TIP3   OH261369   4.716   6.452   3.295  0.2143  0.3833 -0.1334
13293TIP3    H161370   4.654   6.392   3.336  1.3680 -1.6342 -1.2130
13293TIP3    H261371   4.712   6.433   3.202  1.9816  0.6229 -0.3031
13294TIP3   OH261372   2.082   1.123  13.807 -0.1142  0.5033  0.0050
13294TIP3    H161373   2.002   1.076  13.782  1.4357 -1.6557 -1.1432
13294TIP3    H261374   2.139   1.057  13.844  1.3859  1.8970  0.2975
13295TIP3   OH261375   1.809   0.111   4.315 -0.1327 -0.2375  0.3140
13295TIP3    H161376   1.736   0.052   4.333  1.3448 -2.4461 -0.3997
13295TIP3    H261377   1.820   0.106   4.220  0.2226  0.9782  0.2840
13296TIP3   OH261378   5.700   6.286   1.355  0.0375 -0.5563  0.1107
13296TIP3    H161379   5.653   6.247   1.429  1.2462  0.4067  1.4449
13296TIP3    H261380   5.631   6.311   1.293 -1.0718 -0.7597  1.2148
13297TIP3   OH261381   4.296   0.843  15.441  0.0472  0.0676  1.0006
13297TIP3    H161382   4.223   0.881  15.392  0.1562 -0.4257  0.4440
13297TIP3    H261383   4.309   0.903  15.514 -0.2967  0.6706  0.5765
13298TIP3   OH261384   0.324   6.360  17.297 -0.0805 -1.0485  0.1626
13298TIP3    H161385   0.243   6.408  17.316 -0.8081 -1.3936 -1.8418
13298TIP3    H261386   0.328   6.356  17.201  2.0951 -1.4305  0.2170
13299TIP3   OH261387   5.340   6.641   4.603 -0.4849  0.4480  0.2658
13299TIP3    H161388   5.427   6.662   4.636 -0.1066 -1.4067  0.5575
13299TIP3    H261389   5.351   6.636   4.508 -0.4382  0.8362  0.2464
13300TIP3   OH261390   1.015   2.747  15.353  0.0235 -0.0128  0.1945
13300TIP3    H161391   1.021   2.662  15.395 -1.1856  0.3709  1.1990
13300TIP3    H261392   1.053   2.734  15.266  1.0499 -1.2314  0.7931
13301TIP3   OH261393   6.269   4.179  10.679  0.0156  0.6452  0.4447
13301TIP3    H161394   6.239   4.269  10.687  0.0940  0.7816 -0.6045
13301TIP3    H261395   6.191   4.130  10.653  0.5894  1.0266 -2.4437
13302TIP3   OH261396   4.019   3.554   3.226  0.3613 -0.0457 -0.7367
13302TIP3    H161397   3.965   3.475   3.225  0.2867  0.0047 -0.5965
13302TIP3    H261398   3.980   3.611   3.159 -0.7243  0.6493  0.4569
13303TIP3   OH261399   6.737   3.336   4.394 -0.5778 -0.1183 -0.6736
13303TIP3    H161400   6.796   3.367   4.463  0.1277  0.1857 -1.4050
13303TIP3    H261401   6.667   3.292   4.441  0.3599 -0.7109  0.1961
13304TIP3   OH261402   6.481   2.062  14.163  0.5301 -0.0009  0.3768
13304TIP3    H161403   6.412   2.066  14.229  0.3403 -0.4247  0.2046
13304TIP3    H261404   6.442   2.103  14.085  0.3995 -0.4098  0.2214
13305TIP3   OH261405   5.968   4.796  16.792  0.0212  0.1469  0.2295
13305TIP3    H161406   5.877   4.768  16.786 -0.2811  1.2023 -0.3534
13305TIP3    H261407   6.015   4.737  16.733 -0.4087  0.0773 -0.0511
13306TIP3   OH261408   4.532   4.777   1.235  0.4452 -0.0459 -0.4972
13306TIP3    H161409   4.504   4.696   1.193  1.2373 -0.6845  0.1771
13306TIP3    H261410   4.615   4.755   1.277  1.0308  1.2978 -0.8804
13307TIP3   OH261411   5.305   2.006   5.282  0.4413 -0.3570  0.1262
13307TIP3    H161412   5.318   2.021   5.376  1.4382  0.7397 -0.1650
13307TIP3    H261413   5.375   2.055   5.240 -0.6375  0.0647 -1.2532
13308TIP3   OH261414   3.094   5.132  16.498 -0.1682 -0.0458  0.3201
13308TIP3    H161415   3.104   5.045  16.537  0.2733  0.1225  0.5869
13308TIP3    H261416   3.175   5.145  16.448 -1.0710 -0.5966 -1.3394
13309TIP3   OH261417   0.297   4.707   3.837  0.0150 -0.1986 -0.1427
13309TIP3    H161418   0.315   4.613   3.838  0.7250 -0.0916  1.6017
13309TIP3    H261419   0.381   4.748   3.816  0.0263  0.0789  0.4215
13310TIP3   OH261420   3.901   5.071  14.461 -0.3836  0.1720 -0.1649
13310TIP3    H161421   3.982   5.020  14.455  0.2878  1.2465 -0.5049
13310TIP3    H261422   3.912   5.122  14.542  0.5292  2.3451 -1.5750
13311TIP3   OH261423   6.459   4.122  12.842  0.2705  0.3846  0.0036
13311TIP3    H161424   6.438   4.210  12.811 -1.3689 -0.1588 -0.5257
13311TIP3    H261425   6.554   4.124  12.857  0.5511  1.7101 -1.6643
13312TIP3   OH261426   2.379   5.126  16.147  0.2132  0.3150  0.4126
13312TIP3    H161427   2.289   5.126  16.179  0.0978 -1.1463  0.1788
13312TIP3    H261428   2.387   5.044  16.099  1.7390  0.3006  0.6389
13313TIP3   OH261429   2.423   2.030  13.412 -0.4686  0.0060 -0.3313
13313TIP3    H161430   2.433   2.111  13.362 -1.4734  1.3316  1.5049
13313TIP3    H261431   2.464   1.963  13.357  3.1539  2.1868 -0.6125
13314TIP3   OH261432   1.437   4.506  16.196  0.0623 -0.1194 -0.2405
13314TIP3    H161433   1.417   4.436  16.134  1.9865 -0.2930 -0.6987
13314TIP3    H261434   1.448   4.584  16.142 -1.3218  0.4246  0.2000
13315TIP3   OH261435   4.622   2.750  16.355  0.2498  0.0524  0.2579
13315TIP3    H161436   4.709   2.721  16.327  0.8727 -1.8434  3.6084
13315TIP3    H261437   4.630   2.844  16.366  0.9857  0.3377 -2.0515
13316TIP3   OH261438   5.632   2.774   0.348 -0.6699 -0.0313 -0.3180
13316TIP3    H161439   5.621   2.743   0.258 -1.2999 -0.7051 -0.0207
13316TIP3    H261440   5.544   2.775   0.385 -0.7169  2.3506 -0.3536
13317TIP3   OH261441   6.407   3.827  15.148 -0.2377  0.3408  0.6495
13317TIP3    H161442   6.455   3.763  15.199  0.1173  0.0020 -0.0867
13317TIP3    H261443   6.341   3.776  15.101  0.4586  0.3977 -0.4297
13318TIP3   OH261444   2.547   5.972   4.673  0.8043 -0.1603  0.6722
13318TIP3    H161445   2.597   6.049   4.646  0.8608 -0.2084  0.6364
13318TIP3    H261446   2.614   5.909   4.701  1.0290 -1.2950 -2.0427
13319TIP3   OH261447   4.980   6.354  14.492 -0.4875  0.5462 -0.1595
13319TIP3    H161448   5.037   6.323  14.563  0.8483  0.2847 -1.2883
13319TIP3    H261449   4.926   6.422  14.532 -0.0387  0.1364  1.1916
13320TIP3   OH261450   4.916   1.400   4.237 -0.0963  0.6167  0.1932
13320TIP3    H161451   4.920   1.353   4.154  0.5379  1.6577 -0.3791
13320TIP3    H261452   4.827   1.384   4.269 -0.0916 -0.4423 -0.2870
13321TIP3   OH261453   0.106   3.620   1.281  0.1451  0.0395  0.1091
13321TIP3    H161454   0.144   3.623   1.193 -0.6543 -0.7248 -0.2718
13321TIP3    H261455   0.012   3.630   1.267  0.0556  0.3619  0.9165
13322TIP3   OH261456   1.733   2.880   6.340 -0.3283  0.2309 -1.1694
13322TIP3    H161457   1.707   2.901   6.250 -0.8340 -0.0311 -1.0836
13322TIP3    H261458   1.652   2.884   6.391  0.3684  3.5420 -0.0814
13323TIP3   OH261459   4.145   3.484  16.525  0.3526 -0.3005  0.4254
13323TIP3    H161460   4.182   3.493  16.613 -0.4467  2.2616  0.5794
13323TIP3    H261461   4.077   3.551  16.521  1.7083  1.1053 -2.7934
13324TIP3   OH261462   1.429   3.273   1.278 -0.2140  0.2194  0.4776
13324TIP3    H161463   1.345   3.319   1.277  0.3348  1.2343 -0.0115
13324TIP3    H261464   1.455   3.269   1.186  0.1332 -0.3673  0.5941
13325TIP3   OH261465   5.193   4.866   0.776  0.1355 -0.0344 -0.6114
13325TIP3    H161466   5.210   4.916   0.696  0.0766  0.1390 -0.5144
13325TIP3    H261467   5.097   4.865   0.784  0.1205 -0.4232 -0.7802
13326TIP3   OH261468   2.424   0.865  11.740  0.1471 -0.7354  0.4460
13326TIP3    H161469   2.448   0.828  11.825 -0.8079  0.5864  1.3395
13326TIP3    H261470   2.485   0.938  11.728 -1.5762  0.9512  1.4556
13327TIP3   OH261471   5.986   3.123  15.087  0.1089 -0.5649  0.0213
13327TIP3    H161472   6.076   3.140  15.060 -0.0286 -3.2866 -2.6635
13327TIP3    H261473   5.990   3.114  15.182  3.2482 -3.3069 -0.2202
13328TIP3   OH261474   0.863   1.395   2.078 -0.0888  0.1373 -0.5135
13328TIP3    H161475   0.846   1.301   2.073 -0.4573  0.2325 -1.0584
13328TIP3    H261476   0.955   1.405   2.052  0.4121 -0.2238  1.0250
13329TIP3   OH261477   1.342   5.951  16.345  0.0828 -0.2908  0.0465
13329TIP3    H161478   1.312   5.917  16.429  2.0362 -1.1450  0.4529
13329TIP3    H261479   1.318   5.884  16.282 -0.8474  0.0755 -0.0034
13330TIP3   OH261480   3.637   4.227   3.269 -0.9050 -0.3574 -0.2272
13330TIP3    H161481   3.542   4.221   3.268 -0.9370  0.0810 -0.6176
13330TIP3    H261482   3.657   4.300   3.210 -0.2521 -1.5406 -1.5645
13331TIP3   OH261483   3.113   6.715  16.415  0.1771  0.9465  0.3342
13331TIP3    H161484   3.131   6.807  16.437  0.1941  0.6819  1.5115
13331TIP3    H261485   3.079   6.678  16.496 -0.9877  0.1968 -0.4723
13332TIP3   OH261486   2.129   0.615   1.153  0.1932 -0.1124  0.3715
13332TIP3    H161487   2.215   0.636   1.117 -0.5839 -0.2910 -1.7321
13332TIP3    H261488   2.073   0.686   1.124 -1.0398 -1.6229 -1.2151
13333TIP3   OH261489   2.920   0.885   0.748  0.1324  0.0190 -0.2748
13333TIP3    H161490   2.920   0.962   0.806  1.2365 -1.5747  2.0000
13333TIP3    H261491   2.830   0.880   0.716 -0.2988  1.5112  0.5819
13334TIP3   OH261492   1.617   5.416  11.574  0.6628 -0.5600 -0.1606
13334TIP3    H161493   1.579   5.350  11.515  1.4123 -1.9686  0.8686
13334TIP3    H261494   1.710   5.414  11.556  0.5740  1.1153 -0.9468
13335TIP3   OH261495   2.096   4.286   2.163  0.6983  0.2261  0.1416
13335TIP3    H161496   2.007   4.261   2.136 -0.1957 -1.0539  3.6348
13335TIP3    H261497   2.087   4.377   2.192 -0.6159 -0.8893  3.8956
13336TIP3   OH261498   4.221   0.121  12.006  0.3913  0.5477 -0.0736
13336TIP3    H161499   4.263   0.125  12.092  1.6006  0.4911 -0.6262
13336TIP3    H261500   4.142   0.174  12.015 -0.2809 -0.6571  1.4669
13337TIP3   OH261501   4.892   6.103  12.099 -0.0155  0.2709 -0.3382
13337TIP3    H161502   4.939   6.183  12.075  1.6041 -0.7284 -0.7200
13337TIP3    H261503   4.930   6.077  12.183  2.0825 -1.8994 -1.8027
13338TIP3   OH261504   3.027   5.039   7.015 -0.2302 -0.0404 -0.5988
13338TIP3    H161505   3.108   5.070   6.974  0.1851 -0.0945  0.1555
13338TIP3    H261506   2.963   5.106   6.994  0.1075  0.2009 -0.8788
13339TIP3   OH261507   5.195   3.751   5.328  0.3678  0.3231 -0.2995
13339TIP3    H161508   5.123   3.778   5.386  0.0736  0.1248 -0.5666
13339TIP3    H261509   5.268   3.736   5.387  0.5547  1.7170 -0.1431
13340TIP3   OH261510   3.919   2.048  16.817  0.3457  0.0081  0.1350
13340TIP3    H161511   3.939   1.998  16.737 -1.9819 -1.4504  0.3690
13340TIP3    H261512   3.860   2.117  16.787  1.3772  0.9787  0.2672
13341TIP3   OH261513   2.319   5.669  10.817  0.0741  0.1637  0.0800
13341TIP3    H161514   2.342   5.662  10.910  1.0448 -2.3310 -0.2862
13341TIP3    H261515   2.373   5.742  10.785  0.6025  0.2944  1.2107
13342TIP3   OH261516   1.907   6.790  15.498 -0.1564  0.4603  0.4126
13342TIP3    H161517   1.862   6.822  15.420  1.2861 -1.6783 -1.3852
13342TIP3    H261518   1.999   6.811  15.484 -0.0595  2.1047  2.6975
13343TIP3   OH261519   1.428   1.877  14.057 -0.3667 -0.1547  0.0529
13343TIP3    H161520   1.432   1.843  14.146 -0.1646  0.6051  0.3498
13343TIP3    H261521   1.414   1.971  14.069 -0.4734 -0.0680 -0.7220
13344TIP3   OH261522   5.333   1.039   5.810  0.1433 -0.3938 -0.3953
13344TIP3    H161523   5.412   1.018   5.860 -2.1932 -1.9896  3.0104
13344TIP3    H261524   5.303   1.122   5.848 -0.6632 -0.6360 -0.5028
13345TIP3   OH261525   2.220   0.117  14.486  0.5058  0.7884  0.2184
13345TIP3    H161526   2.296   0.174  14.478  1.2488 -0.3885 -2.2651
13345TIP3    H261527   2.145   0.173  14.468  1.2231  1.0563 -2.2355
13346TIP3   OH261528   3.862   0.269   3.921 -0.5545  0.0968 -0.6629
13346TIP3    H161529   3.896   0.358   3.921  0.7440 -0.2627  2.7383
13346TIP3    H261530   3.919   0.221   3.861  0.0776  1.0914 -0.8811
13347TIP3   OH261531   2.655   0.418   4.084 -0.2271  0.2380  0.1929
13347TIP3    H161532   2.672   0.455   3.998 -1.1562  0.2833  0.0205
13347TIP3    H261533   2.739   0.422   4.129  0.0802  0.9553 -0.4289
13348TIP3   OH261534   0.209   4.030   0.155  0.0513  0.2826  1.1429
13348TIP3    H161535   0.269   4.027   0.081 -0.7932  0.9888  0.3953
13348TIP3    H261536   0.236   3.958   0.211  0.8141 -0.1693  0.2262
13349TIP3   OH261537   4.935   1.746   1.173 -0.5909 -0.1062  0.1896
13349TIP3    H161538   4.907   1.785   1.256 -0.7880  0.5056 -0.1598
13349TIP3    H261539   4.983   1.667   1.199 -1.8182 -0.6606  0.8331
13350TIP3   OH261540   5.474   1.451  13.620  0.3958 -0.5717  0.1432
13350TIP3    H161541   5.529   1.524  13.591 -0.5271  1.1744  2.4635
13350TIP3    H261542   5.390   1.467  13.578  0.8157 -1.6849 -1.1994
13351TIP3   OH261543   2.157   2.544   0.225 -0.4794  0.1772  0.4846
13351TIP3    H161544   2.098   2.602   0.272  0.3977 -0.0118  1.8701
13351TIP3    H261545   2.243   2.561   0.264  0.1576 -0.5227 -0.5595
13352TIP3   OH261546   5.345   4.455   2.694  0.3729 -0.2424  0.3308
13352TIP3    H161547   5.315   4.542   2.721 -2.1012 -0.7854 -0.3945
13352TIP3    H261548   5.411   4.431   2.759 -0.7884  1.0996  2.0977
13353TIP3   OH261549   1.661   6.428   4.445 -0.0372  0.1174  0.0107
13353TIP3    H161550   1.703   6.464   4.523 -0.3467 -0.4924  0.4700
13353TIP3    H261551   1.586   6.484   4.430  1.2290  1.5934 -1.1737
13354TIP3   OH261552   3.565   6.083   5.157 -0.6976 -0.2115  0.2224
13354TIP3    H161553   3.591   6.071   5.248  0.2769  0.6005  0.0704
13354TIP3    H261554   3.641   6.125   5.116 -1.6452  0.7106 -0.6409
13355TIP3   OH261555   3.753   1.269   5.675 -0.7143  0.2467  0.0945
13355TIP3    H161556   3.744   1.283   5.769 -1.9447  0.3085 -0.0078
13355TIP3    H261557   3.712   1.183   5.660  1.2237 -0.6812 -0.1304
13356TIP3   OH261558   6.654   4.805   3.512 -0.3276  0.0177  0.3306
13356TIP3    H161559   6.705   4.856   3.449 -2.4392  0.5559 -1.0572
13356TIP3    H261560   6.668   4.849   3.596  1.6705 -0.0618  0.0978
13357TIP3   OH261561   5.717   0.660  15.404 -0.0484 -0.7912 -0.2563
13357TIP3    H161562   5.642   0.608  15.435  0.2752 -0.5804  0.9122
13357TIP3    H261563   5.699   0.673  15.311 -0.8455 -1.7938 -0.2701
13358TIP3   OH261564   5.149   1.292  16.533  0.2725  0.0971 -0.2579
13358TIP3    H161565   5.115   1.338  16.610 -0.6846 -0.5106 -0.2958
13358TIP3    H261566   5.231   1.252  16.563  0.3260  0.5503  0.2105
13359TIP3   OH261567   0.129   1.078   4.447 -0.0788 -0.1741  0.1854
13359TIP3    H161568   0.149   1.001   4.500  1.1561 -0.6227 -0.8658
13359TIP3    H261569   0.073   1.045   4.377 -0.4033  0.0882  0.3233
13360TIP3   OH261570   5.546   6.656  16.619 -0.0320  0.9450 -0.0463
13360TIP3    H161571   5.558   6.750  16.607  2.0781  0.6267 -0.7951
13360TIP3    H261572   5.633   6.622  16.635 -0.9248 -0.7409  1.5767
13361TIP3   OH261573   5.948   0.767  14.895 -0.3635  0.0803  0.2910
13361TIP3    H161574   6.004   0.714  14.951  0.8160  0.6228 -0.3305
13361TIP3    H261575   5.991   0.852  14.891 -1.6886  0.7893  0.4592
13362TIP3   OH261576   1.332   5.611  14.854  0.1823  0.2997 -0.6515
13362TIP3    H161577   1.335   5.705  14.868  0.2981 -0.0068  1.7384
13362TIP3    H261578   1.280   5.577  14.927  2.0123 -1.6789 -0.1636
13363TIP3   OH261579   2.445   2.390  14.652 -0.3122  0.2453  0.1841
13363TIP3    H161580   2.516   2.404  14.590 -1.6481  0.5392 -1.3653
13363TIP3    H261581   2.372   2.441  14.616 -0.9274  1.0473  2.4356
13364TIP3   OH261582   6.379   1.338   3.693  0.0723  0.2028  0.2625
13364TIP3    H161583   6.435   1.326   3.770 -1.0497  0.3333  1.1176
13364TIP3    H261584   6.441   1.348   3.621  1.1474 -0.3266  1.0757
13365TIP3   OH261585   4.379   6.648   5.196  0.0508  0.0312  0.4853
13365TIP3    H161586   4.342   6.728   5.233 -2.3448 -0.0838 -1.4301
13365TIP3    H261587   4.472   6.669   5.183 -0.3929  2.2918  0.5599
13366TIP3   OH261588   3.179   3.364  11.987  0.5171  0.2220 -0.1785
13366TIP3    H161589   3.104   3.359  11.928  1.0353 -2.7700 -0.7491
13366TIP3    H261590   3.150   3.316  12.065 -0.2024  4.1490  2.2923
13367TIP3   OH261591   5.598   2.528  15.654 -0.0526 -0.1436 -0.4354
13367TIP3    H161592   5.622   2.550  15.744 -0.2799  2.3568 -0.9279
13367TIP3    H261593   5.605   2.432  15.651  1.9731 -0.1683  1.6456
13368TIP3   OH261594   2.209   6.034   1.390  0.4714 -0.0846  0.6099
13368TIP3    H161595   2.262   6.020   1.312 -2.7189  0.3444 -1.8571
13368TIP3    H261596   2.179   5.946   1.414  1.1385 -0.1757  1.1090
13369TIP3   OH261597   0.247   5.711  15.922 -0.0494  0.8332  0.2026
13369TIP3    H161598   0.289   5.796  15.909 -0.9761  1.0726 -1.5046
13369TIP3    H261599   0.192   5.699  15.844 -1.2580 -0.5621  1.2186
13370TIP3   OH261600   1.671   1.850   2.115  0.1232 -0.5773  0.2113
13370TIP3    H161601   1.706   1.856   2.204 -0.2418  0.6268  0.2952
13370TIP3    H261602   1.641   1.760   2.107  0.5195 -0.8086  1.1734
13371TIP3   OH261603   3.131   2.600   4.885  0.6630 -0.2853 -0.3063
13371TIP3    H161604   3.127   2.663   4.957  2.2230 -0.1188 -0.3196
13371TIP3    H261605   3.068   2.632   4.821 -0.1346  0.0375  0.6207
13372TIP3   OH261606   0.269   4.533   1.380 -0.0351 -0.0813  0.1348
13372TIP3    H161607   0.286   4.621   1.346 -0.1422 -0.4314 -0.8614
13372TIP3    H261608   0.352   4.487   1.369  0.0134 -0.1134  0.6313
13373TIP3   OH261609   1.236   3.920  11.287 -0.1881 -0.1451  0.0406
13373TIP3    H161610   1.250   4.003  11.241 -0.3705 -0.8083 -1.2385
13373TIP3    H261611   1.312   3.867  11.264  0.2256 -0.1571  1.3280
13374TIP3   OH261612   0.866   3.926  14.036 -0.3115  0.1299  0.0411
13374TIP3    H161613   0.896   4.004  14.081 -1.4666 -0.3912  1.8116
13374TIP3    H261614   0.803   3.959  13.972 -0.6215  0.6847  0.6200
13375TIP3   OH261615   3.950   4.799  14.608 -0.4459  0.3813 -0.1661
13375TIP3    H161616   4.004   4.760  14.677 -1.3444 -2.0330 -0.7215
13375TIP3    H261617   3.899   4.867  14.653  0.7716  0.5607  0.9993
13376TIP3   OH261618   3.668   3.123   1.973  0.1567  0.1461 -0.5834
13376TIP3    H161619   3.620   3.203   1.996  0.8256  0.5629 -0.6208
13376TIP3    H261620   3.760   3.146   1.983  0.3586 -0.6301 -0.5784
13377TIP3   OH261621   0.605   5.405  14.453  0.6701 -0.5650 -0.0537
13377TIP3    H161622   0.649   5.376  14.533  1.7115 -1.7167 -1.0054
13377TIP3    H261623   0.587   5.324  14.405 -1.8760 -0.0874 -0.0554
13378TIP3   OH261624   1.353   0.239  15.981 -0.1255 -0.2444 -0.3814
13378TIP3    H161625   1.376   0.288  16.060 -1.5027 -0.3002  0.0751
13378TIP3    H261626   1.293   0.297  15.934 -0.0172 -0.5833 -0.9386
13379TIP3   OH261627   1.616   0.232   0.544 -0.0679  0.3438 -0.3675
13379TIP3    H161628   1.656   0.198   0.624 -0.0937  0.5751 -0.2569
13379TIP3    H261629   1.533   0.271   0.574  0.3210  1.1920 -0.3867
13380TIP3   OH261630   4.216   2.049   4.074  0.1678  0.4229 -0.5230
13380TIP3    H161631   4.168   1.970   4.096 -0.8249  1.1620  0.0605
13380TIP3    H261632   4.149   2.116   4.062  0.9496  1.0386 -1.6242
13381TIP3   OH261633   5.911   6.120   3.696 -0.2154  0.2088  0.3475
13381TIP3    H161634   5.834   6.169   3.668 -0.3855  0.4193  1.1655
13381TIP3    H261635   5.940   6.163   3.776  0.4529 -0.1850  0.3323
13382TIP3   OH261636   6.041   5.513   2.977  0.9713 -0.0450 -0.3251
13382TIP3    H161637   6.102   5.587   2.985  1.3107 -0.4385  0.8986
13382TIP3    H261638   6.024   5.485   3.067 -0.0623 -0.7337 -0.7096
13383TIP3   OH261639   4.812   6.477  10.930  0.1422  0.1753 -0.5452
13383TIP3    H161640   4.860   6.425  10.994 -1.0441 -0.4506 -0.1232
13383TIP3    H261641   4.877   6.534  10.891  1.1231 -0.3098  0.3420
13384TIP3   OH261642   6.296   2.325  17.303 -0.0678  0.1100  0.2778
13384TIP3    H161643   6.357   2.283  17.242 -1.5092 -2.4023  0.4277
13384TIP3    H261644   6.212   2.325  17.257 -1.1590 -1.7146  2.0957
13385TIP3   OH261645   3.748   3.639  14.924  0.0012  0.2391  0.3780
13385TIP3    H161646   3.736   3.725  14.964  0.2815 -0.3254  1.7081
13385TIP3    H261647   3.832   3.644  14.880  1.2339 -0.1151  2.5716
13386TIP3   OH261648   0.312   1.915  15.075 -0.0569  0.1654  0.0986
13386TIP3    H161649   0.264   1.983  15.029 -0.8469 -0.4677 -0.0450
13386TIP3    H261650   0.394   1.956  15.101 -0.7181  1.3025  0.4423
13387TIP3   OH261651   2.016   5.881  14.196 -0.2298  0.0173 -0.4183
13387TIP3    H161652   2.039   5.788  14.198 -0.0008  0.0443  2.4499
13387TIP3    H261653   2.052   5.912  14.113  0.8849 -2.1708 -0.8456
13388TIP3   OH261654   3.247   5.750   3.786 -0.4875  0.6213 -0.1371
13388TIP3    H161655   3.216   5.829   3.832  0.7015  0.6371  0.6863
13388TIP3    H261656   3.214   5.677   3.839  0.2403  0.6223  0.3265
13389TIP3   OH261657   0.540   2.739   5.540 -0.3416 -0.6680 -0.1106
13389TIP3    H161658   0.504   2.823   5.511  0.4483  0.5136  2.0664
13389TIP3    H261659   0.464   2.681   5.546 -1.0505  0.1536 -0.8323
13390TIP3   OH261660   0.524   3.466   5.090 -0.8080  0.3547 -0.0644
13390TIP3    H161661   0.527   3.391   5.030  0.3651  0.3550 -0.0156
13390TIP3    H261662   0.608   3.510   5.078 -0.2500 -0.0209  2.0608
13391TIP3   OH261663   4.901   3.472  11.293  0.5790 -0.5917 -0.5593
13391TIP3    H161664   4.903   3.531  11.368 -1.3348 -0.2917 -0.6968
13391TIP3    H261665   4.913   3.385  11.331 -2.4539 -0.6931  0.4867
13392TIP3   OH261666   5.738   0.005  16.825 -0.0208 -0.5168 -0.3286
13392TIP3    H161667   5.793  -0.014  16.749 -0.6622 -1.8286 -0.4920
13392TIP3    H261668   5.762   0.094  16.850  2.5069 -1.1739 -0.1219
13393TIP3   OH261669   1.741   6.711  12.711 -0.5923  0.2092  0.0249
13393TIP3    H161670   1.717   6.768  12.638  1.2054 -1.3401 -1.8888
13393TIP3    H261671   1.691   6.631  12.696  1.3868 -0.9311 -0.8270
13394TIP3   OH261672   2.444   5.338  15.391 -0.3204 -0.4526  0.2085
13394TIP3    H161673   2.412   5.263  15.441 -1.6459  0.5098  0.8935
13394TIP3    H261674   2.430   5.413  15.450 -0.5095  0.5177 -1.0374
13395TIP3   OH261675   4.513   2.341   1.114  0.2531 -0.3738  0.4558
13395TIP3    H161676   4.459   2.294   1.050 -1.2570  1.1770  0.5263
13395TIP3    H261677   4.549   2.415   1.065  1.4154 -0.7380  0.7193
13396TIP3   OH261678   4.604   4.153  12.506 -0.0307  0.0615 -0.2457
13396TIP3    H161679   4.577   4.074  12.459  0.0965 -1.6273  2.3338
13396TIP3    H261680   4.698   4.142  12.520 -0.2020  0.1010  1.0709
13397TIP3   OH261681   3.923   2.611  10.590 -0.6102  0.3379  0.5171
13397TIP3    H161682   3.942   2.517  10.587  1.4966  0.7201  0.2729
13397TIP3    H261683   3.837   2.617  10.631 -0.6529 -1.6821  0.8074
13398TIP3   OH261684   3.831   3.305  14.947 -0.0860  0.5623 -0.6942
13398TIP3    H161685   3.757   3.359  14.974 -0.6998 -0.6736  0.1708
13398TIP3    H261686   3.896   3.318  15.015  0.9990  2.5123 -2.0052
13399TIP3   OH261687   0.187   0.134   3.708 -0.5233 -0.0251  0.2338
13399TIP3    H161688   0.168   0.107   3.798  0.9903  1.6379  1.1256
13399TIP3    H261689   0.217   0.054   3.665 -0.6874 -0.7349  1.3941
13400TIP3   OH261690   1.939   3.925   5.369  0.0297 -0.0732  0.5564
13400TIP3    H161691   1.948   3.922   5.274  0.9724 -0.1861  0.6330
13400TIP3    H261692   1.849   3.952   5.384 -0.0475  0.2229 -0.3706
13401TIP3   OH261693   4.984   1.687   5.659  0.3804  0.0343 -0.0309
13401TIP3    H161694   4.905   1.635   5.675 -1.4542  1.7214 -2.7256
13401TIP3    H261695   5.021   1.651   5.579  0.5968  1.1348 -0.4392
13402TIP3   OH261696   4.542   6.380  14.567  0.7044  0.6547  0.0099
13402TIP3    H161697   4.484   6.451  14.541  2.6100  2.2941 -0.0210
13402TIP3    H261698   4.513   6.305  14.516 -1.0270  1.5456 -0.3799
13403TIP3   OH261699   2.450   5.658   2.798  0.3163  0.5648 -0.2867
13403TIP3    H161700   2.449   5.734   2.856  1.0533  2.0332 -2.0841
13403TIP3    H261701   2.445   5.696   2.710 -1.0183 -1.5700 -1.1998
13404TIP3   OH261702   4.702   0.570   2.103  0.0480 -0.2423  0.1998
13404TIP3    H161703   4.734   0.623   2.177 -0.7518 -1.0077  1.1162
13404TIP3    H261704   4.692   0.482   2.139 -1.5655 -0.3654 -0.4627
13405TIP3   OH261705   2.099   0.768   0.771 -0.0876 -0.0433  0.0430
13405TIP3    H161706   2.156   0.706   0.816  0.5457 -0.2336 -0.9907
13405TIP3    H261707   2.103   0.743   0.679 -1.5760  0.1641 -0.1075
13406TIP3   OH261708   4.629   5.559  12.062  0.4378 -0.4917  0.3516
13406TIP3    H161709   4.692   5.496  12.027 -0.6889 -0.7294 -1.3432
13406TIP3    H261710   4.683   5.632  12.093  1.5630 -0.6965 -1.0239
13407TIP3   OH261711   5.616   5.413   3.976 -0.1042 -0.1809  0.3760
13407TIP3    H161712   5.682   5.347   3.995  1.7186  1.5292  0.2890
13407TIP3    H261713   5.658   5.496   3.997 -2.4089  0.9820  0.7851
13408TIP3   OH261714   2.054   2.937   3.827  0.2621 -0.5127  0.6952
13408TIP3    H161715   2.114   3.012   3.825  0.1756 -0.4519 -0.9309
13408TIP3    H261716   1.970   2.974   3.852  0.6647 -0.4219  1.9453
13409TIP3   OH261717   6.139   6.260  12.910 -0.2817  0.3604  0.4727
13409TIP3    H161718   6.214   6.313  12.938 -0.5980 -0.1057  2.3569
13409TIP3    H261719   6.068   6.323  12.899  0.1474  0.6943 -0.4381
13410TIP3   OH261720   0.953   2.869  16.756  0.0763 -0.5366  0.3805
13410TIP3    H161721   0.994   2.891  16.672 -0.1667  1.0231  0.6455
13410TIP3    H261722   1.027   2.848  16.814  0.3840  0.3674  0.3276
13411TIP3   OH261723   1.503   6.601  11.504  0.5702  0.3546  0.0431
13411TIP3    H161724   1.557   6.558  11.438 -0.8186  0.0015 -0.9093
13411TIP3    H261725   1.551   6.681  11.526  1.3799  0.1436 -0.8825
13412TIP3   OH261726   2.772   5.890  15.817  0.2527  0.1070  0.2901
13412TIP3    H161727   2.834   5.941  15.765 -0.1129  1.1209  0.8253
13412TIP3    H261728   2.745   5.949  15.887 -1.8086 -0.0680 -0.2906
13413TIP3   OH261729   3.117   2.458  12.533 -0.6651  0.2848 -0.1891
13413TIP3    H161730   3.034   2.411  12.539 -0.7150  0.5214  1.5821
13413TIP3    H261731   3.167   2.410  12.467 -1.0403 -1.7487  0.9134
13414TIP3   OH261732   2.922   5.142   1.366 -0.4035  0.3799  0.3105
13414TIP3    H161733   2.839   5.107   1.333  0.6718 -1.9444 -0.1207
13414TIP3    H261734   2.926   5.110   1.457  0.7036 -0.9109 -0.1619
13415TIP3   OH261735   4.882   5.482   3.192 -0.2551  0.1908 -0.0830
13415TIP3    H161736   4.874   5.394   3.155 -1.2937  1.0079 -1.9304
13415TIP3    H261737   4.792   5.510   3.206 -0.0086  1.4667 -0.8512
13416TIP3   OH261738   4.965   0.259  13.659 -0.0473 -0.0467 -0.3591
13416TIP3    H161739   4.935   0.345  13.687 -1.0968 -0.2269 -0.8816
13416TIP3    H261740   4.887   0.203  13.664  0.5516 -0.9020 -0.3033
13417TIP3   OH261741   5.170   0.839  14.575  0.5893  0.1112  0.4879
13417TIP3    H161742   5.252   0.885  14.595 -0.4664  2.9111 -1.1372
13417TIP3    H261743   5.101   0.899  14.604 -0.9765 -2.1125  1.6817
13418TIP3   OH261744   5.277   3.054  15.648 -0.3416  0.5031 -0.5661
13418TIP3    H161745   5.223   3.129  15.671 -0.3207  0.0881  0.9683
13418TIP3    H261746   5.218   2.978  15.656  0.5362 -0.0224  1.7291
13419TIP3   OH261747   5.898   4.692   3.518 -0.2707 -0.4887  0.1992
13419TIP3    H161748   5.840   4.743   3.461  0.5430  0.3010  0.0490
13419TIP3    H261749   5.876   4.720   3.606 -0.0938 -0.1486  0.1391
13420TIP3   OH261750   0.280   5.320   3.749  0.0371 -0.2458 -0.2185
13420TIP3    H161751   0.282   5.336   3.654  1.2034  2.0757  0.1253
13420TIP3    H261752   0.245   5.401   3.786  1.2971 -0.4203  1.4618
13421TIP3   OH261753   1.499   5.230  15.763  0.3918  0.5034  0.1221
13421TIP3    H161754   1.569   5.282  15.802  1.7278 -0.0277 -1.4476
13421TIP3    H261755   1.427   5.236  15.825  1.2148  2.5221  0.9663
13422TIP3   OH261756   4.618   0.529   2.859  0.3509 -0.1995  0.1118
13422TIP3    H161757   4.545   0.592   2.858 -0.1250 -0.6694  1.9770
13422TIP3    H261758   4.663   0.546   2.941  1.1547 -1.2604 -0.0955
13423TIP3   OH261759   5.881   6.298   3.059  0.1508 -0.5158 -0.1268
13423TIP3    H161760   5.863   6.210   3.025 -1.3169 -0.9773  1.6649
13423TIP3    H261761   5.875   6.289   3.154 -3.4850  2.1004  0.0987
13424TIP3   OH261762   6.744   6.417   3.314  0.8232 -0.2675  0.2268
13424TIP3    H161763   6.718   6.480   3.382  1.4547  1.0483 -0.7142
13424TIP3    H261764   6.717   6.458   3.232  2.0210 -0.8246 -0.4650
13425TIP3   OH261765   2.125   3.766  14.102  0.2147  0.5836 -0.3350
13425TIP3    H161766   2.073   3.710  14.159  2.7692 -0.2430  1.3321
13425TIP3    H261767   2.178   3.705  14.050  1.1656  1.4099 -0.3630
13426TIP3   OH261768   3.286   2.983   3.988 -0.3979 -0.8624  0.0501
13426TIP3    H161769   3.360   2.949   4.038  0.5440 -1.9349 -1.9649
13426TIP3    H261770   3.280   3.075   4.014  1.1536 -0.9570  0.8288
13427TIP3   OH261771   6.677   0.018  11.713  0.4141 -0.0654  0.3870
13427TIP3    H161772   6.661  -0.010  11.803 -0.2273  0.2082  0.3587
13427TIP3    H261773   6.724  -0.056  11.673  1.3555  0.1023  1.1463
13428TIP3   OH261774   4.756   0.322   5.343 -0.3819 -0.5781  0.1312
13428TIP3    H161775   4.778   0.398   5.288  1.0580 -0.8994  0.2302
13428TIP3    H261776   4.714   0.360   5.420 -2.3454 -0.1055 -1.0861
13429TIP3   OH261777   5.847   0.453   1.144  0.3287 -0.4153 -0.6590
13429TIP3    H161778   5.888   0.428   1.061  1.5714 -0.8589  0.0653
13429TIP3    H261779   5.786   0.523   1.120  0.2388 -0.9262 -2.0261
13430TIP3   OH261780   3.569   3.314   3.200  0.2756  0.5394 -0.0673
13430TIP3    H161781   3.568   3.375   3.274  0.4216 -1.3892  1.6231
13430TIP3    H261782   3.477   3.288   3.190  0.5383 -0.9399  1.0238
13431TIP3   OH261783   4.425   1.161   4.256 -0.1387 -0.6024  0.2879
13431TIP3    H161784   4.357   1.197   4.313  1.7814 -0.3203  2.5605
13431TIP3    H261785   4.430   1.068   4.281 -0.7064 -0.9873 -0.9731
13432TIP3   OH261786   0.507   5.313  15.047 -0.1386  0.0114 -0.5971
13432TIP3    H161787   0.429   5.367  15.057  0.1217  0.1953  0.6380
13432TIP3    H261788   0.487   5.255  14.974 -1.9016 -0.7428  0.4361
13433TIP3   OH261789   1.097   2.097  11.787 -0.3506 -0.4897  0.4260
13433TIP3    H161790   1.062   2.023  11.836 -1.1983 -0.9076 -0.7559
13433TIP3    H261791   1.149   2.056  11.717 -0.2583  0.0543  0.1744
13434TIP3   OH261792   3.690   0.829   3.454  0.3191 -0.2576 -0.0893
13434TIP3    H161793   3.748   0.807   3.527  1.0091 -0.1603 -0.5925
13434TIP3    H261794   3.703   0.923   3.441 -0.2386 -0.1633  0.0375
13435TIP3   OH261795   6.096   0.528  16.610  0.0086 -0.0115 -0.5024
13435TIP3    H161796   6.006   0.557  16.601 -1.1531 -2.6532  1.3483
13435TIP3    H261797   6.132   0.585  16.679 -0.3351  0.7575 -0.9399
13436TIP3   OH261798   6.011   1.673   0.058  0.9124 -0.1421  0.0801
13436TIP3    H161799   5.967   1.672   0.143 -0.7386 -0.0126 -0.7377
13436TIP3    H261800   5.988   1.758   0.020  0.2426 -0.8477 -1.1663
13437TIP3   OH261801   5.809   0.896   2.214 -0.4051  0.0992 -0.0668
13437TIP3    H161802   5.834   0.804   2.214  1.8862  0.6252 -2.0098
13437TIP3    H261803   5.758   0.907   2.134 -0.6413  0.5395  0.1376
13438TIP3   OH261804   1.904   0.259   0.605 -0.1946  0.2002  0.2181
13438TIP3    H161805   1.845   0.225   0.538 -0.5955 -2.4422  1.7513
13438TIP3    H261806   1.870   0.346   0.626 -0.4674  0.8261 -2.4189
13439TIP3   OH261807   6.390   5.718  11.070  0.2270 -0.1686  0.0989
13439TIP3    H161808   6.475   5.714  11.025 -0.9299 -0.2963 -2.2330
13439TIP3    H261809   6.389   5.803  11.114  1.3011  0.1080 -0.3904
13440TIP3   OH261810   1.885   6.104   2.007  0.6587 -0.3573  0.0616
13440TIP3    H161811   1.917   6.015   2.022  0.6108 -0.0254  2.5280
13440TIP3    H261812   1.796   6.092   1.974  1.3565 -1.1974 -1.6642
13441TIP3   OH261813   2.601   1.412   4.641  0.3428  0.7610 -0.0421
13441TIP3    H161814   2.661   1.338   4.652  0.0601  0.4789 -0.3735
13441TIP3    H261815   2.550   1.415   4.721 -0.9959 -0.6327 -0.7872
13442TIP3   OH261816   2.406   3.694   5.735 -0.3096  0.1542 -0.1287
13442TIP3    H161817   2.463   3.617   5.732  1.1966  1.2538 -2.0324
13442TIP3    H261818   2.354   3.682   5.815  1.7974 -1.4719  1.1176
13443TIP3   OH261819   6.232   2.771   2.108  0.2134 -0.2625 -0.1683
13443TIP3    H161820   6.200   2.861   2.101  2.0516  0.3942 -0.7456
13443TIP3    H261821   6.229   2.751   2.201 -0.7294  0.1746 -0.0918
13444TIP3   OH261822   3.506   3.185  15.724  0.0370 -0.5926  0.0325
13444TIP3    H161823   3.540   3.235  15.650 -0.9726 -0.6007 -0.4482
13444TIP3    H261824   3.450   3.247  15.771 -0.4027 -0.9732  0.0167
13445TIP3   OH261825   5.927   2.360  14.152 -0.0833  0.2730 -0.2037
13445TIP3    H161826   6.002   2.340  14.096  0.2056 -0.8565  0.5364
13445TIP3    H261827   5.868   2.409  14.097  0.9452  0.6687 -0.9866
13446TIP3   OH261828   2.397   6.308  11.737 -0.0670 -0.0140  0.0519
13446TIP3    H161829   2.460   6.285  11.805  0.1097 -2.3447 -0.7947
13446TIP3    H261830   2.407   6.402  11.725  1.7059  0.0265  1.4461
13447TIP3   OH261831   0.953   2.196   2.883  0.6845  0.1481  0.2462
13447TIP3    H161832   0.885   2.129   2.877 -0.1319  0.9420  0.3321
13447TIP3    H261833   1.035   2.147   2.881  0.1935 -0.7285 -1.8524
13448TIP3   OH261834   1.746   1.314   6.285 -0.6652  0.5708  0.2777
13448TIP3    H161835   1.724   1.276   6.200  2.6753 -3.1486  0.7429
13448TIP3    H261836   1.803   1.389   6.264  2.0901 -1.6835 -1.0151
13449TIP3   OH261837   4.305   0.565  15.493  0.2760  0.0869 -0.2264
13449TIP3    H161838   4.323   0.659  15.495 -0.3383  0.2075  0.0227
13449TIP3    H261839   4.330   0.537  15.406  2.2476  0.1078  0.2853
13450TIP3   OH261840   0.575   1.667   1.106  0.3863  0.2092  0.1250
13450TIP3    H161841   0.526   1.716   1.172  0.5321 -0.4286  0.7138
13450TIP3    H261842   0.536   1.694   1.023  0.5513  1.4140  0.4193
13451TIP3   OH261843   6.031   1.658  11.169  0.4425  0.7135 -0.8089
13451TIP3    H161844   6.002   1.619  11.251  2.1870  0.3689 -0.3243
13451TIP3    H261845   6.033   1.585  11.107  2.9062  0.0976 -0.1112
13452TIP3   OH261846   5.731   0.626   1.433 -0.1794  0.5926  0.1537
13452TIP3    H161847   5.637   0.626   1.452  0.1478 -3.1663  2.9293
13452TIP3    H261848   5.767   0.693   1.491 -0.9220  0.2217  1.0660
13453TIP3   OH261849   0.442   5.454  11.606  0.0535  0.0285  0.2202
13453TIP3    H161850   0.484   5.369  11.620 -1.4879 -0.4420  2.4901
13453TIP3    H261851   0.386   5.440  11.530  1.0846 -0.4585 -0.4771
13454TIP3   OH261852   1.458   0.868  16.861 -0.6962  0.6102 -0.8422
13454TIP3    H161853   1.384   0.923  16.887 -0.5205  1.2459 -1.6499
13454TIP3    H261854   1.528   0.929  16.842  0.2947 -0.0244  0.6192
13455TIP3   OH261855   3.253   2.378  11.419 -0.7048  0.5285 -0.0716
13455TIP3    H161856   3.299   2.449  11.376 -1.5197  1.6010  0.7658
13455TIP3    H261857   3.167   2.415  11.442 -0.8203 -0.4286  1.1796
13456TIP3   OH261858   2.444   5.210  12.313 -0.3902 -0.1381  0.0889
13456TIP3    H161859   2.361   5.213  12.265 -1.2571  0.5967  1.5659
13456TIP3    H261860   2.446   5.122  12.351 -0.4992 -0.1658  0.0313
13457TIP3   OH261861   2.544   3.963  16.211 -0.0301 -0.4178  0.1890
13457TIP3    H161862   2.513   3.940  16.299 -1.1061 -2.4088 -0.6656
13457TIP3    H261863   2.483   4.030  16.181  0.6937  0.7095  1.1541
13458TIP3   OH261864   3.928   1.633   1.573  0.7723 -0.4379 -0.6914
13458TIP3    H161865   3.897   1.579   1.500  0.3660 -0.4435 -0.5184
13458TIP3    H261866   3.866   1.615   1.644  0.2271  0.7668 -0.8405
13459TIP3   OH261867   1.856   0.152  13.981 -0.6735  0.0399 -0.3322
13459TIP3    H161868   1.848   0.217  14.051 -0.4505 -0.1653 -0.1147
13459TIP3    H261869   1.946   0.120  13.988 -0.8500 -0.4534 -0.2953
13460TIP3   OH261870   5.035   3.015  15.308 -0.0753  0.3654 -0.3825
13460TIP3    H161871   5.074   3.100  15.329 -1.2219  1.0076 -0.7775
13460TIP3    H261872   5.094   2.952  15.348 -0.3569  1.4068  1.8499
13461TIP3   OH261873   4.559   5.000   5.183 -0.1036 -0.3631 -0.0308
13461TIP3    H161874   4.503   5.066   5.141 -1.1759 -1.0131  0.3303
13461TIP3    H261875   4.631   4.987   5.122  0.8162  2.0433  0.4630
13462TIP3   OH261876   2.181   2.015   6.177  0.3296  0.1032  0.5602
13462TIP3    H161877   2.086   2.025   6.181  0.4472  1.2965  0.6747
13462TIP3    H261878   2.207   1.997   6.268  0.1887 -0.5021  0.4822
13463TIP3   OH261879   4.126   2.076   0.186 -0.2945  0.2937 -0.4798
13463TIP3    H161880   4.108   2.159   0.140  0.5036  1.2269  0.8231
13463TIP3    H261881   4.218   2.083   0.211 -0.3492 -0.7979  0.0585
13464TIP3   OH261882   5.374   1.935   2.636  0.4894 -0.3176  0.0081
13464TIP3    H161883   5.308   1.956   2.702 -0.0560  0.4447 -0.7599
13464TIP3    H261884   5.335   1.963   2.554  1.1906 -1.1868 -0.6383
13465TIP3   OH261885   3.388   1.798  14.807 -0.3040  0.0855  0.3736
13465TIP3    H161886   3.303   1.754  14.813 -0.6367  0.4586 -1.2613
13465TIP3    H261887   3.366   1.888  14.786  0.5073  0.0631 -0.6112
13466TIP3   OH261888   3.104   2.294  11.093  0.4110 -0.8635 -0.5266
13466TIP3    H161889   3.115   2.388  11.105 -2.3019 -0.4209 -0.7522
13466TIP3    H261890   3.119   2.280  11.000 -1.3521 -0.2092 -0.9487
13467TIP3   OH261891   6.684   3.215   4.786 -0.0741  0.0590 -0.2812
13467TIP3    H161892   6.717   3.126   4.772  0.4345  0.3339 -0.9192
13467TIP3    H261893   6.743   3.252   4.852 -0.4963 -0.1845  0.2384
13468TIP3   OH261894   2.724   2.465  16.377  0.5613 -0.4397 -0.0342
13468TIP3    H161895   2.773   2.543  16.349  0.0519  0.0679  0.4584
13468TIP3    H261896   2.720   2.472  16.472  1.0620 -1.4192  0.0786
13469TIP3   OH261897   1.598   2.579  12.014  0.5925 -0.2803  0.7242
13469TIP3    H161898   1.592   2.588  11.919  1.6397  1.1543  0.7522
13469TIP3    H261899   1.664   2.511  12.027 -1.3994 -2.3731  0.4714
13470TIP3   OH261900   2.579   1.755   4.151 -0.6720 -0.4471 -0.4479
13470TIP3    H161901   2.548   1.823   4.211  0.3219 -1.1533  0.9256
13470TIP3    H261902   2.642   1.800   4.094  0.1784 -0.2551  0.6252
13471TIP3   OH261903   5.022   3.019   0.020 -0.0663  0.0698 -0.4091
13471TIP3    H161904   5.005   2.929  -0.009  1.9331  0.2335 -2.3048
13471TIP3    H261905   5.088   3.010   0.088  0.0370  0.1002 -0.5057
13472TIP3   OH261906   5.835   3.859   4.507  0.0962  0.5648  0.4518
13472TIP3    H161907   5.827   3.768   4.536  1.2429 -0.8870 -3.2268
13472TIP3    H261908   5.752   3.900   4.534 -0.3836 -1.4564  2.3499
13473TIP3   OH261909   4.487   0.732   0.474  0.1430 -0.4930 -0.0814
13473TIP3    H161910   4.578   0.756   0.492  0.1660 -0.4449 -0.2608
13473TIP3    H261911   4.492   0.677   0.396 -0.2346  1.8731 -1.8946
13474TIP3   OH261912   4.249   5.160   0.405 -0.1418  0.3181  0.9403
13474TIP3    H161913   4.176   5.136   0.462 -0.7463  0.0856  0.0907
13474TIP3    H261914   4.307   5.084   0.406  0.1637  0.5571  1.7252
13475TIP3   OH261915   2.019   5.920  12.998  0.4070 -0.5753  0.1585
13475TIP3    H161916   2.006   5.980  12.925  0.0034  2.7371  2.7285
13475TIP3    H261917   2.112   5.898  12.995  0.2576 -1.1308 -1.7029
13476TIP3   OH261918   5.897   4.008  13.491  0.4439 -0.0144  0.0660
13476TIP3    H161919   5.869   4.066  13.562  1.4603  0.3144  0.2040
13476TIP3    H261920   5.987   4.033  13.473  0.7916 -1.3316 -0.1187
13477TIP3   OH261921   2.086   3.553  16.576  0.1626  0.6581 -0.9898
13477TIP3    H161922   2.133   3.486  16.526 -0.2024  0.6885 -1.3719
13477TIP3    H261923   2.060   3.618  16.511 -1.2270  0.1887 -0.9267
13478TIP3   OH261924   1.666   1.249  17.176 -0.0791 -0.5756 -0.1065
13478TIP3    H161925   1.633   1.338  17.191  0.5928 -0.0041 -1.7421
13478TIP3    H261926   1.615   1.194  17.235 -1.5507  0.7035 -0.1260
13479TIP3   OH261927   6.007   4.358   2.720 -0.3138  0.6135 -0.2048
13479TIP3    H161928   5.979   4.441   2.760 -0.9998  0.5105 -0.4715
13479TIP3    H261929   5.998   4.293   2.790 -0.1679  0.6850 -0.1183
13480TIP3   OH261930   4.246   0.541   4.389  0.5142 -0.1385 -0.2468
13480TIP3    H161931   4.279   0.525   4.477  1.6764 -0.7889 -0.7630
13480TIP3    H261932   4.151   0.539   4.397  0.6112 -0.3779  0.9570
13481TIP3   OH261933   4.322   5.874   0.882  0.8125  0.1098  0.2162
13481TIP3    H161934   4.293   5.799   0.934  0.1794 -1.5857 -2.4133
13481TIP3    H261935   4.313   5.845   0.791 -0.2428  3.6741 -0.9628
13482TIP3   OH261936   1.695   6.172  12.928  0.9080  0.0647  0.1582
13482TIP3    H161937   1.721   6.257  12.895 -1.1237  1.0514  0.9207
13482TIP3    H261938   1.656   6.127  12.853  0.9564  0.2744  0.0078
13483TIP3   OH261939   3.806   6.745   2.317  0.2524 -0.0894  0.4750
13483TIP3    H161940   3.885   6.716   2.271 -0.4710  0.0911 -0.9285
13483TIP3    H261941   3.784   6.673   2.376  0.4165 -0.9462 -0.4822
13484TIP3   OH261942   5.294   6.217   3.819 -0.4557  0.6465 -0.6519
13484TIP3    H161943   5.249   6.234   3.736 -1.5672 -1.5503 -0.5870
13484TIP3    H261944   5.272   6.126   3.839  2.8089 -0.0770  0.2010
13485TIP3   OH261945   4.032   2.791  15.657  0.1892 -0.3103  0.0342
13485TIP3    H161946   4.014   2.697  15.659 -2.4126  0.1038 -0.2885
13485TIP3    H261947   3.947   2.832  15.669  1.2985  2.0396  0.5030
13486TIP3   OH261948   0.399   1.074  15.103  0.1611  0.3484 -0.1072
13486TIP3    H161949   0.403   0.989  15.060  1.4490  0.3325  0.0194
13486TIP3    H261950   0.330   1.064  15.169  0.8258 -0.8560  0.4484
13487TIP3   OH261951   0.515   3.052   0.875  0.4293 -0.7364 -0.0276
13487TIP3    H161952   0.500   2.988   0.806  1.0035 -1.2189  0.2902
13487TIP3    H261953   0.555   3.002   0.946 -1.4105 -0.5512  1.2142
13488TIP3   OH261954   3.472   4.499  14.478 -0.5334 -0.3338 -0.5862
13488TIP3    H161955   3.567   4.514  14.485 -0.7754  0.4647  2.0126
13488TIP3    H261956   3.441   4.569  14.421  0.5585 -1.4531 -2.6946
13489TIP3   OH261957   0.966   2.150  14.415 -0.2601  0.2580  0.1224
13489TIP3    H161958   1.059   2.137  14.436 -0.3986 -1.8931 -0.3385
13489TIP3    H261959   0.922   2.148  14.500 -0.0660 -0.8251  0.2172
13490TIP3   OH261960   2.693   4.008  14.678  0.4769 -0.2449  0.8485
13490TIP3    H161961   2.717   3.918  14.702 -1.3869 -0.8168  0.7362
13490TIP3    H261962   2.682   4.052  14.762  1.4186 -0.1103  0.9043
13491TIP3   OH261963   4.601   4.856  15.678 -0.6463 -0.1069  0.2349
13491TIP3    H161964   4.677   4.876  15.623  0.7539 -2.3932  1.2007
13491TIP3    H261965   4.574   4.768  15.650 -0.5952 -0.8536  2.3641
13492TIP3   OH261966   1.748   6.662   5.374  0.0564 -0.2016 -0.2039
13492TIP3    H161967   1.732   6.746   5.332 -1.4781  0.0480  0.8259
13492TIP3    H261968   1.668   6.611   5.359  0.5322 -1.0762  0.1431
13493TIP3   OH261969   3.322   4.920   6.193  0.1086 -0.3149  0.0336
13493TIP3    H161970   3.381   4.902   6.266 -0.0670  0.0160  0.2575
13493TIP3    H261971   3.245   4.865   6.210 -0.8236  1.2721  1.2063
13494TIP3   OH261972   2.302   6.144   3.210 -0.3461 -0.0983  0.5713
13494TIP3    H161973   2.341   6.060   3.185  0.6019 -0.0668  1.8373
13494TIP3    H261974   2.288   6.189   3.127  1.3726 -0.5403 -0.0161
13495TIP3   OH261975   1.282   6.251  13.395 -0.2327  0.0533  0.2380
13495TIP3    H161976   1.331   6.332  13.382 -0.8092  0.1122 -1.9852
13495TIP3    H261977   1.337   6.198  13.453  0.0412  2.0911  1.9400
13496TIP3   OH261978   2.786   3.035   0.860  0.4034 -0.1422  0.5277
13496TIP3    H161979   2.881   3.045   0.864  0.4007  0.3081 -0.3199
13496TIP3    H261980   2.773   2.953   0.813  0.3642 -0.6906  1.4578
13497TIP3   OH261981   6.191   5.596  12.751  0.3535 -0.2564 -0.4069
13497TIP3    H161982   6.225   5.560  12.669 -0.4268  0.7663 -1.2113
13497TIP3    H261983   6.096   5.589  12.741  0.1473 -3.6121  2.0240
13498TIP3   OH261984   5.262   4.282  16.076  0.4962  0.4068 -0.4082
13498TIP3    H161985   5.242   4.189  16.090 -1.1246  0.3881 -2.3904
13498TIP3    H261986   5.215   4.327  16.146  0.3717 -0.2014 -0.0924
13499TIP3   OH261987   4.306   2.425   4.693  0.3775 -0.6494  0.3785
13499TIP3    H161988   4.372   2.371   4.737 -1.0506 -0.7027  2.6354
13499TIP3    H261989   4.237   2.363   4.668 -0.1907 -0.2239  0.8421
13500TIP3   OH261990   4.969   0.960  13.715 -0.3241 -0.1769 -0.0511
13500TIP3    H161991   4.976   0.985  13.623 -1.7806 -1.7018 -0.6217
13500TIP3    H261992   4.950   0.867  13.713 -1.1486 -0.0853  1.7775
13501TIP3   OH261993   0.448   5.383  16.415  0.1235  0.6530 -0.1291
13501TIP3    H161994   0.408   5.296  16.420 -0.3504  0.9065  0.5915
13501TIP3    H261995   0.542   5.365  16.411 -0.0256  0.0141 -3.1045
13502TIP3   OH261996   3.642   1.446  16.042  0.0323 -0.1696  0.6593
13502TIP3    H161997   3.680   1.533  16.055 -1.1877  0.3635  0.7862
13502TIP3    H261998   3.677   1.394  16.114 -1.9219  1.1635  2.7180
13503TIP3   OH261999   3.193   4.659   4.405 -0.2998  0.7118 -0.1270
13503TIP3    H162000   3.235   4.703   4.332  3.1910 -0.7228  0.8419
13503TIP3    H262001   3.149   4.730   4.453 -1.1535  1.9264 -2.5328
13504TIP3   OH262002   5.502   5.641  15.620 -0.7546  0.6895  0.0873
13504TIP3    H162003   5.567   5.572  15.628 -0.0881  1.3473  0.4713
13504TIP3    H262004   5.427   5.609  15.670 -1.2416 -0.6325 -1.3936
13505TIP3   OH262005   1.701   6.224  16.588  0.1885 -0.4914  0.4354
13505TIP3    H162006   1.661   6.179  16.514 -0.9328 -1.6645  1.6824
13505TIP3    H262007   1.738   6.304  16.551 -3.0831  0.5675 -0.9145
13506TIP3   OH262008   0.363   1.886   1.805 -0.2651  0.2858  0.2453
13506TIP3    H162009   0.455   1.903   1.825 -0.6810  1.8062  0.9983
13506TIP3    H262010   0.321   1.878   1.891 -1.2601  2.1888 -0.0120
13507TIP3   OH262011   5.637   4.088  12.714  0.2459  0.1505  0.1664
13507TIP3    H162012   5.712   4.033  12.738  1.5891  1.3134 -1.1670
13507TIP3    H262013   5.610   4.055  12.628 -0.9014 -0.3519  0.6990
13508TIP3   OH262014   4.911   1.887   1.451 -0.1615  0.1413 -0.9719
13508TIP3    H162015   4.860   1.940   1.390 -0.8935  0.3246 -0.2067
13508TIP3    H262016   4.887   1.920   1.538  0.0118 -0.8788 -0.5287
13509TIP3   OH262017   4.043   3.901  12.038 -0.3912 -0.2187 -0.0688
13509TIP3    H162018   4.022   3.983  11.992 -1.9731 -0.3406  0.3707
13509TIP3    H262019   4.073   3.842  11.969 -0.6376  0.2884 -0.6185
13510TIP3   OH262020   2.453   2.688  15.526 -0.1903  0.9753 -0.3023
13510TIP3    H162021   2.411   2.638  15.456 -0.4385  0.4488  0.2105
13510TIP3    H262022   2.399   2.671  15.603  0.5751  0.8391  0.2150
13511TIP3   OH262023   5.960   3.333   2.040  0.0005  0.4379 -0.4414
13511TIP3    H162024   5.881   3.337   2.093  0.9357  1.2706  0.9498
13511TIP3    H262025   5.980   3.424   2.018  1.1558  0.3580  0.1608
13512TIP3   OH262026   1.693   0.402  14.624 -0.4095 -0.2680 -0.3145
13512TIP3    H162027   1.772   0.450  14.600 -0.3912 -0.8027 -1.3858
13512TIP3    H262028   1.708   0.376  14.715  0.9748 -0.9945 -0.7226
13513TIP3   OH262029   3.234   5.248  16.831  0.3220 -0.3132 -1.1361
13513TIP3    H162030   3.304   5.197  16.791 -0.5261 -0.9063 -1.9204
13513TIP3    H262031   3.159   5.236  16.773 -0.0921  1.3178 -0.9920
13514TIP3   OH262032   4.699   5.198  12.737 -0.3777 -0.0566 -0.7932
13514TIP3    H162033   4.625   5.217  12.678 -0.3741 -0.4703 -0.9292
13514TIP3    H262034   4.766   5.261  12.711 -1.0910  1.1368  0.1107
13515TIP3   OH262035   3.593   4.843   1.230  0.2857  0.2100 -0.2981
13515TIP3    H162036   3.635   4.758   1.228 -0.1578 -0.0474  0.8355
13515TIP3    H262037   3.631   4.888   1.306  0.4210  0.9787 -0.8023
13516TIP3   OH262038   0.654   5.723  12.742 -0.0085 -0.4103  0.1260
13516TIP3    H162039   0.574   5.768  12.713  0.1046  0.1938  0.7169
13516TIP3    H262040   0.725   5.772  12.701  0.0633 -0.9316 -0.3771
13517TIP3   OH262041   1.811   0.573   2.719 -0.2984  0.1282  0.1654
13517TIP3    H162042   1.808   0.488   2.763 -1.3238  0.6170  1.0895
13517TIP3    H262043   1.722   0.584   2.685 -0.1488  0.7973 -0.0104
13518TIP3   OH262044   1.669   0.651  14.041  0.0142 -0.1094  1.0502
13518TIP3    H162045   1.618   0.731  14.026 -2.0924 -0.8484  3.5885
13518TIP3    H262046   1.737   0.677  14.103 -0.8724 -0.2801  2.1355
13519TIP3   OH262047   0.941   1.102  13.064 -0.7747  0.0121  0.0177
13519TIP3    H162048   1.015   1.139  13.114  0.6091  0.4038 -2.1968
13519TIP3    H262049   0.959   1.008  13.061  0.0496  0.1834 -1.0814
13520TIP3   OH262050   2.563   4.539   2.794 -0.6971  0.5636  1.0622
13520TIP3    H162051   2.613   4.594   2.734 -0.7925  1.6767  1.9745
13520TIP3    H262052   2.481   4.522   2.747 -0.1868  0.1740  0.2797
13521TIP3   OH262053   4.648   2.667   6.463  0.1805 -0.1224  0.1156
13521TIP3    H162054   4.565   2.622   6.446  0.3625 -0.4327  0.0301
13521TIP3    H262055   4.673   2.638   6.550 -0.3120  0.7767  0.5617
13522TIP3   OH262056   4.580   1.938  16.883  0.1507 -0.2368  0.2043
13522TIP3    H162057   4.568   1.881  16.807  0.5352 -0.2591  0.1561
13522TIP3    H262058   4.674   1.931  16.904  0.3602  0.9429 -0.2505
13523TIP3   OH262059   3.681   1.431  14.838  0.2663  1.4165  1.1261
13523TIP3    H162060   3.724   1.351  14.868 -0.2670  0.2890 -0.8935
13523TIP3    H262061   3.699   1.432  14.744 -0.7082  3.0885  0.9411
13524TIP3   OH262062   3.542   3.634  13.217  0.0075 -0.5527  0.8597
13524TIP3    H162063   3.537   3.708  13.155 -1.1348 -1.8019 -0.6229
13524TIP3    H262064   3.549   3.676  13.303  0.1058  1.2786  0.0175
13525TIP3   OH262065   2.371   1.881  11.592 -0.2846  0.1454 -0.0723
13525TIP3    H162066   2.327   1.925  11.664  0.8504 -1.1045  1.4398
13525TIP3    H262067   2.430   1.818  11.634  2.0471  0.8756 -2.0038
13526TIP3   OH262068   6.120   5.952   3.706  0.2951 -0.3923 -0.0860
13526TIP3    H162069   6.109   5.896   3.629 -0.4629  0.8132 -0.8908
13526TIP3    H262070   6.044   6.011   3.704 -1.0487 -1.7941  2.8895
13527TIP3   OH262071   2.292   6.732   3.878  0.1318  0.4580  0.0326
13527TIP3    H162072   2.379   6.692   3.879 -0.2363 -0.3402  0.8934
13527TIP3    H262073   2.307   6.820   3.844  1.3452  0.4923  0.6135
13528TIP3   OH262074   5.161   0.284  10.262 -0.6031  0.2385  0.1814
13528TIP3    H162075   5.079   0.302  10.215 -0.6051  0.0765  0.1209
13528TIP3    H262076   5.152   0.193  10.290 -0.5407  0.2917  0.3733
13529TIP3   OH262077   3.437   1.676  11.272 -0.7879  0.2834 -0.0801
13529TIP3    H162078   3.445   1.731  11.194  1.0804  0.5528  0.2447
13529TIP3    H262079   3.485   1.596  11.251 -1.3053 -0.1561  0.3679
13530TIP3   OH262080   6.009   3.905  13.805  0.0413 -0.7968  0.7326
13530TIP3    H162081   6.085   3.848  13.816  1.7245  1.1821 -0.0301
13530TIP3    H262082   6.000   3.915  13.710  0.3965  0.9206  0.8485
13531TIP3   OH262083   0.894   6.465   2.095 -0.0008  1.0202  0.1325
13531TIP3    H162084   0.984   6.494   2.086 -0.2646  1.2529 -2.6229
13531TIP3    H262085   0.851   6.493   2.014 -2.1957 -0.3079  0.7365
13532TIP3   OH262086   5.861   2.317   5.908  0.1910  0.6988  0.1491
13532TIP3    H162087   5.772   2.309   5.941  0.3176 -0.2217  0.3084
13532TIP3    H262088   5.883   2.229   5.878 -0.0310  1.5065 -2.7128
13533TIP3   OH262089   4.344   1.511   3.207 -0.6563  0.2070 -0.0876
13533TIP3    H162090   4.382   1.424   3.200  0.0362  0.4689  0.3342
13533TIP3    H262091   4.269   1.500   3.264 -2.2228 -0.6225 -2.1745
13534TIP3   OH262092   0.610   3.311   2.715 -0.5637  0.0273 -0.3103
13534TIP3    H162093   0.685   3.371   2.716  0.1255 -0.8298  0.4887
13534TIP3    H262094   0.624   3.258   2.636 -1.5999  1.4090 -1.4665
13535TIP3   OH262095   4.143   4.889  13.180  0.3207 -0.2117 -0.1951
13535TIP3    H162096   4.198   4.950  13.131 -1.3106  0.1490 -1.6206
13535TIP3    H262097   4.206   4.838  13.232  1.8586  1.3728 -0.4080
13536TIP3   OH262098   1.106   6.357  14.324 -0.5285  0.0629 -0.4101
13536TIP3    H162099   1.099   6.435  14.269  3.1320  1.3556  0.7052
13536TIP3    H262100   1.070   6.384  14.408 -1.6632 -0.3584 -0.7400
13537TIP3   OH262101   5.832   5.904  16.011  0.1850 -0.2966 -0.5860
13537TIP3    H162102   5.819   5.816  16.046  2.2098 -1.4033 -2.3265
13537TIP3    H262103   5.763   5.957  16.051  1.1557 -1.7467  3.5240
13538TIP3   OH262104   5.590   5.434   3.121  0.1058 -0.7272 -0.2583
13538TIP3    H162105   5.654   5.505   3.120 -1.3079  0.5856 -0.7684
13538TIP3    H262106   5.580   5.410   3.029  1.6443 -2.6467  0.0113
13539TIP3   OH262107   0.291   5.588  15.593  0.7662  0.0429  0.4365
13539TIP3    H162108   0.208   5.578  15.640  0.9797 -1.3841  0.5754
13539TIP3    H262109   0.285   5.673  15.551 -0.6912  0.0527  0.6046
13540TIP3   OH262110   4.033   2.998  16.538 -0.5662 -0.1541  0.3972
13540TIP3    H162111   4.097   3.049  16.589  0.7011 -1.0502 -0.2324
13540TIP3    H262112   3.997   2.935  16.600  1.1316 -1.3901  0.1875
13541TIP3   OH262113   3.033   6.568  14.727  0.1741  0.1765 -0.2148
13541TIP3    H162114   3.067   6.572  14.816  1.1344 -1.7456 -0.4402
13541TIP3    H262115   2.944   6.602  14.733  0.3801  0.4880  1.3844
13542TIP3   OH262116   1.189   4.642   6.207 -0.2855  0.1136 -0.2886
13542TIP3    H162117   1.241   4.688   6.273 -0.0066 -1.6088  0.7479
13542TIP3    H262118   1.197   4.696   6.129  1.8923  0.6654  0.2397
13543TIP3   OH262119   1.735   1.351  16.144 -0.0478 -0.6403 -0.0392
13543TIP3    H162120   1.815   1.320  16.102 -0.2259 -2.8210  1.0671
13543TIP3    H262121   1.666   1.293  16.111 -1.3414  1.4469 -1.2947
13544TIP3   OH262122   5.096   5.342   3.768  0.0740 -0.0686 -0.5055
13544TIP3    H162123   5.189   5.319   3.770  0.9245  3.0028  2.0022
13544TIP3    H262124   5.091   5.419   3.712 -1.3121 -1.0702 -1.8739
13545TIP3   OH262125   3.972   4.733   0.781 -0.4325  0.2525 -0.4781
13545TIP3    H162126   3.915   4.748   0.857 -0.9266  0.8089 -0.9484
13545TIP3    H262127   4.042   4.798   0.791  0.1515 -0.4431  0.1093
13546TIP3   OH262128   6.794   2.488  13.177  0.3268  0.1629  0.6382
13546TIP3    H162129   6.871   2.485  13.120  0.8618 -1.0181  1.3804
13546TIP3    H262130   6.829   2.473  13.265 -0.6746  0.3169  1.0684
13547TIP3   OH262131   3.392   0.359   4.863 -0.3223 -0.1013  0.0947
13547TIP3    H162132   3.344   0.289   4.817  1.3067 -0.6996 -0.7812
13547TIP3    H262133   3.385   0.336   4.955  1.9103 -2.7224 -0.2440
13548TIP3   OH262134   4.798   5.652  12.352  0.4716 -0.2140 -0.4332
13548TIP3    H162135   4.740   5.622  12.422 -0.5535  0.4552 -0.9637
13548TIP3    H262136   4.859   5.579  12.338  0.9360 -0.2137  1.3846
13549TIP3   OH262137   5.894   4.208   2.931 -0.1960 -0.0521 -1.0041
13549TIP3    H162138   5.829   4.195   2.862 -1.6793  1.6466 -0.0001
13549TIP3    H262139   5.850   4.181   3.012  0.6944  0.2056 -0.4207
13550TIP3   OH262140   0.492   1.764   1.582  0.0361 -0.4968 -1.0467
13550TIP3    H162141   0.571   1.768   1.636  0.3322 -0.3424 -1.4847
13550TIP3    H262142   0.422   1.790   1.640  0.6233  1.7523 -1.2554
13551TIP3   OH262143   2.374   6.768   4.713  0.2358 -0.3625  0.2223
13551TIP3    H162144   2.343   6.678   4.716 -0.6488 -0.0707  3.5466
13551TIP3    H262145   2.424   6.774   4.632 -1.3769 -3.2360 -1.1006
13552TIP3   OH262146   3.679   1.883  12.626  0.0572  0.1043  0.3742
13552TIP3    H162147   3.678   1.908  12.718  1.6935  1.2940  0.1161
13552TIP3    H262148   3.739   1.945  12.585 -1.2328  0.1014 -1.6601
13553TIP3   OH262149   3.350   4.767  17.280 -0.6889 -0.0250 -0.1425
13553TIP3    H162150   3.353   4.673  17.266  0.1843 -0.0316  0.0821
13553TIP3    H262151   3.321   4.803  17.196  0.6031 -0.3733 -0.7566
13554TIP3   OH262152   2.326   1.737  16.233 -0.1014 -0.1651  0.5905
13554TIP3    H162153   2.244   1.749  16.186  0.3235  0.8518  0.0707
13554TIP3    H262154   2.388   1.706  16.166  0.8383  2.4978  0.0929
13555TIP3   OH262155   5.393   4.926  14.113 -0.0971  0.2550  0.2321
13555TIP3    H162156   5.466   4.986  14.103 -0.0973  0.0059 -1.3951
13555TIP3    H262157   5.332   4.949  14.044 -1.3371  0.1114  1.2352
13556TIP3   OH262158   3.908   5.447  12.932 -0.3271 -0.0580  0.1627
13556TIP3    H162159   3.884   5.404  13.014  0.6251  0.2566  0.6137
13556TIP3    H262160   3.883   5.539  12.946 -0.6178 -0.0960 -0.0932
13557TIP3   OH262161   6.141   3.178  13.575 -0.0879  0.0537 -0.1317
13557TIP3    H162162   6.125   3.167  13.481  0.4083 -0.7301 -0.1418
13557TIP3    H262163   6.152   3.272  13.587 -1.9408  0.3569 -0.5521
13558TIP3   OH262164   0.800   3.713  11.592 -0.4355 -0.5667 -0.0692
13558TIP3    H162165   0.787   3.804  11.566  1.7462 -0.2317 -0.2315
13558TIP3    H262166   0.862   3.679  11.527 -1.2017 -2.1731 -0.0050
13559TIP3   OH262167   6.157   5.140  17.225  0.0169  0.4299 -0.0148
13559TIP3    H162168   6.095   5.210  17.204  1.5150  1.7395 -0.2609
13559TIP3    H262169   6.111   5.085  17.289 -1.0366  1.8891  0.5277
13560TIP3   OH262170   6.625   5.722   4.992 -0.0930 -0.2261 -0.4092
13560TIP3    H162171   6.675   5.728   5.073 -0.5891  2.5426 -0.2337
13560TIP3    H262172   6.640   5.632   4.962  2.7384 -0.3603  1.0344
13561TIP3   OH262173   4.649   0.725  10.376 -0.0729  0.0129 -0.4262
13561TIP3    H162174   4.670   0.818  10.381 -1.3853  0.3389 -0.4481
13561TIP3    H262175   4.625   0.700  10.465  0.6862 -0.4180 -0.3355
13562TIP3   OH262176   4.154   5.035   1.454 -0.2657 -0.2134 -0.8208
13562TIP3    H162177   4.109   5.056   1.372 -2.2886 -3.6161 -0.7658
13562TIP3    H262178   4.228   4.980   1.427  1.0053  1.3020 -0.5322
13563TIP3   OH262179   6.314   6.713   3.815  0.5447 -0.3017 -0.5638
13563TIP3    H162180   6.366   6.729   3.894 -0.0861 -0.3254 -0.1379
13563TIP3    H262181   6.354   6.769   3.748  1.1202 -0.3258 -0.2452
13564TIP3   OH262182   3.389   2.826  13.084  0.0491 -0.2527  0.1451
13564TIP3    H162183   3.476   2.861  13.098  0.0792 -0.4046  0.3510
13564TIP3    H262184   3.401   2.731  13.086 -0.0300 -0.2799 -0.4071
13565TIP3   OH262185   0.323   6.561   1.237  0.1066 -0.3906 -0.3829
13565TIP3    H162186   0.305   6.487   1.179  0.9762 -0.1454 -0.9855
13565TIP3    H262187   0.281   6.537   1.320  0.1749 -1.4566 -0.6394
13566TIP3   OH262188   0.327   0.955   5.540 -0.3882 -0.5102  0.5969
13566TIP3    H162189   0.322   1.041   5.582 -0.0349 -0.2565  0.1454
13566TIP3    H262190   0.267   0.961   5.466 -0.4580 -0.6969  0.6382
13567TIP3   OH262191   6.540   4.036  16.257 -0.1241 -0.7672 -0.3330
13567TIP3    H162192   6.611   4.019  16.195  1.4077  1.3763  0.6763
13567TIP3    H262193   6.566   3.988  16.336 -0.5958 -1.1765 -0.4190
13568TIP3   OH262194   4.696   3.543   0.481  0.2751 -0.5106  0.0685
13568TIP3    H162195   4.623   3.578   0.531  0.8360 -1.5810  1.7074
13568TIP3    H262196   4.769   3.603   0.498  0.4887 -0.9205  0.6075
13569TIP3   OH262197   6.048   4.697  16.544  0.8154  0.0739  0.3071
13569TIP3    H162198   6.027   4.606  16.525  1.0691  0.1534 -0.3678
13569TIP3    H262199   6.090   4.730  16.464 -1.2268  1.3947 -0.3199
13570TIP3   OH262200   4.868   3.821  11.121 -0.0192 -0.0718  0.4744
13570TIP3    H162201   4.865   3.804  11.027 -1.3528  1.9489  0.0869
13570TIP3    H262202   4.786   3.787  11.155 -0.3884  0.8796  0.5650
13571TIP3   OH262203   2.428   0.094  13.250 -0.6139  0.1026 -0.0449
13571TIP3    H162204   2.409   0.003  13.271  1.1942 -0.5074 -0.8551
13571TIP3    H262205   2.365   0.117  13.182 -1.8141 -0.1554  0.9445
13572TIP3   OH262206   1.658   3.142  11.510  0.0189  0.5239 -0.1666
13572TIP3    H162207   1.640   3.052  11.538 -0.1389  0.8062  0.6789
13572TIP3    H262208   1.716   3.133  11.435 -1.6901 -0.3475 -1.4630
13573TIP3   OH262209   5.140   2.622  13.387 -0.1190 -0.1449  0.0356
13573TIP3    H162210   5.161   2.696  13.331  0.7757  0.9587  1.7431
13573TIP3    H262211   5.045   2.612  13.380 -0.1999  0.8880 -0.5444
13574TIP3   OH262212   5.380   3.479  13.943 -0.7189  0.2902  0.4107
13574TIP3    H162213   5.442   3.489  14.016  0.0514 -2.4658  0.2487
13574TIP3    H262214   5.385   3.562  13.897  1.5980  0.8007  1.3924
13575TIP3   OH262215   5.878   2.823  11.507  0.0389  0.0577 -0.1502
13575TIP3    H162216   5.940   2.856  11.571  0.9757 -0.9818 -0.4815
13575TIP3    H262217   5.856   2.899  11.453  2.6401  0.0980 -1.3238
13576TIP3   OH262218   2.059   2.602   1.054  0.0176  0.1317 -0.4031
13576TIP3    H162219   1.966   2.579   1.049  0.0943 -0.1851 -0.4466
13576TIP3    H262220   2.087   2.568   1.138  0.1098  0.1663 -0.4197
13577TIP3   OH262221   4.227   2.964   6.098 -0.0275  0.0826  0.2512
13577TIP3    H162222   4.140   2.994   6.071 -0.2743 -0.4147  0.4976
13577TIP3    H262223   4.246   3.014   6.177  0.2235  0.7230 -0.2021
13578TIP3   OH262224   0.727   3.498  13.969  0.4060 -0.0331 -0.3068
13578TIP3    H162225   0.660   3.566  13.975 -0.0669 -0.5003 -0.2379
13578TIP3    H262226   0.738   3.468  14.059  0.8634  0.1789 -0.2848
13579TIP3   OH262227   5.298   1.944  16.945  0.1628 -0.1329  0.1144
13579TIP3    H162228   5.378   1.919  16.992 -0.7410 -0.9612  1.2775
13579TIP3    H262229   5.267   1.862  16.906 -0.5467  0.0113  0.3586
13580TIP3   OH262230   1.580   0.477   5.443  0.5364 -0.2422  0.3835
13580TIP3    H162231   1.616   0.473   5.355 -0.2485 -0.3597  0.0583
13580TIP3    H262232   1.622   0.552   5.484  0.7950 -0.1020 -0.1438
13581TIP3   OH262233   2.562   2.828  12.706  0.0886 -0.3308  0.1041
13581TIP3    H162234   2.619   2.774  12.652  1.4927  1.4473 -0.2541
13581TIP3    H262235   2.580   2.799  12.796  1.4827  0.1317 -0.0166
13582TIP3   OH262236   5.229   4.636   2.158  0.1957  0.1502 -0.5106
13582TIP3    H162237   5.210   4.543   2.152  0.1544  0.2233 -1.5622
13582TIP3    H262238   5.156   4.672   2.210  0.2621 -0.4020 -0.0186
13583TIP3   OH262239   3.508   3.974  14.709  0.3799  0.0724 -0.0615
13583TIP3    H162240   3.529   3.927  14.629 -0.6322 -0.6442  0.0855
13583TIP3    H262241   3.480   3.907  14.771  1.8453  0.5151  1.1551
13584TIP3   OH262242   3.299   3.721  11.939  0.0420 -0.2890  0.2233
13584TIP3    H162243   3.293   3.666  11.861 -0.1127 -1.6379  1.1514
13584TIP3    H262244   3.390   3.750  11.940 -0.0035 -0.0921 -0.5568
13585TIP3   OH262245   2.442   0.951   5.760 -0.3764  0.1911 -0.4024
13585TIP3    H162246   2.439   1.038   5.800 -1.8710 -0.0386  0.0256
13585TIP3    H262247   2.532   0.942   5.729  0.0733  1.4722  0.4745
13586TIP3   OH262248   4.490   3.656  13.826 -0.3367 -0.6500  0.2061
13586TIP3    H162249   4.521   3.597  13.757  0.6315  0.9620 -0.8177
13586TIP3    H262250   4.566   3.667  13.884  0.0342  0.8173 -0.5211
13587TIP3   OH262251   4.796   2.439  17.081 -0.2321 -0.6237 -0.2133
13587TIP3    H162252   4.840   2.355  17.082 -0.1035 -0.6732 -2.6810
13587TIP3    H262253   4.813   2.474  16.993 -1.6633  1.2125  0.1652
13588TIP3   OH262254   2.055   2.582  13.444  0.3895  0.3022  0.3749
13588TIP3    H162255   2.038   2.673  13.422 -1.5997  0.5957  2.7459
13588TIP3    H262256   2.088   2.584  13.534  3.7992 -1.1311 -0.6664
13589TIP3   OH262257   0.035   4.600   4.034  0.3906 -0.3041 -0.0921
13589TIP3    H162258   0.064   4.521   3.987 -1.5286 -1.9628  1.3507
13589TIP3    H262259   0.097   4.609   4.106 -0.7844 -2.1081  1.2531
13590TIP3   OH262260   2.414   3.392  11.164  0.3180  0.0974 -0.1570
13590TIP3    H162261   2.374   3.346  11.090  1.3099 -2.1649  0.6532
13590TIP3    H262262   2.498   3.349  11.176  0.8182  1.4197  1.3789
13591TIP3   OH262263   2.555   3.529  11.506  0.1493  0.3308 -0.5540
13591TIP3    H162264   2.512   3.578  11.435  0.5450  1.5564  0.0189
13591TIP3    H262265   2.643   3.511  11.473 -0.2907 -0.8546 -1.1351
13592TIP3   OH262266   5.893   0.148   4.583 -0.1178  0.0169 -0.1853
13592TIP3    H162267   5.956   0.091   4.540 -0.8687 -1.0679  0.1150
13592TIP3    H262268   5.877   0.107   4.668  1.1464  1.9662  1.0979
13593TIP3   OH262269   4.961   1.879  15.338 -0.6253 -0.3658  0.3459
13593TIP3    H162270   5.023   1.951  15.332 -0.9090 -0.2074 -1.2735
13593TIP3    H262271   4.974   1.842  15.425  0.4711  0.7823  0.6904
13594TIP3   OH262272   5.619   6.760   2.218  0.4495  0.3550  0.1709
13594TIP3    H162273   5.630   6.854   2.227  0.2755  0.5557 -1.4400
13594TIP3    H262274   5.590   6.747   2.128  3.3220 -1.4342 -0.6558
13595TIP3   OH262275   5.829   4.354  12.324 -0.1715  0.4455 -0.1185
13595TIP3    H162276   5.828   4.402  12.407 -1.4943  0.0916  0.0929
13595TIP3    H262277   5.918   4.367  12.291  0.1347  1.2923  0.9388
13596TIP3   OH262278   2.439   1.091  13.298 -0.6744 -0.3323 -0.3003
13596TIP3    H162279   2.362   1.148  13.302 -0.3091  0.1645 -0.2294
13596TIP3    H262280   2.506   1.138  13.348 -0.3023 -0.7241 -0.4259
13597TIP3   OH262281   4.957   3.914  13.748 -0.2250 -0.4344  0.3728
13597TIP3    H162282   4.869   3.886  13.720 -0.4850 -0.4842  1.2255
13597TIP3    H262283   5.002   3.832  13.771  0.5417 -0.5575 -1.3854
13598TIP3   OH262284   5.694   0.447  14.090  0.4276  0.4555 -0.1217
13598TIP3    H162285   5.633   0.514  14.120 -0.4832  0.8864 -2.6657
13598TIP3    H262286   5.637   0.380  14.050  1.5266  0.6163 -2.0952
13599TIP3   OH262287   0.765   4.029  13.426 -0.3232  0.1874  0.6620
13599TIP3    H162288   0.849   3.993  13.397 -0.2536 -0.8748  2.0752
13599TIP3    H262289   0.776   4.124  13.423  0.8851  0.0571  0.7202
13600TIP3   OH262290   0.376   2.543  17.279  0.0628 -0.2945  0.1161
13600TIP3    H162291   0.313   2.472  17.293  0.8131 -0.8365  0.8573
13600TIP3    H262292   0.457   2.511  17.319  1.0693  0.0224 -1.5387
13601TIP3   OH262293   2.725   0.113   0.361 -0.7157  0.2013  0.2886
13601TIP3    H162294   2.724   0.209   0.361 -1.4237  0.2038  0.6821
13601TIP3    H262295   2.816   0.090   0.341 -0.3963  0.9622  0.7984
13602TIP3   OH262296   5.766   6.068  15.729  0.0605 -0.0086 -0.0266
13602TIP3    H162297   5.730   5.989  15.770  1.3180 -0.5693  0.0279
13602TIP3    H262298   5.717   6.076  15.647 -0.9907 -0.0870  0.5717
13603TIP3   OH262299   2.323   0.203  13.721  0.1688 -0.3453 -0.4998
13603TIP3    H162300   2.361   0.263  13.657  0.1682 -0.3665 -0.5204
13603TIP3    H262301   2.317   0.255  13.801  1.6900 -0.7823 -0.0597
13604TIP3   OH262302   3.606   0.381   1.846 -0.4833 -0.5438 -0.1153
13604TIP3    H162303   3.581   0.304   1.897  2.6545 -0.9684  0.9898
13604TIP3    H262304   3.569   0.455   1.894 -1.8164 -1.1942 -0.0751
13605TIP3   OH262305   5.949   4.068  14.641 -0.7130 -0.2711  0.3256
13605TIP3    H162306   5.922   3.977  14.638 -0.2303 -0.4504  1.1801
13605TIP3    H262307   6.028   4.069  14.696  0.8350  0.2857 -1.7520
13606TIP3   OH262308   3.325   4.598   5.714  0.4183  0.5689 -0.3607
13606TIP3    H162309   3.377   4.663   5.761  0.4761  2.7225 -3.1648
13606TIP3    H262310   3.389   4.532   5.686  0.1348 -1.8472  3.9005
13607TIP3   OH262311   6.567   6.117  16.162 -0.3521 -0.1542  0.4533
13607TIP3    H162312   6.528   6.056  16.225  0.3489 -0.0440  1.0026
13607TIP3    H262313   6.605   6.186  16.216  1.3317 -0.6764 -0.0130
13608TIP3   OH262314   0.395   3.107  15.015 -0.0092 -0.1089  0.2429
13608TIP3    H162315   0.440   3.060  15.085 -0.9464 -0.7363  0.4506
13608TIP3    H262316   0.347   3.039  14.968  0.9248  0.2445 -1.2777
13609TIP3   OH262317   5.531   5.526   2.586  0.2377  0.1596 -0.3739
13609TIP3    H162318   5.565   5.615   2.601  0.3517 -0.2589  2.5093
13609TIP3    H262319   5.437   5.533   2.602 -0.3439  0.3118 -3.3499
13610TIP3   OH262320   3.999   3.428   2.592 -0.1820  0.3235  0.0935
13610TIP3    H162321   4.025   3.473   2.673 -0.6424  0.6907  0.0439
13610TIP3    H262322   3.969   3.498   2.534 -2.9221 -0.1750  0.7575
13611TIP3   OH262323   5.278   3.722   2.052  0.1941  1.0554  0.3946
13611TIP3    H162324   5.292   3.658   2.121 -0.3864  0.1841 -0.2675
13611TIP3    H262325   5.280   3.807   2.096  3.1825  0.7834  0.9892
13612TIP3   OH262326   2.693   4.486  13.667 -0.3358  0.3557  0.0662
13612TIP3    H162327   2.709   4.580  13.663 -1.4924  0.5285 -2.0867
13612TIP3    H262328   2.780   4.446  13.655  0.2084  1.0908  1.3141
13613TIP3   OH262329   2.264   1.240  16.423 -0.5237 -0.2943  0.1089
13613TIP3    H162330   2.264   1.332  16.397 -3.2266  0.1838  1.4560
13613TIP3    H262331   2.266   1.242  16.518 -0.7716 -1.6130  0.1626
13614TIP3   OH262332   2.153   6.194  16.721 -0.3589 -0.3573 -0.3552
13614TIP3    H162333   2.093   6.179  16.795  0.8335 -0.4174  0.6186
13614TIP3    H262334   2.175   6.287  16.726 -0.4555 -0.3051 -0.7970
13615TIP3   OH262335   5.947   3.545   1.135 -0.3534  0.0065 -0.8580
13615TIP3    H162336   5.868   3.598   1.145 -0.4638  0.1325 -2.1780
13615TIP3    H262337   6.012   3.605   1.100  1.3877  0.7429  3.1088
13616TIP3   OH262338   1.330   2.296  12.633 -0.2167 -0.1956 -0.3705
13616TIP3    H162339   1.271   2.269  12.563 -0.2528 -0.6880 -0.1508
13616TIP3    H262340   1.280   2.364  12.680 -0.5507 -0.4974 -0.2813
13617TIP3   OH262341   5.800   6.416   1.945  0.2941 -0.3426 -0.0792
13617TIP3    H162342   5.836   6.503   1.963 -1.3753  0.2337  0.6984
13617TIP3    H262343   5.876   6.359   1.937  1.5927  1.6349 -3.3147
13618TIP3   OH262344   4.874   0.629   5.659  0.1203  0.0645 -0.0770
13618TIP3    H162345   4.784   0.605   5.638  0.2366  0.2840 -0.8409
13618TIP3    H262346   4.868   0.720   5.689 -0.0733 -0.3155  1.0855
13619TIP3   OH262347   1.970   5.883  15.139  0.7870  0.1278 -0.3356
13619TIP3    H162348   2.047   5.842  15.098 -0.3531 -1.8791 -0.6244
13619TIP3    H262349   1.920   5.918  15.066  1.3703  1.4033 -0.1496
13620TIP3   OH262350   1.145   5.254   4.215 -0.2114  0.2995 -0.3818
13620TIP3    H162351   1.159   5.170   4.258  2.3581 -0.5457 -2.6220
13620TIP3    H262352   1.058   5.248   4.177 -0.5944 -0.7909  0.6273
13621TIP3   OH262353   0.751   2.941  16.368 -0.0650  0.3536  0.3293
13621TIP3    H162354   0.843   2.967  16.365 -0.6318  2.5674 -0.3314
13621TIP3    H262355   0.736   2.916  16.459  1.5180 -1.6286  0.1134
13622TIP3   OH262356   5.562   1.603  13.359  0.2960 -0.0681 -0.0497
13622TIP3    H162357   5.656   1.594  13.343  0.1439 -0.4783 -0.7693
13622TIP3    H262358   5.543   1.694  13.338  0.2742 -0.3603 -1.3686
13623TIP3   OH262359   0.467   2.705   5.871  0.1041  0.5135 -0.4603
13623TIP3    H162360   0.512   2.717   5.955  0.1675  2.0729 -0.6907
13623TIP3    H262361   0.531   2.660   5.816 -0.0683 -0.8644  0.4153
13624TIP3   OH262362   1.011   6.781   1.098  0.5894  0.0144  0.1881
13624TIP3    H162363   0.934   6.742   1.058  1.6492 -1.8885 -0.1210
13624TIP3    H262364   1.014   6.743   1.186  1.0134  0.3168  0.3074
13625TIP3   OH262365   3.185   2.977   6.091 -0.1838 -0.4460 -0.2228
13625TIP3    H162366   3.221   2.910   6.149  1.3560 -0.3455 -1.0244
13625TIP3    H262367   3.138   2.927   6.024  0.7042 -0.7198 -0.6500
13626TIP3   OH262368   0.894   3.311   4.961  0.0041  0.6180  0.1652
13626TIP3    H162369   0.913   3.236   4.905 -1.2224  0.4324 -0.0330
13626TIP3    H262370   0.929   3.386   4.914  0.9878  0.2138  0.2302
13627TIP3   OH262371   6.257   5.544  17.117 -0.7081  0.4058  0.1174
13627TIP3    H162372   6.266   5.466  17.171 -1.1170 -0.4483 -1.0116
13627TIP3    H262373   6.312   5.527  17.040 -0.5335  1.3808  0.0112
13628TIP3   OH262374   1.126   4.338  13.895  0.2759 -0.3444  0.3117
13628TIP3    H162375   1.050   4.281  13.907  1.6577 -2.5415 -0.6325
13628TIP3    H262376   1.162   4.349  13.983 -0.3441 -0.4498  0.5800
13629TIP3   OH262377   2.183   3.540  14.509  0.1393  0.5511 -0.8596
13629TIP3    H162378   2.216   3.628  14.525  0.6740  0.5089 -1.6981
13629TIP3    H262379   2.251   3.483  14.545 -0.1434  0.4660 -0.4422
13630TIP3   OH262380   5.571   3.248  10.725  0.3148 -0.1613 -0.1426
13630TIP3    H162381   5.504   3.303  10.684 -0.8484  0.1364  1.9981
13630TIP3    H262382   5.654   3.289  10.702 -0.5191  2.9770  1.8892
13631TIP3   OH262383   5.772   5.062   4.398  0.3593 -0.0735 -0.7405
13631TIP3    H162384   5.772   5.149   4.358 -1.0557  0.2298 -0.1405
13631TIP3    H262385   5.689   5.023   4.370 -0.3530 -0.1082  1.2553
13632TIP3   OH262386   4.390   3.231  12.678  0.1143  0.2139 -0.5340
13632TIP3    H162387   4.420   3.160  12.621  0.9596  0.0070  0.1391
13632TIP3    H262388   4.463   3.293  12.678  0.2639  0.0597  0.5652
13633TIP3   OH262389   5.332   0.035   5.711  0.2143  0.0223 -0.3337
13633TIP3    H162390   5.317  -0.049   5.668  1.2702 -0.3466 -0.0094
13633TIP3    H262391   5.412   0.023   5.761  0.9967  1.5458 -1.1347
13634TIP3   OH262392   5.484   4.125  11.425 -0.2530 -0.1302 -0.0042
13634TIP3    H162393   5.490   4.049  11.366 -1.2435  0.4230 -0.8417
13634TIP3    H262394   5.447   4.089  11.505 -0.5515 -0.5717 -0.3300
13635TIP3   OH262395   0.129   0.059   4.714  0.5699 -0.1281  0.0415
13635TIP3    H162396   0.219   0.091   4.703 -0.0200  1.3231 -0.8335
13635TIP3    H262397   0.109   0.076   4.806  0.8400  0.5313 -0.0155
13636TIP3   OH262398   0.461   6.241   0.571 -0.1391  0.1250 -0.8059
13636TIP3    H162399   0.494   6.198   0.492  1.7616  0.7126 -0.3921
13636TIP3    H262400   0.514   6.321   0.579  1.6712 -1.1754  2.4208
13637TIP3   OH262401   5.052   6.601   3.793 -0.0118  0.0803 -0.2802
13637TIP3    H162402   5.105   6.535   3.748  0.2457  0.9278 -1.2684
13637TIP3    H262403   4.967   6.560   3.803 -0.5935  0.3965 -3.0750
13638TIP3   OH262404   4.880   5.223  15.051  0.5384 -0.6461  0.2367
13638TIP3    H162405   4.859   5.277  14.976  0.5822 -2.5994 -1.2745
13638TIP3    H262406   4.881   5.283  15.125 -0.8928  1.1166 -1.0901
13639TIP3   OH262407   3.260   3.329   5.449 -0.1985  0.2758 -0.1108
13639TIP3    H162408   3.252   3.359   5.359  1.7877 -2.0577 -1.1652
13639TIP3    H262409   3.176   3.286   5.468 -0.4276  0.3113 -1.0318
13640TIP3   OH262410   6.677   6.565  12.006  0.4622  0.1831  0.6281
13640TIP3    H162411   6.609   6.631  11.992  0.2724  0.0777  1.0507
13640TIP3    H262412   6.656   6.526  12.091 -1.7441 -3.1699 -1.2233
13641TIP3   OH262413   2.362   3.360   6.103  0.5894 -0.0377  0.6707
13641TIP3    H162414   2.385   3.306   6.179  0.4942 -0.4192  0.4291
13641TIP3    H262415   2.304   3.427   6.138 -0.5820 -1.0362  0.6907
13642TIP3   OH262416   0.365   2.953   5.807  0.1381 -0.2489 -0.4127
13642TIP3    H162417   0.292   2.977   5.864  1.4404  1.0705  0.7635
13642TIP3    H262418   0.396   2.869   5.840 -0.1184 -0.2636 -0.2090
13643TIP3   OH262419   4.570   3.640   1.856 -0.0827 -0.4367 -0.2397
13643TIP3    H162420   4.484   3.646   1.899  0.0494  0.1959 -0.0444
13643TIP3    H262421   4.632   3.638   1.929  0.0743 -0.7667 -0.3839
13644TIP3   OH262422   2.917   4.264  11.359  1.1514  0.2737  0.1120
13644TIP3    H162423   2.823   4.282  11.367  1.1704  0.4199  0.0025
13644TIP3    H262424   2.928   4.179  11.402  0.8173 -0.1651 -0.6527
13645TIP3   OH262425   3.531   5.340  15.031 -0.3163  0.4118  0.1101
13645TIP3    H162426   3.577   5.328  15.114  0.1893  1.4343 -0.0029
13645TIP3    H262427   3.483   5.258  15.018  0.6079 -0.2596  0.7745
13646TIP3   OH262428   1.143   6.436   4.049  0.6775  0.4495 -0.0795
13646TIP3    H162429   1.158   6.376   4.122 -0.7897 -0.1530 -0.2387
13646TIP3    H262430   1.185   6.394   3.974  1.5570  0.7173  0.2483
13647TIP3   OH262431   1.502   2.595  12.626  0.1558  0.4263  0.3187
13647TIP3    H162432   1.497   2.626  12.716 -0.7089  1.4283 -0.0543
13647TIP3    H262433   1.414   2.564  12.605  0.3362  0.2367 -0.1962
13648TIP3   OH262434   2.584   0.254  16.412  0.0684 -0.4837  0.0390
13648TIP3    H162435   2.623   0.288  16.492  0.4276  1.4929 -0.9282
13648TIP3    H262436   2.490   0.267  16.424  0.2030  1.0783 -0.3665
13649TIP3   OH262437   2.198   3.262  15.216 -0.1201 -0.4435  0.1376
13649TIP3    H162438   2.224   3.222  15.299 -1.4774  0.1214  0.8766
13649TIP3    H262439   2.246   3.344  15.213 -0.3530 -0.2876  0.5621
13650TIP3   OH262440   4.877   0.182  15.851 -0.5541  0.4359 -0.2609
13650TIP3    H162441   4.923   0.110  15.806 -2.9198 -0.3763 -1.5674
13650TIP3    H262442   4.840   0.234  15.780 -1.6646  1.0220  0.7263
13651TIP3   OH262443   6.467   1.466  13.519 -0.3479  0.2722  0.8158
13651TIP3    H162444   6.394   1.494  13.574 -1.3660  0.9732 -0.7983
13651TIP3    H262445   6.482   1.540  13.460  1.0463 -0.2413  0.4956
13652TIP3   OH262446   5.416   5.374   6.473 -0.4082 -0.5916  0.5886
13652TIP3    H162447   5.336   5.420   6.447 -0.5177 -2.4655 -3.0792
13652TIP3    H262448   5.470   5.442   6.513 -2.0954  1.8112 -0.9072
13653TIP3   OH262449   2.468   4.240  13.135 -0.2339  0.3346  0.3603
13653TIP3    H162450   2.468   4.173  13.203 -0.3254 -0.0265  0.0099
13653TIP3    H262451   2.445   4.193  13.055  1.0152  0.5412 -0.1354
13654TIP3   OH262452   6.498   3.826  12.153  0.3744 -0.1607  0.1691
13654TIP3    H162453   6.555   3.775  12.095  0.7432 -1.4256  1.5882
13654TIP3    H262454   6.508   3.785  12.239 -1.4268  0.6194  0.7976
13655TIP3   OH262455   1.423   3.369   2.017 -0.1221  0.1851 -0.6080
13655TIP3    H162456   1.507   3.369   2.063 -0.1247 -2.3775 -0.4398
13655TIP3    H262457   1.446   3.385   1.925  0.6444 -1.0214 -0.6487
13656TIP3   OH262458   4.808   1.765  13.278  0.8817 -0.5614  0.0270
13656TIP3    H162459   4.797   1.829  13.349  1.6848 -0.6891  0.2745
13656TIP3    H262460   4.768   1.685  13.313  1.7794 -0.7863  0.5862
13657TIP3   OH262461   2.433   2.721  16.720  0.1005 -0.0891 -0.1624
13657TIP3    H162462   2.401   2.638  16.685 -0.9546 -0.0004  0.5566
13657TIP3    H262463   2.412   2.718  16.814  0.4572  0.8008 -0.0400
13658TIP3   OH262464   3.546   2.844  12.707  0.0190 -0.5079  0.3978
13658TIP3    H162465   3.481   2.913  12.724  1.9598  1.4815  0.1599
13658TIP3    H262466   3.549   2.837  12.611  0.2418 -0.5198  0.4063
13659TIP3   OH262467   0.714   2.655  12.328 -0.7557  0.1358 -0.2737
13659TIP3    H162468   0.758   2.736  12.354  0.1418 -0.6743  0.7986
13659TIP3    H262469   0.784   2.600  12.293 -1.0116 -0.8852  0.7626
13660TIP3   OH262470   4.426   1.343  11.390 -0.4498  0.6475 -0.4575
13660TIP3    H162471   4.338   1.350  11.353 -0.3381  1.0609 -0.6503
13660TIP3    H262472   4.427   1.404  11.463 -0.6134 -0.0422  0.1352
13661TIP3   OH262473   6.188   4.740   4.439  0.1702 -0.1958 -0.1865
13661TIP3    H162474   6.279   4.756   4.411 -0.0384 -0.5245 -1.0761
13661TIP3    H262475   6.136   4.799   4.385 -0.3978 -2.0991 -1.8193
13662TIP3   OH262476   1.894   6.201   4.092  0.0350  0.1237  0.1453
13662TIP3    H162477   1.926   6.118   4.055  0.1133 -0.4349  1.3754
13662TIP3    H262478   1.837   6.237   4.025  0.4091 -0.6752 -0.6327
13663TIP3   OH262479   5.470   4.370   6.273  0.7683  0.1130 -0.6008
13663TIP3    H162480   5.566   4.363   6.267  0.8183 -0.1848  0.4544
13663TIP3    H262481   5.454   4.418   6.354  0.0379  1.1819 -1.3474
13664TIP3   OH262482   1.569   3.239  10.980 -0.0485 -0.1350  0.2004
13664TIP3    H162483   1.615   3.224  10.897  2.9240 -0.9317  1.8314
13664TIP3    H262484   1.496   3.177  10.978 -0.3057  0.1580 -1.9531
13665TIP3   OH262485   5.711   5.515  14.123 -0.0771  0.4373 -0.3990
13665TIP3    H162486   5.699   5.427  14.160 -1.6266  1.6230  2.2239
13665TIP3    H262487   5.634   5.528  14.067  0.4294 -0.0415 -1.2247
13666TIP3   OH262488   3.968   2.137   3.225 -0.0059  0.5367 -0.0167
13666TIP3    H162489   3.924   2.166   3.146  0.9223  1.4218 -0.2355
13666TIP3    H262490   3.903   2.147   3.295 -0.9005 -0.4716 -0.6871
13667TIP3   OH262491   5.704   0.044   4.211 -0.5605 -0.4432  0.0103
13667TIP3    H162492   5.776   0.098   4.179  0.5381 -0.7057  1.8740
13667TIP3    H262493   5.653   0.102   4.268  0.4524 -1.2000  1.7831
13668TIP3   OH262494   0.511   4.842   0.787 -0.4038  0.2377 -0.1593
13668TIP3    H162495   0.462   4.913   0.746 -0.7165 -0.1334 -0.4327
13668TIP3    H262496   0.602   4.859   0.762 -0.5776  0.0615 -0.9454
13669TIP3   OH262497   2.937   5.598   4.232 -0.6365 -0.1849 -0.0973
13669TIP3    H162498   2.964   5.566   4.318  0.5174  0.0325 -0.3612
13669TIP3    H262499   2.850   5.635   4.246  0.1165  1.1770  1.2928
13670TIP3   OH262500   0.996   0.069   5.198 -0.2200  0.0386  0.3563
13670TIP3    H162501   1.004   0.076   5.293 -1.8506 -1.8552  0.6771
13670TIP3    H262502   0.925   0.008   5.184  0.4785 -0.3110 -2.1124
13671TIP3   OH262503   2.916   5.005  16.326 -0.0858  0.7722 -0.4577
13671TIP3    H162504   2.823   5.006  16.349 -0.3014  1.3624 -1.3148
13671TIP3    H262505   2.956   5.071  16.383 -0.1912  0.5466 -0.1191
13672TIP3   OH262506   4.620   0.543   3.283 -0.1106 -0.1424  0.3396
13672TIP3    H162507   4.665   0.490   3.349 -0.1384 -2.3583 -1.3024
13672TIP3    H262508   4.588   0.480   3.219 -1.2093  1.8024 -1.1583
13673TIP3   OH262509   0.447   5.582  11.849  0.6254  0.0417  0.2734
13673TIP3    H162510   0.431   5.536  11.767  0.1280  0.4029  0.1605
13673TIP3    H262511   0.391   5.659  11.844 -0.0146 -0.3413  1.2891
13674TIP3   OH262512   2.666   4.844   5.061 -0.3590 -0.0843 -0.6999
13674TIP3    H162513   2.669   4.817   5.153 -1.3256  0.3066 -0.5500
13674TIP3    H262514   2.635   4.935   5.063 -0.6205 -0.1499 -1.4227
13675TIP3   OH262515   1.807   4.261   0.615 -0.3057 -0.0484  0.7144
13675TIP3    H162516   1.805   4.166   0.618 -0.4721 -0.0248  1.5697
13675TIP3    H262517   1.851   4.287   0.696 -2.4538  0.6681  1.7228
13676TIP3   OH262518   4.334   4.630  13.457  0.3065  0.1630 -0.0243
13676TIP3    H162519   4.251   4.670  13.430  0.6332  0.5926 -0.4120
13676TIP3    H262520   4.366   4.687  13.527  1.1469  1.0368 -1.0960
13677TIP3   OH262521   5.810   1.815  13.407  0.6114  0.1422 -0.2168
13677TIP3    H162522   5.735   1.858  13.447 -0.0143 -1.5667  0.5457
13677TIP3    H262523   5.786   1.723  13.403  2.1977 -0.2757 -1.0608
13678TIP3   OH262524   3.060   1.363   3.287 -0.1952  0.1171 -0.0205
13678TIP3    H162525   3.122   1.290   3.284  0.8542  1.0134 -1.5365
13678TIP3    H262526   3.069   1.398   3.376  0.9181 -0.2299  0.0214
13679TIP3   OH262527   5.453   2.138   3.488  0.0033  0.0834 -0.3179
13679TIP3    H162528   5.452   2.113   3.581 -2.5440 -0.3819 -0.3975
13679TIP3    H262529   5.422   2.060   3.442  0.3493  0.6181 -1.4742
13680TIP3   OH262530   2.230   5.635  11.227  0.2752 -0.5919 -0.0526
13680TIP3    H162531   2.284   5.597  11.296  1.5755  0.9255 -0.1689
13680TIP3    H262532   2.140   5.622  11.257  0.7538 -1.4728  1.0889
13681TIP3   OH262533   4.934   1.551  11.743  0.3847 -0.2749  0.1570
13681TIP3    H162534   4.922   1.482  11.678 -0.1188 -0.0030 -0.0539
13681TIP3    H262535   4.929   1.632  11.691  2.1288 -0.1019  0.2262
13682TIP3   OH262536   2.574   3.929  15.658  0.9419  0.0925  0.4236
13682TIP3    H162537   2.504   3.869  15.685  0.2106 -0.1960 -1.9338
13682TIP3    H262538   2.595   3.977  15.738 -1.0680 -0.6918  1.5140
13683TIP3   OH262539   4.489   5.858   1.887  0.3902 -0.2406 -0.3219
13683TIP3    H162540   4.406   5.901   1.910  0.3850 -1.3028  1.9803
13683TIP3    H262541   4.556   5.916   1.923  0.4944 -0.8211  0.4391
13684TIP3   OH262542   1.502   5.069   2.736  0.9394 -0.4904  0.2864
13684TIP3    H162543   1.484   5.148   2.685  1.6187 -0.0953  0.6433
13684TIP3    H262544   1.585   5.087   2.780 -0.0460 -0.4567  2.2415
13685TIP3   OH262545   5.595   6.719   2.630 -0.0869 -0.2902  0.0285
13685TIP3    H162546   5.547   6.709   2.712  0.4359 -0.5453  0.3058
13685TIP3    H262547   5.577   6.639   2.581  1.5572 -1.2536  0.9253
13686TIP3   OH262548   6.524   3.050  13.550 -0.6850  0.0774  0.0572
13686TIP3    H162549   6.573   3.111  13.605 -2.7017  0.9951  0.9217
13686TIP3    H262550   6.590   3.012  13.492  0.9146  1.7661  0.6770
13687TIP3   OH262551   6.584   6.660  14.221 -0.0628  0.5225  0.5703
13687TIP3    H162552   6.521   6.676  14.292  0.7776  1.5682  1.0926
13687TIP3    H262553   6.631   6.742  14.211  2.8381 -0.8707  1.7874
13688TIP3   OH262554   0.341   3.345  11.345 -0.2292 -0.0429 -0.0484
13688TIP3    H162555   0.413   3.376  11.291  0.7125 -0.5040  0.8994
13688TIP3    H262556   0.351   3.393  11.428 -0.5521 -0.6718  0.3655
13689TIP3   OH262557   3.438   3.479  14.246 -0.8322  0.2151 -0.3629
13689TIP3    H162558   3.373   3.534  14.289 -1.3723 -0.9569  0.3834
13689TIP3    H262559   3.416   3.481  14.153 -0.7650  1.3352 -0.3583
13690TIP3   OH262560   0.836   2.153   6.500 -0.1408 -0.5882  0.0860
13690TIP3    H162561   0.771   2.144   6.431  1.0176  2.0475 -1.4508
13690TIP3    H262562   0.869   2.242   6.492  2.9239 -1.4534  1.4594
13691TIP3   OH262563   1.031   2.035   4.951  0.2429  0.3372  0.0590
13691TIP3    H162564   1.092   2.008   5.019 -0.2267  0.5797  0.5858
13691TIP3    H262565   1.040   2.130   4.946 -0.3489  0.4136  0.3941
13692TIP3   OH262566   6.428   0.999  13.978  0.4214 -0.5640 -0.4317
13692TIP3    H162567   6.474   1.079  13.954  0.9052 -0.6975  0.0306
13692TIP3    H262568   6.357   0.991  13.914  1.0547 -0.3751 -1.1626
13693TIP3   OH262569   3.915   6.026  11.698 -0.4156 -0.5174 -0.3346
13693TIP3    H162570   3.894   6.012  11.790 -0.8287  1.1070 -0.1327
13693TIP3    H262571   4.008   6.048  11.697 -0.8261  1.4380 -0.0007
13694TIP3   OH262572   1.550   4.404  12.980  0.3255  0.2286  0.1219
13694TIP3    H162573   1.520   4.386  12.891  1.0468  2.8508 -0.7425
13694TIP3    H262574   1.642   4.377  12.979 -0.1587 -1.5913  0.7400
13695TIP3   OH262575   0.665   0.047  11.400 -0.2006 -0.3688  0.1687
13695TIP3    H162576   0.630   0.082  11.482 -1.6418 -0.7166 -0.2698
13695TIP3    H262577   0.609  -0.027  11.379  0.8847 -1.0233 -0.5375
13696TIP3   OH262578   6.467   5.237   4.241  0.0748  0.0347  0.2642
13696TIP3    H162579   6.450   5.191   4.324 -1.7672  0.3386  0.1093
13696TIP3    H262580   6.415   5.318   4.248  0.4692  0.4071 -0.9006
13697TIP3   OH262581   2.986   0.770  14.927 -0.1808  0.2865  0.1197
13697TIP3    H162582   2.963   0.677  14.927  1.2976 -0.2346 -3.2013
13697TIP3    H262583   2.915   0.813  14.881  0.2568  0.4162 -0.4393
13698TIP3   OH262584   0.928   1.955   1.738  0.1172 -0.2188 -0.5509
13698TIP3    H162585   0.942   2.005   1.657  0.1980  0.5930 -0.0460
13698TIP3    H262586   0.980   2.002   1.803 -0.1131 -0.7507  0.0146
13699TIP3   OH262587   5.272   5.919  13.060 -0.0497 -0.0076 -0.1175
13699TIP3    H162588   5.181   5.946  13.046  0.5947  1.2086 -2.7359
13699TIP3    H262589   5.324   5.991  13.023  1.9784 -1.0145  0.6083
13700TIP3   OH262590   1.471   4.944  15.809  0.1766  0.4770 -0.4742
13700TIP3    H162591   1.460   4.917  15.901 -0.7752  0.3553 -0.6169
13700TIP3    H262592   1.518   5.027  15.815 -0.0380  0.5647  0.1362
13701TIP3   OH262593   6.294   0.400   4.859 -0.1754  0.3883  0.9591
13701TIP3    H162594   6.216   0.427   4.908 -1.5160 -1.5849  0.0341
13701TIP3    H262595   6.308   0.470   4.795 -0.0455  1.6464  2.3085
13702TIP3   OH262596   6.681   6.427  14.688 -0.2491  0.2215  0.0699
13702TIP3    H162597   6.660   6.517  14.663  0.2300  0.2463 -0.2636
13702TIP3    H262598   6.695   6.382  14.605 -0.7394 -0.2302  0.2276
13703TIP3   OH262599   0.496   1.477   3.589  0.1777  0.8068 -0.3146
13703TIP3    H162600   0.583   1.502   3.620  1.0527 -0.8958 -1.2262
13703TIP3    H262601   0.452   1.442   3.666  0.0859  2.1320  0.2604
13704TIP3   OH262602   0.188   3.824   5.013  1.1317  0.4715 -0.4031
13704TIP3    H162603   0.134   3.760   4.966  2.1102  0.9757 -2.2940
13704TIP3    H262604   0.142   3.907   5.004  0.8206  0.3966  0.4173
13705TIP3   OH262605   1.160   1.666   4.601  0.5705 -0.5762 -0.0534
13705TIP3    H162606   1.111   1.604   4.655 -0.9650 -0.5846 -1.3780
13705TIP3    H262607   1.240   1.619   4.578  0.5945 -1.0947  1.0383
13706TIP3   OH262608   0.339   6.515  14.492  0.0711 -0.3703 -0.4562
13706TIP3    H162609   0.365   6.426  14.467 -0.5533 -0.3371 -1.2597
13706TIP3    H262610   0.262   6.503  14.546  0.6883 -0.3685  0.4519
13707TIP3   OH262611   2.211   2.182   1.442  0.1251 -0.0153 -0.0284
13707TIP3    H162612   2.274   2.129   1.491  0.2702 -0.5405 -0.7562
13707TIP3    H262613   2.147   2.210   1.507 -0.5703 -2.0082  0.2303
13708TIP3   OH262614   3.317   0.813  12.129 -0.4491  0.0733 -0.5217
13708TIP3    H162615   3.401   0.787  12.168  0.2262  1.4484 -1.0096
13708TIP3    H262616   3.256   0.816  12.203 -0.3081 -1.7388 -0.2798
13709TIP3   OH262617   2.449   5.482   1.408  0.5651  0.1463  0.0074
13709TIP3    H162618   2.480   5.477   1.499  2.2213 -1.8126 -0.6003
13709TIP3    H262619   2.368   5.431   1.408 -0.0543  1.0966  0.5832
13710TIP3   OH262620   2.707   2.834  16.025 -0.3431  0.1365  0.3802
13710TIP3    H162621   2.748   2.864  16.106  0.1714  0.4433  0.0112
13710TIP3    H262622   2.700   2.913  15.972  0.4923 -0.2864 -0.3791
13711TIP3   OH262623   3.473   4.115   5.174  0.5046 -0.0544 -0.1468
13711TIP3    H162624   3.444   4.154   5.257  2.0653  0.8849  0.0089
13711TIP3    H262625   3.562   4.149   5.162  1.0758 -1.8018 -1.1951
13712TIP3   OH262626   5.402   4.485  15.141 -0.9302  0.3723 -0.1426
13712TIP3    H162627   5.433   4.408  15.190 -0.5633  0.9360  0.5276
13712TIP3    H262628   5.362   4.448  15.062  0.3896 -0.4495 -0.4638
13713TIP3   OH262629   4.295   3.121   3.764 -0.2457 -0.2692  0.4164
13713TIP3    H162630   4.367   3.172   3.801 -0.7726 -0.1032  1.2710
13713TIP3    H262631   4.269   3.169   3.685 -0.6377  0.7438  1.1248
13714TIP3   OH262632   3.981   5.754   1.041  0.1002  0.1006  0.1926
13714TIP3    H162633   3.966   5.732   1.132 -0.6178  3.7128  1.1165
13714TIP3    H262634   4.060   5.706   1.017 -0.8434 -2.5768  1.9783
13715TIP3   OH262635   5.904   3.577  10.792  0.0075  0.0641 -0.0799
13715TIP3    H162636   5.948   3.604  10.711 -0.4397  0.1702 -0.2885
13715TIP3    H262637   5.867   3.491  10.771  0.5875 -0.2780  0.2739
13716TIP3   OH262638   5.062   2.071   4.963  0.5574 -0.1735  0.2443
13716TIP3    H162639   5.064   2.131   4.888 -1.3096 -2.3432 -1.6747
13716TIP3    H262640   5.065   2.129   5.039  0.9323  2.2311 -1.4751
13717TIP3   OH262641   5.200   0.231  12.393  0.6265  0.6009  0.0202
13717TIP3    H162642   5.277   0.228  12.450  1.3457 -3.3399 -0.8738
13717TIP3    H262643   5.132   0.183  12.440  0.3028 -0.1426 -1.1510
13718TIP3   OH262644   1.496   6.282  16.778 -0.2693 -0.3197  0.3504
13718TIP3    H162645   1.553   6.284  16.702 -0.7014  0.0429  0.0294
13718TIP3    H262646   1.410   6.256  16.744 -0.5102  0.0233  0.6791
13719TIP3   OH262647   6.590   1.417  14.191  0.6041  0.4117  0.2415
13719TIP3    H162648   6.640   1.355  14.243  0.4090 -0.9191 -1.0744
13719TIP3    H262649   6.589   1.497  14.243 -0.8951 -1.2335  3.0504
13720TIP3   OH262650   4.300   5.809  12.205 -0.0234 -0.1901  0.1936
13720TIP3    H162651   4.374   5.771  12.252  0.3946 -1.5131 -1.4553
13720TIP3    H262652   4.331   5.822  12.116 -1.3330  0.6318 -0.1809
13721TIP3   OH262653   3.902   3.477   5.154  0.2210 -0.5594  0.5073
13721TIP3    H162654   3.950   3.554   5.185  0.8650  0.4106 -2.5134
13721TIP3    H262655   3.810   3.501   5.163  0.4018  0.1346  0.6121
13722TIP3   OH262656   4.599   0.915   5.525  1.0893  0.2629 -0.0418
13722TIP3    H162657   4.609   0.993   5.579  2.0679  1.5223 -1.9379
13722TIP3    H262658   4.509   0.918   5.494  1.5113  1.4861 -1.2543
13723TIP3   OH262659   0.175   2.117   5.184  0.4388 -0.3315 -0.5886
13723TIP3    H162660   0.117   2.045   5.207  1.1814 -0.8379 -0.2603
13723TIP3    H262661   0.229   2.131   5.261 -1.1302  2.0777  0.1988
13724TIP3   OH262662   0.574   4.384   3.534  0.3346  0.5158  0.2001
13724TIP3    H162663   0.601   4.304   3.579  0.0022  0.4908  0.3578
13724TIP3    H262664   0.510   4.354   3.468  1.6809  0.3959 -1.1047
13725TIP3   OH262665   0.908   0.246   1.316  0.2287 -0.1170 -0.1960
13725TIP3    H162666   0.953   0.330   1.304  0.9162 -0.3975  0.3747
13725TIP3    H262667   0.821   0.260   1.276 -0.0167  1.1612  0.7205
13726TIP3   OH262668   1.991   4.725   5.387 -0.4126  0.3827 -0.4074
13726TIP3    H162669   2.078   4.700   5.418 -0.7131 -0.1361  0.0444
13726TIP3    H262670   1.962   4.793   5.448  0.7697  2.6118 -2.1532
13727TIP3   OH262671   3.730   2.205   1.961  0.3352  0.1459 -0.1509
13727TIP3    H162672   3.687   2.138   1.908  0.8030 -0.8929  0.7515
13727TIP3    H262673   3.720   2.175   2.051  0.0293  1.6119  0.3227
13728TIP3   OH262674   1.220   5.450   0.937  0.4225 -0.2903 -0.4211
13728TIP3    H162675   1.208   5.545   0.947  1.9728  0.0895 -1.6890
13728TIP3    H262676   1.154   5.411   0.994  1.3921  1.5499  2.1506
13729TIP3   OH262677   1.247   3.575  12.259  0.4449 -0.0409 -0.2326
13729TIP3    H162678   1.334   3.542  12.284 -0.3501 -0.0305  2.8815
13729TIP3    H262679   1.228   3.530  12.177  3.4743  0.1765 -1.1942
13730TIP3   OH262680   0.045   2.974   1.931 -1.0927  0.3315 -0.0631
13730TIP3    H162681   0.089   3.055   1.907 -1.2782  1.0746  1.9189
13730TIP3    H262682  -0.022   2.962   1.864  0.1366  0.7804 -1.4342
13731TIP3   OH262683   1.305   3.786  17.128 -0.6500 -0.5400 -0.0386
13731TIP3    H162684   1.384   3.802  17.076 -1.6911 -0.5945 -1.7431
13731TIP3    H262685   1.235   3.823  17.075 -1.8446 -1.0655  1.1283
13732TIP3   OH262686   5.254   0.063   2.087  0.0828  0.1156  0.3070
13732TIP3    H162687   5.328   0.033   2.034  1.8696 -0.5872  2.9933
13732TIP3    H262688   5.295   0.101   2.165 -2.3893  1.6522  0.9487
13733TIP3   OH262689   5.952   5.575  12.609 -0.6397 -0.0524  0.4973
13733TIP3    H162690   5.935   5.639  12.540 -1.2889  0.2105  0.8900
13733TIP3    H262691   5.865   5.540  12.631 -0.2529 -1.4535 -0.0657
13734TIP3   OH262692   6.288   2.421   4.960  0.8964 -0.4349  0.6816
13734TIP3    H162693   6.356   2.359   4.985  1.6048 -0.8145 -1.8497
13734TIP3    H262694   6.263   2.464   5.041  2.3167 -2.1155  2.0863
13735TIP3   OH262695   3.172   1.193   3.555  0.8136  0.4016 -0.2370
13735TIP3    H162696   3.236   1.204   3.484 -0.2126  0.6021 -1.1713
13735TIP3    H262697   3.199   1.257   3.621  0.9001  1.3287 -1.1324
13736TIP3   OH262698   0.381   1.749  15.852 -0.5428  0.3242  0.8007
13736TIP3    H162699   0.312   1.699  15.897  0.8200 -2.0070  0.4822
13736TIP3    H262700   0.346   1.764  15.764 -0.8269 -0.5154  0.7531
13737TIP3   OH262701   4.355   6.077  12.276 -0.0619 -0.2620 -0.0409
13737TIP3    H162702   4.433   6.078  12.219  0.4864 -0.3114  0.6953
13737TIP3    H262703   4.363   5.996  12.325 -0.3617 -0.0600  0.3409
13738TIP3   OH262704   3.835   0.382   2.981 -0.3953  0.4803 -0.4500
13738TIP3    H162705   3.899   0.311   2.988  0.3058  1.1385 -0.1306
13738TIP3    H262706   3.762   0.343   2.932 -1.1294 -1.2162  1.8314
13739TIP3   OH262707   4.084   0.395  10.562 -0.5031 -0.3988 -0.8248
13739TIP3    H162708   4.121   0.339  10.631  1.5212 -0.7925 -2.1450
13739TIP3    H262709   4.042   0.467  10.609  1.1430 -0.4568  0.8271
13740TIP3   OH262710   0.412   5.485  12.710 -0.6758 -0.0374 -0.3837
13740TIP3    H162711   0.488   5.539  12.693 -0.9307  0.1990 -0.7905
13740TIP3    H262712   0.419   5.413  12.648 -0.3823 -0.4333  0.0986
13741TIP3   OH262713   6.011   3.640   4.616 -0.2498  0.1358  0.3187
13741TIP3    H162714   6.076   3.588   4.662 -1.0392  0.4265  1.8325
13741TIP3    H262715   6.059   3.717   4.585  0.1634  0.2860  1.3091
13742TIP3   OH262716   4.537   0.078  17.023  0.3290 -0.0843 -0.1706
13742TIP3    H162717   4.571   0.164  17.001  1.0964 -0.3124  0.0647
13742TIP3    H262718   4.554   0.025  16.945 -0.7818  0.1443 -0.5769
13743TIP3   OH262719   3.335   2.208   1.039  0.1467  0.1066 -0.1560
13743TIP3    H162720   3.401   2.176   0.978 -0.0414 -0.4905 -0.0509
13743TIP3    H262721   3.268   2.139   1.041  0.1506  0.1111  0.7151
13744TIP3   OH262722   3.957   2.873   4.222 -0.4094  0.0663  0.0709
13744TIP3    H162723   3.926   2.828   4.301 -0.7537  0.3327  0.0880
13744TIP3    H262724   3.899   2.841   4.153  0.3176 -0.6870 -0.2093
13745TIP3   OH262725   4.499   0.114  17.300 -0.2950 -0.2779 -0.3132
13745TIP3    H162726   4.487   0.103  17.205  2.5118  0.2188 -0.8207
13745TIP3    H262727   4.479   0.206  17.317  0.8544  0.0825 -0.7914
13746TIP3   OH262728   5.045   6.438  16.237  0.7694 -0.0388 -0.0447
13746TIP3    H162729   5.028   6.349  16.205 -1.9928  0.0744  0.8222
13746TIP3    H262730   5.052   6.491  16.157  1.8091 -0.9169 -0.5583
13747TIP3   OH262731   5.861   6.308  17.028 -0.0994 -0.4460 -0.0384
13747TIP3    H162732   5.867   6.402  17.046  2.0994  0.2767 -3.6045
13747TIP3    H262733   5.936   6.269  17.072  0.7948  0.0468 -1.0717
13748TIP3   OH262734   1.052   0.305  14.477  0.6386 -0.3157 -0.7080
13748TIP3    H162735   1.099   0.342  14.402  2.3090  0.0655  0.4769
13748TIP3    H262736   1.115   0.308  14.549 -1.2314  0.2805  0.9954
13749TIP3   OH262737   0.231   5.136  14.535 -0.0022 -0.5244  0.6261
13749TIP3    H162738   0.192   5.150  14.621 -0.3764  0.4429  0.3066
13749TIP3    H262739   0.189   5.057  14.502 -1.8332  0.5641  0.2268
13750TIP3   OH262740   1.788   2.382   2.583  0.0280  0.2265 -0.4893
13750TIP3    H162741   1.865   2.326   2.591 -0.5747 -0.6354 -0.5935
13750TIP3    H262742   1.772   2.412   2.673 -0.4127 -0.8340 -0.1978
13751TIP3   OH262743   1.627   5.872  12.075  0.2371 -0.3801 -0.4040
13751TIP3    H162744   1.671   5.800  12.030 -0.1509 -0.7800 -0.1433
13751TIP3    H262745   1.571   5.911  12.008  1.7022  0.7737 -1.0316
13752TIP3   OH262746   3.641   3.433  16.995  0.5508  0.2084  0.3961
13752TIP3    H162747   3.720   3.421  17.047  0.3017  0.9176  0.9520
13752TIP3    H262748   3.634   3.353  16.942  0.6356 -0.6691  1.6710
13753TIP3   OH262749   4.157   0.252  15.609  0.0274  0.1047 -0.5446
13753TIP3    H162750   4.156   0.183  15.676 -0.6106  0.1106 -0.5417
13753TIP3    H262751   4.231   0.230  15.553 -0.3376 -0.7484 -0.7053
13754TIP3   OH262752   0.827   1.913  14.366 -0.0010  0.2370  0.0078
13754TIP3    H162753   0.846   1.994  14.413 -0.1971  0.5349 -0.4254
13754TIP3    H262754   0.884   1.848  14.407  0.5036  0.6963  0.0379
13755TIP3   OH262755   1.877   1.505  16.984  0.6252  0.6359  0.2455
13755TIP3    H162756   1.878   1.528  17.077  0.1208  0.8441  0.2084
13755TIP3    H262757   1.784   1.506  16.961  0.6048 -1.0614  0.1374
13756TIP3   OH262758   2.288   5.997   4.743 -0.2657 -0.2640 -0.1361
13756TIP3    H162759   2.381   5.979   4.729  0.4250  2.9891 -0.5960
13756TIP3    H262760   2.251   6.004   4.655 -0.8356 -0.9512  0.0377
13757TIP3   OH262761   6.109   1.089   1.164  0.4202 -0.3179  0.0264
13757TIP3    H162762   6.088   1.062   1.074 -2.1710  0.6647  0.2585
13757TIP3    H262763   6.090   1.011   1.217  0.8136 -0.5228 -0.1234
13758TIP3   OH262764   3.384   6.502   3.380 -0.5730  0.0691  0.2197
13758TIP3    H162765   3.476   6.528   3.386 -0.7824  0.9864 -0.2419
13758TIP3    H262766   3.383   6.408   3.398  0.2120  0.4001  2.2004
13759TIP3   OH262767   0.316   0.619   1.356 -0.4867 -0.1767  0.2244
13759TIP3    H162768   0.377   0.635   1.284 -2.2333 -2.0676 -1.8544
13759TIP3    H262769   0.254   0.692   1.352 -0.4277 -0.1408 -0.0378
13760TIP3   OH262770   5.910   4.518  11.605 -0.0476  0.0356 -0.1598
13760TIP3    H162771   5.996   4.513  11.564 -0.2331 -1.8703 -0.4046
13760TIP3    H262772   5.848   4.495  11.536 -0.6618  0.1210  0.3429
13761TIP3   OH262773   2.708   3.061  14.239 -0.0807 -0.1421 -0.2002
13761TIP3    H162774   2.746   3.017  14.163  1.3139 -0.2165  0.5078
13761TIP3    H262775   2.648   2.996  14.277 -0.9951 -0.0044 -1.3591
13762TIP3   OH262776   1.659   0.464   1.863  0.0755 -0.7410  0.1384
13762TIP3    H162777   1.697   0.501   1.942 -0.3304 -1.0159  0.4683
13762TIP3    H262778   1.565   0.481   1.871 -0.0664 -1.4894  0.1059
13763TIP3   OH262779   4.429   5.542   1.463 -0.0804 -0.5080  0.5874
13763TIP3    H162780   4.516   5.583   1.463 -0.8242  1.1713  0.4305
13763TIP3    H262781   4.378   5.595   1.524 -1.2548 -0.8871 -0.0343
13764TIP3   OH262782   0.708   3.664   5.094  0.2927 -0.0945 -0.0500
13764TIP3    H162783   0.793   3.703   5.072 -0.0651  0.4811 -0.4448
13764TIP3    H262784   0.673   3.721   5.163 -0.0447  0.0399 -0.3299
13765TIP3   OH262785   1.707   4.625   2.138 -0.0395  0.2087  0.0415
13765TIP3    H162786   1.740   4.658   2.055  0.2146 -0.6159 -0.1893
13765TIP3    H262787   1.614   4.608   2.122 -0.4124  1.7417  0.4532
13766TIP3   OH262788   4.313   1.116  14.467  0.3503  0.0564 -0.7712
13766TIP3    H162789   4.367   1.173  14.413 -0.0233 -0.0842 -1.3013
13766TIP3    H262790   4.360   1.110  14.550  0.5695  0.8415 -0.8369
13767TIP3   OH262791   0.945   5.671   0.392 -0.3591 -0.0230  0.2584
13767TIP3    H162792   1.008   5.706   0.456 -0.7411  0.9214  0.1305
13767TIP3    H262793   0.982   5.587   0.366  0.3898  0.1046  0.8681
13768TIP3   OH262794   4.324   3.045  14.454  0.1102 -0.6411  0.0845
13768TIP3    H162795   4.255   3.055  14.520 -0.5745  0.6698 -0.7780
13768TIP3    H262796   4.284   3.078  14.373  1.5927 -0.3263 -0.5448
13769TIP3   OH262797   5.586   3.870  12.926 -0.1807  0.5783  0.4023
13769TIP3    H162798   5.578   3.782  12.963 -0.7639 -0.0834 -1.2353
13769TIP3    H262799   5.637   3.858  12.846 -1.5440  1.4785 -0.6420
13770TIP3   OH262800   5.396   0.518  13.863  1.0045 -0.4869 -0.1391
13770TIP3    H162801   5.447   0.531  13.783  1.5542 -1.4114  0.0441
13770TIP3    H262802   5.438   0.444  13.907 -0.5091 -1.3146  0.0018
13771TIP3   OH262803   0.833   2.034   1.092 -0.1812  0.4807 -0.2612
13771TIP3    H162804   0.869   2.074   1.171 -0.5330 -1.1524  0.7859
13771TIP3    H262805   0.885   2.070   1.020  0.8539  1.1986  0.8182
13772TIP3   OH262806   1.962   6.653   3.058 -0.2523 -0.0621  0.2816
13772TIP3    H162807   1.870   6.633   3.039 -0.1887 -0.5351  0.4571
13772TIP3    H262808   1.981   6.603   3.137  0.1333  0.1036  0.2934
13773TIP3   OH262809   2.044   2.228   2.949 -0.2211  0.6212 -0.0447
13773TIP3    H162810   2.060   2.312   2.906 -0.4843  0.3823 -0.6196
13773TIP3    H262811   2.037   2.250   3.042 -0.8360  1.3076 -0.2424
13774TIP3   OH262812   5.263   2.883  12.818  0.2173 -0.2236  0.0221
13774TIP3    H162813   5.261   2.965  12.867 -1.2291 -0.3060  0.1531
13774TIP3    H262814   5.182   2.838  12.844 -0.2530 -0.5667 -1.9313
13775TIP3   OH262815   2.343   0.320   3.284 -0.0163 -0.0194  0.3169
13775TIP3    H162816   2.352   0.415   3.288 -1.4623  0.2523 -1.5269
13775TIP3    H262817   2.253   0.306   3.254  0.8602 -1.9253 -1.6517
13776TIP3   OH262818   5.727   4.090  13.281  0.0298 -0.1531 -0.3547
13776TIP3    H162819   5.657   4.030  13.256  1.0522 -1.3767 -0.3774
13776TIP3    H262820   5.773   4.045  13.352  3.2253 -1.2862 -2.8949
13777TIP3   OH262821   4.527   5.022   6.398  0.0597 -0.0827  0.4554
13777TIP3    H162822   4.568   4.972   6.468 -0.0992  0.4171  0.9059
13777TIP3    H262823   4.445   4.976   6.381  1.1523 -1.6202 -1.0652
13778TIP3   OH262824   0.020   4.650  17.237  0.1620 -0.0960  0.4482
13778TIP3    H162825  -0.068   4.615  17.218 -0.1184  1.0567 -0.5046
13778TIP3    H262826   0.003   4.735  17.278  0.8472  0.0038  0.5296
13779TIP3   OH262827   1.207   0.378  14.251  0.4324 -0.4760 -0.6513
13779TIP3    H162828   1.232   0.465  14.221  1.8982 -0.2505  1.0217
13779TIP3    H262829   1.278   0.321  14.221  0.6196 -0.6824  0.1662
13780TIP3   OH262830   0.232   5.909   1.458  0.2354 -0.5597  0.3292
13780TIP3    H162831   0.249   5.920   1.364  0.7563  0.3694  0.5220
13780TIP3    H262832   0.251   5.995   1.496  0.9553 -1.1746  1.4240
13781TIP3   OH262833   1.867   4.040  14.798  0.6146  0.6093  0.4905
13781TIP3    H162834   1.918   4.050  14.717  0.1313  1.0167  0.2348
13781TIP3    H262835   1.910   3.968  14.844 -0.4358 -1.1702 -1.1555
13782TIP3   OH262836   4.006   5.649   5.980  0.3976 -0.0688  0.2095
13782TIP3    H162837   3.996   5.680   6.071 -1.2723 -0.3534  0.1657
13782TIP3    H262838   4.071   5.707   5.942  1.3006 -0.0742  1.6436
13783TIP3   OH262839   4.627   1.733   2.961 -0.2206  0.2621 -0.3619
13783TIP3    H162840   4.582   1.710   3.042 -2.1849  1.4340 -1.0598
13783TIP3    H262841   4.604   1.824   2.945  0.7188  0.2759 -1.8701
13784TIP3   OH262842   3.675   2.563   6.409 -0.5476  0.8382  0.8598
13784TIP3    H162843   3.621   2.510   6.350  0.2258 -0.1494  1.0041
13784TIP3    H262844   3.614   2.621   6.454 -1.2813  0.8354 -0.1080
13785TIP3   OH262845   1.053   2.085  10.910 -0.0005  0.0714 -0.0126
13785TIP3    H162846   1.084   2.084  10.820  0.0055 -1.8481 -0.0386
13785TIP3    H262847   1.131   2.066  10.962 -0.0252  1.0576  0.4058
13786TIP3   OH262848   5.126   1.507   1.255  0.6942  0.3352  0.0773
13786TIP3    H162849   5.138   1.563   1.332 -0.1037  0.5724  0.0368
13786TIP3    H262850   5.215   1.494   1.220  0.9857  0.7811  0.6424
13787TIP3   OH262851   3.879   2.809   5.359 -0.0093  0.0706 -0.1673
13787TIP3    H162852   3.806   2.865   5.333  0.1487  0.4477  0.1916
13787TIP3    H262853   3.957   2.862   5.343  0.0387  1.1148  2.8396
13788TIP3   OH262854   3.895   3.228   5.074  0.1354  0.1595 -0.0371
13788TIP3    H162855   3.899   3.322   5.088  0.0604  0.1914 -0.2244
13788TIP3    H262856   3.902   3.218   4.979 -1.2095  0.0547 -0.1390
13789TIP3   OH262857   0.386   5.046   2.427  0.2649  0.1386 -0.9404
13789TIP3    H162858   0.443   5.027   2.353  0.4789 -1.3240 -0.4445
13789TIP3    H262859   0.413   5.133   2.457  0.5838  0.4840 -2.1824
13790TIP3   OH262860   4.562   5.036  13.778  0.1157 -0.1210 -0.2672
13790TIP3    H162861   4.581   4.977  13.705 -0.7875  0.4047 -0.9427
13790TIP3    H262862   4.489   4.994  13.823  1.6941 -1.3060  1.3693
13791TIP3   OH262863   6.731   6.775  16.075 -0.1122 -0.0055  0.5807
13791TIP3    H162864   6.765   6.740  15.993 -1.0786  1.2702 -0.3946
13791TIP3    H262865   6.800   6.832  16.107  0.4626 -0.8696  0.9241
13792TIP3   OH262866   3.583   5.911  14.083 -0.4667  0.4097  0.0332
13792TIP3    H162867   3.497   5.915  14.124 -0.5208  1.0085 -0.1245
13792TIP3    H262868   3.575   5.966  14.005  0.0257  0.3746 -0.0496
13793TIP3   OH262869   2.955   1.418  14.768 -0.0937 -0.2729  0.1414
13793TIP3    H162870   2.982   1.367  14.691 -0.2742  1.9913 -1.5044
13793TIP3    H262871   2.865   1.445  14.748 -1.5547 -2.6064  2.8250
13794TIP3   OH262872   6.111   3.512  11.798 -0.0134 -0.6427 -0.2582
13794TIP3    H162873   6.199   3.491  11.766  0.7959  0.0667  1.3932
13794TIP3    H262874   6.114   3.606  11.815 -0.6640 -0.8518  1.0820
13795TIP3   OH262875   5.414   5.595  13.762  0.2159 -0.6869  0.1131
13795TIP3    H162876   5.440   5.580  13.853  0.8793  1.7223  0.3986
13795TIP3    H262877   5.446   5.518  13.715  1.4177 -1.1818  1.6475
13796TIP3   OH262878   4.290   3.279   2.767  0.2162  0.2100 -0.3065
13796TIP3    H162879   4.316   3.243   2.852  0.0722  1.9089  0.5003
13796TIP3    H262880   4.303   3.206   2.705  0.9744 -0.8588  1.0459
13797TIP3   OH262881   3.932   3.661   1.995 -0.4243 -0.3329  0.4444
13797TIP3    H162882   4.014   3.625   2.030 -0.0743 -1.3313 -1.3097
13797TIP3    H262883   3.864   3.620   2.048  0.1581 -0.1446  1.3650
13798TIP3   OH262884   2.972   0.960  15.113  0.3469  0.0048  0.5256
13798TIP3    H162885   3.026   1.019  15.060 -0.0985  0.3868  0.4809
13798TIP3    H262886   2.968   0.879  15.062 -0.7056  0.6229 -0.4243
13799TIP3   OH262887   6.711   0.202   5.776  0.3454  0.1030  0.6033
13799TIP3    H162888   6.778   0.270   5.770  0.5009 -0.1594 -3.8506
13799TIP3    H262889   6.631   0.244   5.745  0.0029 -1.2380 -0.3879
13800TIP3   OH262890   2.616   5.811   4.151  0.0059  0.1667  0.6406
13800TIP3    H162891   2.544   5.770   4.199  0.1796 -0.0180  0.7486
13800TIP3    H262892   2.619   5.900   4.184 -0.5739  0.3620  0.1795
13801TIP3   OH262893   0.345   4.722   2.739 -0.3922 -0.0649 -0.6380
13801TIP3    H162894   0.315   4.809   2.767  0.3614  0.8045 -2.3910
13801TIP3    H262895   0.433   4.715   2.775 -0.9799 -0.7615  0.7485
13802TIP3   OH262896   4.442   6.607  10.763 -0.1571 -0.5288  0.2986
13802TIP3    H162897   4.532   6.639  10.770  0.0639 -0.4633 -2.0618
13802TIP3    H262898   4.388   6.678  10.796  0.5626  0.2960 -0.2753
13803TIP3   OH262899   6.765   4.796   4.583  0.4653  0.0788  0.0857
13803TIP3    H162900   6.819   4.827   4.656 -1.4575 -2.0479  2.6242
13803TIP3    H262901   6.811   4.719   4.550  0.5544  0.0828  0.1989
13804TIP3   OH262902   2.184   4.281   5.103 -0.4667  0.5030  0.9452
13804TIP3    H162903   2.222   4.336   5.034 -0.3882  2.4906  2.4938
13804TIP3    H262904   2.097   4.259   5.070  0.5358 -0.9698 -0.9747
13805TIP3   OH262905   3.265   0.157   6.253  0.1665 -0.4562  0.2364
13805TIP3    H162906   3.351   0.146   6.212  0.5385  1.0499  0.5617
13805TIP3    H262907   3.276   0.230   6.313 -1.7402  0.8341 -0.8686
13806TIP3   OH262908   1.104   5.524  13.631 -0.4137  0.0598  0.2882
13806TIP3    H162909   1.096   5.555  13.541  1.0650 -0.8584 -0.2079
13806TIP3    H262910   1.167   5.585  13.671 -0.4059 -0.0445  0.4333
13807TIP3   OH262911   5.538   3.264  12.899  0.1093  0.2208  0.1594
13807TIP3    H162912   5.469   3.310  12.946 -0.1394  0.2540 -0.2354
13807TIP3    H262913   5.620   3.299  12.935 -0.0631 -0.5946  1.3942
13808TIP3   OH262914   0.167   0.033   1.875  0.0590  0.1336  0.2860
13808TIP3    H162915   0.179  -0.053   1.917 -0.1637 -0.5871 -1.0620
13808TIP3    H262916   0.125   0.086   1.942 -0.9124 -1.1753  0.7666
13809TIP3   OH262917   3.045   5.906   5.160  0.1005 -0.0614 -0.5562
13809TIP3    H162918   2.960   5.949   5.147  0.6996  0.9943 -1.1350
13809TIP3    H262919   3.104   5.978   5.181  0.9157 -0.7595 -0.4365
13810TIP3   OH262920   5.667   1.061   4.586  0.9436  0.4390 -0.2242
13810TIP3    H162921   5.695   1.141   4.629  1.3511 -0.0362  0.4034
13810TIP3    H262922   5.573   1.055   4.605  0.8718  0.8462 -0.4232
13811TIP3   OH262923   5.814   3.327  14.511  0.1355 -0.1269  0.6496
13811TIP3    H162924   5.907   3.309  14.529  0.4154  0.5361 -0.0607
13811TIP3    H262925   5.805   3.315  14.417  0.0267  1.9008  0.3570
13812TIP3   OH262926   3.783   4.328  13.628 -0.5729  0.5281 -0.0102
13812TIP3    H162927   3.872   4.296  13.617 -1.3394 -1.0253 -2.2589
13812TIP3    H262928   3.742   4.267  13.689 -0.4832  0.4522 -0.0271
13813TIP3   OH262929   0.245   1.030  15.345 -0.1856  0.5378 -0.0136
13813TIP3    H162930   0.323   1.023  15.400  1.1479  0.7026 -1.8304
13813TIP3    H262931   0.196   1.103  15.383  1.1652  1.2637  0.3999
13814TIP3   OH262932   1.814   1.916   5.258 -0.4122  0.3210 -0.4206
13814TIP3    H162933   1.888   1.976   5.261  0.0518 -0.1115 -2.2891
13814TIP3    H262934   1.737   1.973   5.263  0.0251  0.9593 -0.8196
13815TIP3   OH262935   6.808   6.233   5.579 -0.1359  0.2909 -0.5167
13815TIP3    H162936   6.827   6.298   5.646 -1.0756  1.8230 -1.6675
13815TIP3    H262937   6.723   6.197   5.603  0.1845 -0.2390 -0.1266
13816TIP3   OH262938   4.043   3.238   1.310 -0.4207  0.4009 -0.2746
13816TIP3    H162939   3.988   3.194   1.374 -2.0563  0.5813 -1.4786
13816TIP3    H262940   4.109   3.173   1.286 -1.4687 -0.6359 -0.4128
13817TIP3   OH262941   2.193   5.575   1.225  0.1004 -0.6337 -0.4652
13817TIP3    H162942   2.216   5.487   1.197  3.4390 -0.5102  1.3586
13817TIP3    H262943   2.210   5.630   1.148  2.3794 -1.1032 -0.3595
13818TIP3   OH262944   3.071   5.034  11.468 -0.5443 -0.5117  0.1578
13818TIP3    H162945   3.033   5.087  11.539 -1.3172  0.5059 -0.9830
13818TIP3    H262946   3.037   5.073  11.388  1.7037 -0.5333 -0.8802
13819TIP3   OH262947   1.163   5.395  16.193  0.1859  0.1005  0.3369
13819TIP3    H162948   1.206   5.371  16.275  0.4223 -0.8485 -0.0471
13819TIP3    H262949   1.116   5.316  16.167 -0.2925  0.5549 -0.1867
13820TIP3   OH262950   2.104   2.393   5.706  0.3408  0.2599 -0.8369
13820TIP3    H162951   2.082   2.344   5.785  1.1659  0.2603 -0.6003
13820TIP3    H262952   2.019   2.408   5.663 -0.4127  2.1316  1.1150
13821TIP3   OH262953   4.203   1.107   2.595 -0.2453  0.4678  0.2074
13821TIP3    H162954   4.232   1.061   2.516  1.0892  2.2326 -0.3759
13821TIP3    H262955   4.108   1.112   2.586 -0.4985 -2.3574  0.4444
13822TIP3   OH262956   3.062   6.553  12.774 -0.9313 -0.5726  0.1478
13822TIP3    H162957   3.024   6.616  12.835 -2.0922 -1.1668  0.0710
13822TIP3    H262958   3.058   6.597  12.689 -0.3279 -0.1752  0.3151
13823TIP3   OH262959   6.440   1.810   3.846 -0.3747 -0.4136 -0.0718
13823TIP3    H162960   6.413   1.757   3.921 -0.6700 -0.0939  0.0536
13823TIP3    H262961   6.534   1.793   3.837 -0.5544 -1.3183 -0.3314
13824TIP3   OH262962   1.243   1.732   3.175  0.1844  0.1562 -0.0525
13824TIP3    H162963   1.233   1.827   3.173 -0.4147  0.1133  0.5769
13824TIP3    H262964   1.332   1.717   3.144 -0.0392  0.8589 -1.1014
13825TIP3   OH262965   2.196   6.203   6.604 -0.0431  0.4412  0.3052
13825TIP3    H162966   2.282   6.191   6.645  0.6406  1.4822 -0.7709
13825TIP3    H262967   2.170   6.114   6.578  0.1304 -0.0483  1.7221
13826TIP3   OH262968   4.173   4.415   5.818  0.3788  0.4121 -0.0016
13826TIP3    H162969   4.118   4.412   5.897  1.1836 -0.1565  0.5588
13826TIP3    H262970   4.165   4.505   5.786 -0.9001  0.3320  0.0429
13827TIP3   OH262971   1.317   6.314   3.572 -0.3143  0.1913  0.6521
13827TIP3    H162972   1.406   6.346   3.556 -0.6269  0.5656 -0.4188
13827TIP3    H262973   1.302   6.248   3.505  0.3448 -2.3839  2.8862
13828TIP3   OH262974   1.642   2.267  15.818 -0.0668 -0.4087  0.1117
13828TIP3    H162975   1.617   2.177  15.841 -0.1242 -0.0206  1.7216
13828TIP3    H262976   1.581   2.292  15.749 -0.3516 -1.4488 -0.0323
13829TIP3   OH262977   1.901   6.247   4.786  0.1929  0.3806  0.2041
13829TIP3    H162978   1.866   6.205   4.865  2.5915  1.2867  1.8908
13829TIP3    H262979   1.920   6.175   4.726 -2.0819 -0.2998  0.2076
13830TIP3   OH262980   3.666   2.512   3.040 -0.8120  0.0896 -0.3533
13830TIP3    H162981   3.632   2.431   3.001  0.2474  0.2556 -1.6837
13830TIP3    H262982   3.743   2.484   3.090 -1.1818  0.1124  0.2359
13831TIP3   OH262983   4.775   0.712  16.246  0.6322  0.3698  0.3569
13831TIP3    H162984   4.829   0.791  16.246  1.3799 -0.1039 -0.6996
13831TIP3    H262985   4.821   0.652  16.187 -1.4672  0.2426 -1.2749
13832TIP3   OH262986   0.101   2.865  13.195  0.1473  0.6971 -0.2600
13832TIP3    H162987   0.074   2.781  13.158  4.0107  0.1365 -2.3287
13832TIP3    H262988   0.035   2.927  13.162 -2.0901 -1.2227  0.2963
13833TIP3   OH262989   1.140   5.607   1.597  0.2547 -0.3108 -0.0020
13833TIP3    H162990   1.189   5.661   1.535 -0.2076  1.3805  1.0233
13833TIP3    H262991   1.201   5.592   1.670  0.4634 -1.4335 -0.3864
13834TIP3   OH262992   1.321   2.749   2.387  0.1451 -0.8456  0.0645
13834TIP3    H162993   1.376   2.716   2.316  0.5468 -0.3624  0.1412
13834TIP3    H262994   1.251   2.684   2.396  1.1458 -1.9016  0.5068
13835TIP3   OH262995   6.138   4.248  17.051  0.3328 -0.2009  0.0237
13835TIP3    H162996   6.214   4.200  17.086 -1.1280 -3.3765 -0.7875
13835TIP3    H262997   6.082   4.264  17.127  0.3402 -0.8164  0.1642
13836TIP3   OH262998   1.082   4.657   1.203 -0.3662 -0.3006  0.1670
13836TIP3    H162999   0.992   4.625   1.209 -0.0494 -1.0235  1.7285
13836TIP3    H263000   1.122   4.630   1.286  0.1970  3.3205  1.2511
13837TIP3   OH263001   5.690   1.584  16.298 -0.0050 -0.4666  0.1558
13837TIP3    H163002   5.722   1.496  16.317  0.4989 -0.3558 -0.1619
13837TIP3    H263003   5.684   1.588  16.203  2.0865  0.5463  0.0145
13838TIP3   OH263004   5.872   4.362   1.297  0.6339  0.1167  0.1037
13838TIP3    H163005   5.821   4.391   1.372  1.6301  3.6968 -0.3661
13838TIP3    H263006   5.812   4.308   1.246 -0.8972 -0.2380  2.1622
13839TIP3   OH263007   6.407   0.504  11.756  0.5872 -0.4783 -0.0469
13839TIP3    H163008   6.330   0.533  11.706  0.4145 -2.1319 -0.7907
13839TIP3    H263009   6.432   0.581  11.807 -1.0346  0.3594 -0.4400
13840TIP3   OH263010   4.083   1.947  11.255 -0.7741 -0.2849 -0.6354
13840TIP3    H163011   4.131   1.992  11.186  0.0781 -0.2016  0.0014
13840TIP3    H263012   4.150   1.908  11.311 -1.2938  1.6142  1.4919
13841TIP3   OH263013   4.865   3.657  13.451  0.5877  0.1760 -0.5323
13841TIP3    H163014   4.920   3.595  13.404 -0.5028 -0.6840 -0.7209
13841TIP3    H263015   4.806   3.692  13.384  0.6352  0.7913 -0.2604
13842TIP3   OH263016   5.340   6.596  12.491  0.1099 -0.7333 -0.1163
13842TIP3    H163017   5.345   6.545  12.410 -1.0948 -0.0065 -0.6718
13842TIP3    H263018   5.427   6.633  12.501  0.0126 -0.0243 -1.6369
13843TIP3   OH263019   0.134   5.503  12.700 -0.0022 -0.4357 -0.5844
13843TIP3    H163020   0.078   5.442  12.651 -0.0653  0.4550 -1.6572
13843TIP3    H263021   0.223   5.481  12.671  0.1868 -1.4853  0.7098
13844TIP3   OH263022   2.813   4.731  13.678 -0.0954  0.4171 -0.3148
13844TIP3    H163023   2.813   4.823  13.704 -2.4030 -0.0167  1.5638
13844TIP3    H263024   2.890   4.694  13.721 -0.5844  0.9606  1.0598
13845TIP3   OH263025   3.816   3.567   4.065  0.5392 -0.2449 -0.0536
13845TIP3    H163026   3.888   3.628   4.050  0.9288 -0.4441  0.9016
13845TIP3    H263027   3.753   3.586   3.996 -0.7492  3.3072  1.8248
13846TIP3   OH263028   5.485   1.115  12.051 -0.5218  0.2956  0.3987
13846TIP3    H163029   5.571   1.125  12.091 -0.5758  1.1657  0.3103
13846TIP3    H263030   5.425   1.113  12.126 -0.5384  1.0042  0.4112
13847TIP3   OH263031   1.050   5.396   1.446  0.2784 -0.2667 -0.3719
13847TIP3    H163032   1.105   5.393   1.367 -1.9114  1.0606 -2.0728
13847TIP3    H263033   1.081   5.473   1.494  0.1880  0.2301 -1.1000
13848TIP3   OH263034   5.944   1.476   5.182  0.4457 -0.0791  0.3323
13848TIP3    H163035   5.981   1.418   5.114 -0.1162  0.9108 -0.8608
13848TIP3    H263036   5.879   1.421   5.227  2.9001 -1.6983  2.1579
13849TIP3   OH263037   6.402   5.507  16.220  0.1589  0.1021 -0.6039
13849TIP3    H163038   6.342   5.533  16.290  0.2910  0.6515 -0.6853
13849TIP3    H263039   6.400   5.581  16.159 -0.8353 -0.8508 -1.7756
13850TIP3   OH263040   3.940   1.977   3.719 -0.3961  0.1976  0.1483
13850TIP3    H163041   3.921   2.067   3.695 -0.2693  0.1774 -0.0292
13850TIP3    H263042   3.932   1.975   3.814 -0.1111  0.4626  0.1786
13851TIP3   OH263043   2.671   6.086  14.186  0.5210  0.0332  0.0558
13851TIP3    H163044   2.676   6.039  14.103  0.1774  1.0755 -0.5746
13851TIP3    H263045   2.711   6.027  14.250  0.3907 -0.9636 -0.7668
13852TIP3   OH263046   5.549   0.893   4.020 -0.1872  0.3031 -0.2914
13852TIP3    H163047   5.468   0.899   3.971  1.0794  1.8679 -2.3545
13852TIP3    H263048   5.552   0.973   4.073  0.7374  1.1057 -1.5055
13853TIP3   OH263049   4.940   0.014   1.872 -0.1248 -0.2377  0.1974
13853TIP3    H163050   4.898   0.075   1.812 -1.4276 -0.0696  1.2213
13853TIP3    H263051   4.969  -0.059   1.818  0.8807  0.9769 -0.9548
13854TIP3   OH263052   3.472   5.158  16.705  0.3038 -0.0569 -0.0315
13854TIP3    H163053   3.538   5.160  16.635 -0.4548 -0.2731 -0.7721
13854TIP3    H263054   3.523   5.160  16.786  1.2060  0.1796 -0.5879
13855TIP3   OH263055   4.283   1.355  10.805 -0.1621 -0.4846  0.1582
13855TIP3    H163056   4.197   1.368  10.844 -0.9988 -0.8294 -1.4607
13855TIP3    H263057   4.267   1.294  10.732  1.4421 -0.5301 -0.1958
13856TIP3   OH263058   6.312   1.207   1.779 -0.4318 -0.2076 -0.6506
13856TIP3    H163059   6.286   1.150   1.852  1.6781  1.4235  1.5237
13856TIP3    H263060   6.401   1.179   1.757 -0.8347 -0.3110 -2.3037
13857TIP3   OH263061   5.697   2.575  15.393 -0.0568 -0.1425 -0.7720
13857TIP3    H163062   5.692   2.557  15.487 -0.9540 -0.7095 -0.9152
13857TIP3    H263063   5.708   2.489  15.353 -1.8562 -0.1699 -1.3063
13858TIP3   OH263064   4.446   3.354   4.646 -0.4999 -0.1136 -0.0990
13858TIP3    H163065   4.393   3.336   4.568  2.1886  0.0744 -2.1029
13858TIP3    H263066   4.481   3.442   4.631 -0.0388 -0.0188  1.4240
13859TIP3   OH263067   4.076   6.345   3.697  0.3878 -0.6048  0.2188
13859TIP3    H163068   4.100   6.381   3.783  1.4051 -0.8645  0.0579
13859TIP3    H263069   4.013   6.276   3.717 -0.3404  0.1620  0.6528
13860TIP3   OH263070   1.632   5.888   3.496  0.5536 -0.0121 -0.2688
13860TIP3    H163071   1.647   5.929   3.410 -0.4675  1.9080  0.4146
13860TIP3    H263072   1.552   5.837   3.483  0.3848  0.2938 -0.4575
13861TIP3   OH263073   5.575   3.301   1.822 -0.7268  0.0538 -0.3185
13861TIP3    H163074   5.611   3.372   1.875 -0.0273 -0.2579 -0.3510
13861TIP3    H263075   5.492   3.279   1.864  0.8697 -1.8135  2.2116
13862TIP3   OH263076   2.559   1.172   5.624 -0.2958  0.3006  0.0327
13862TIP3    H163077   2.587   1.256   5.661 -2.4913  0.7814  0.7557
13862TIP3    H263078   2.624   1.153   5.556  0.9394  1.9643  0.6714
13863TIP3   OH263079   1.310   0.146   5.996  0.8035  0.5713 -0.1589
13863TIP3    H163080   1.370   0.194   6.053  1.8369 -0.7023 -0.1509
13863TIP3    H263081   1.365   0.083   5.950  0.1090  1.7963 -2.9207
13864TIP3   OH263082   1.117   6.555   0.056 -0.0550 -0.0349 -0.4773
13864TIP3    H163083   1.118   6.460   0.061 -0.9382  0.0359  2.3710
13864TIP3    H263084   1.026   6.580   0.072  0.6091  1.3384  1.5591
13865TIP3   OH263085   4.204   0.678   5.334 -0.0521  0.3475 -0.0112
13865TIP3    H163086   4.166   0.762   5.307  0.1829 -0.0334 -1.6389
13865TIP3    H263087   4.128   0.623   5.354 -0.2113  0.8786  0.9114
13866TIP3   OH263088   4.126   2.599  14.183 -1.3840 -0.2766  0.9333
13866TIP3    H163089   4.047   2.595  14.238 -2.2707 -1.0384 -0.3435
13866TIP3    H263090   4.093   2.620  14.096 -0.5519 -3.3483 -0.2401
13867TIP3   OH263091   0.441   1.623  14.206 -0.5067  0.2480 -0.3438
13867TIP3    H163092   0.374   1.670  14.157 -0.5431  0.1004 -0.4353
13867TIP3    H263093   0.498   1.692  14.241  0.2401  0.3040 -1.6175
13868TIP3   OH263094   2.089   0.442   2.313 -0.1031  0.2617 -0.5900
13868TIP3    H163095   2.048   0.504   2.373 -0.8511  2.1186 -2.8436
13868TIP3    H263096   2.183   0.453   2.328 -0.2522 -1.2704  1.9896
13869TIP3   OH263097   3.311   4.366   3.333  0.0537 -0.5423 -0.0634
13869TIP3    H163098   3.235   4.310   3.348 -1.3009  1.2118  0.0104
13869TIP3    H263099   3.325   4.409   3.417  0.0297  0.3923 -0.5176
13870TIP3   OH263100   3.093   4.146   4.024  0.0869 -0.6281  0.0314
13870TIP3    H163101   3.189   4.144   4.022  0.3146  2.2289  1.8869
13870TIP3    H263102   3.072   4.176   4.112 -2.5497 -1.0468 -0.3729
13871TIP3   OH263103   4.868   4.011  13.091  0.0983  0.1479  0.0736
13871TIP3    H163104   4.822   3.927  13.086 -0.4119  0.4479 -0.3515
13871TIP3    H263105   4.820   4.061  13.157 -1.1645  1.0284 -1.4314
13872TIP3   OH263106   5.479   4.814  13.456  0.2832  0.1468 -0.3630
13872TIP3    H163107   5.511   4.818  13.366  1.8960  1.2128  0.2103
13872TIP3    H263108   5.557   4.789  13.508 -0.4663  0.1459  0.8051
13873TIP3   OH263109   1.381   1.258   1.182  0.0793 -0.3466 -0.5571
13873TIP3    H163110   1.403   1.339   1.229 -1.7180  0.3192 -0.7500
13873TIP3    H263111   1.361   1.195   1.250 -0.4968 -0.0005 -0.3958
13874TIP3   OH263112   3.522   0.930   2.714  0.7226 -0.1969  0.3156
13874TIP3    H163113   3.566   0.879   2.645  0.5727  0.9557 -0.6767
13874TIP3    H263114   3.434   0.945   2.680  0.2978 -0.5234  1.2577
13875TIP3   OH263115   0.892   1.809  12.041 -0.1227  0.7042  0.1098
13875TIP3    H163116   0.827   1.849  11.984 -0.3769 -0.6523 -0.5972
13875TIP3    H263117   0.974   1.814  11.992 -0.0197  0.9325  0.3012
13876TIP3   OH263118   4.849   1.223   0.493 -0.0213  0.4566  0.0676
13876TIP3    H163119   4.912   1.178   0.550 -0.6400 -0.3235  0.1497
13876TIP3    H263120   4.764   1.189   0.520 -0.7150  2.9075  1.2799
13877TIP3   OH263121   5.562   0.502  11.132 -0.5925 -0.2481 -0.1442
13877TIP3    H163122   5.578   0.591  11.162 -0.8590 -0.9019  2.1191
13877TIP3    H263123   5.567   0.448  11.211 -2.9908 -1.9070 -0.9866
13878TIP3   OH263124   4.010   5.614  16.970  0.3581  0.4441  0.4527
13878TIP3    H163125   4.039   5.571  16.889  0.4835 -1.0425  1.2530
13878TIP3    H263126   3.966   5.694  16.940  2.3518  1.0979 -0.9736
13879TIP3   OH263127   6.462   2.329   0.455 -0.6731 -0.1994 -0.0253
13879TIP3    H163128   6.421   2.351   0.372 -0.6766  3.1326  0.7333
13879TIP3    H263129   6.400   2.357   0.521  0.3955 -0.4478  1.1207
13880TIP3   OH263130   6.422   1.956   0.269 -0.4084  0.0038 -0.2832
13880TIP3    H163131   6.389   1.884   0.215 -0.6087  0.1983 -0.4175
13880TIP3    H263132   6.365   2.030   0.249 -0.3555  0.1333  0.0414
13881TIP3   OH263133   5.642   5.702  12.403 -0.3751  0.0442 -0.0748
13881TIP3    H163134   5.673   5.792  12.413 -2.3401  0.7668  0.0228
13881TIP3    H263135   5.560   5.711  12.354 -0.0935 -1.8013 -0.9356
13882TIP3   OH263136   4.799   1.797   2.718 -0.7103  0.4538  0.2473
13882TIP3    H163137   4.863   1.731   2.690 -0.8965  0.7226 -0.8568
13882TIP3    H263138   4.750   1.754   2.788  0.3734  0.0858  0.8041
13883TIP3   OH263139   1.762   0.690  12.121  0.3440  0.1532  0.0410
13883TIP3    H163140   1.679   0.732  12.144  0.9686  0.9150  0.9667
13883TIP3    H263141   1.767   0.699  12.026  0.4065  2.1228  0.1986
13884TIP3   OH263142   3.821   4.821  13.504  0.2218 -0.0094 -0.1481
13884TIP3    H163143   3.786   4.910  13.496  1.3582  0.7171  2.2262
13884TIP3    H263144   3.886   4.814  13.434 -2.2520 -0.2853 -2.5968
13885TIP3   OH263145   6.492   0.965  12.564  0.0792  0.0886 -0.0507
13885TIP3    H163146   6.580   1.004  12.566  0.2059 -0.2355  0.8275
13885TIP3    H263147   6.507   0.871  12.565 -0.2483 -0.0035 -1.5112
13886TIP3   OH263148   3.208   3.431   1.557  0.2592  0.4585 -0.2146
13886TIP3    H163149   3.303   3.417   1.551  0.3177  0.8136 -0.1072
13886TIP3    H263150   3.185   3.476   1.476 -0.0725 -0.9893 -0.9682
13887TIP3   OH263151   6.331   3.410  15.415  0.1152 -0.9237 -0.3327
13887TIP3    H163152   6.335   3.504  15.432  0.8252 -0.4536 -2.6956
13887TIP3    H263153   6.248   3.398  15.369 -0.0473 -1.4921  0.1005
13888TIP3   OH263154   2.722   4.953  12.442  0.5935 -0.2636 -0.1136
13888TIP3    H163155   2.749   4.894  12.511  1.7612 -0.1094 -0.4219
13888TIP3    H263156   2.638   4.918  12.411  0.0060 -0.2747  1.4158
13889TIP3   OH263157   1.665   0.209   2.603  0.6095  0.1217 -0.2647
13889TIP3    H163158   1.583   0.248   2.573  0.3026  1.0601  1.6315
13889TIP3    H263159   1.725   0.220   2.528 -0.1943  1.9805 -0.7098
13890TIP3   OH263160   1.471   0.354  14.834  0.3563 -0.2159  0.4689
13890TIP3    H163161   1.566   0.361  14.821  0.0196  0.9877 -1.8363
13890TIP3    H263162   1.458   0.379  14.925  2.1870  0.3227  0.6311
13891TIP3   OH263163   1.896   3.445  11.594  0.0748 -0.1976  0.1789
13891TIP3    H163164   1.899   3.350  11.591  1.5895 -0.1566 -0.6161
13891TIP3    H263165   1.967   3.470  11.652 -0.7188  0.4555  0.9033
13892TIP3   OH263166   4.382   5.971   2.891 -0.2279 -0.3586  0.0681
13892TIP3    H163167   4.367   5.906   2.823 -0.3948  0.1079 -0.3501
13892TIP3    H263168   4.299   5.978   2.937 -0.2780 -0.2848 -0.0317
13893TIP3   OH263169   3.859   2.545   0.877  0.0406  0.0261  0.4532
13893TIP3    H163170   3.914   2.493   0.935 -0.1028 -2.3525 -1.3740
13893TIP3    H263171   3.883   2.516   0.789 -1.2847  1.8869 -0.5874
13894TIP3   OH263172   2.226   0.360   0.797  0.5050  0.1507  0.0540
13894TIP3    H163173   2.313   0.325   0.820  0.9872  1.2615 -0.0124
13894TIP3    H263174   2.212   0.330   0.707  0.2623 -1.0619  0.4771
13895TIP3   OH263175   0.373   2.902  16.951  0.6502  0.7077 -0.7113
13895TIP3    H163176   0.409   2.982  16.990  2.0541 -1.0793  2.0113
13895TIP3    H263177   0.436   2.878  16.883 -0.4103  2.4389 -2.4213
13896TIP3   OH263178   0.143   6.150  13.389  0.0840  0.6703  0.0430
13896TIP3    H163179   0.161   6.228  13.336  0.4762  0.5162 -0.0578
13896TIP3    H263180   0.076   6.178  13.452 -2.1584  0.2102 -2.0080
13897TIP3   OH263181   0.316   2.952  13.072  0.2209 -0.2062  0.3926
13897TIP3    H163182   0.363   3.020  13.119  3.2049 -3.0772  1.9323
13897TIP3    H263183   0.245   2.927  13.131 -1.6216  2.1401 -0.6665
13898TIP3   OH263184   3.193   4.904  13.840  0.0499  0.4571  0.5152
13898TIP3    H163185   3.150   4.819  13.844 -0.3660  0.6173 -0.3169
13898TIP3    H263186   3.131   4.964  13.881 -0.2301  0.5726 -0.0676
13899TIP3   OH263187   6.363   3.487   5.653 -0.2604 -0.1977 -0.3405
13899TIP3    H163188   6.377   3.393   5.643  0.0751 -0.1236 -0.5755
13899TIP3    H263189   6.394   3.524   5.570 -1.1859  0.0351 -0.5962
13900TIP3   OH263190   5.453   5.542  16.822  0.1398 -1.0466  0.4805
13900TIP3    H163191   5.445   5.462  16.769 -2.3217 -2.9383  3.2972
13900TIP3    H263192   5.375   5.592  16.801  1.5548  0.5950 -1.0885
13901TIP3   OH263193   6.301   1.014  12.375 -0.2321  0.5469 -0.3818
13901TIP3    H163194   6.376   1.005  12.433 -1.0617 -0.2891  0.6032
13901TIP3    H263195   6.267   1.102  12.394 -0.1199  0.5239 -0.0716
13902TIP3   OH263196   1.331   4.053   4.783  0.7914 -0.2664 -0.2314
13902TIP3    H163197   1.257   4.064   4.725 -0.3613 -1.3323  0.9607
13902TIP3    H263198   1.346   3.958   4.785  0.3955 -0.3354  1.6280
13903TIP3   OH263199   5.213   6.399   1.082  0.1943 -0.1587  0.4070
13903TIP3    H163200   5.182   6.308   1.088  0.9346 -0.5872 -1.5967
13903TIP3    H263201   5.162   6.437   1.009  0.6740  0.7025  0.5068
13904TIP3   OH263202   3.437   2.509  12.296 -0.2635  0.1447 -0.5958
13904TIP3    H163203   3.424   2.420  12.265 -0.6538 -0.3598  0.9516
13904TIP3    H263204   3.369   2.560  12.252 -3.2462 -1.2070  2.0828
13905TIP3   OH263205   3.269   3.390  14.917 -0.1325  0.1768  0.1913
13905TIP3    H163206   3.343   3.338  14.948 -0.6434 -0.6130  0.0999
13905TIP3    H263207   3.303   3.436  14.840 -0.3112 -1.8505 -1.1797
13906TIP3   OH263208   1.735   3.552   0.279 -0.0462 -0.1695  0.1032
13906TIP3    H163209   1.736   3.457   0.289 -0.5649 -0.2626 -0.6830
13906TIP3    H263210   1.644   3.574   0.262  0.4216  0.1832 -2.2493
13907TIP3   OH263211   4.272   4.884  12.574 -0.2938 -0.4686  0.1428
13907TIP3    H163212   4.181   4.864  12.549 -0.1613 -1.6615  0.5766
13907TIP3    H263213   4.325   4.841  12.508 -0.0203 -0.0209  0.0635
13908TIP3   OH263214   0.355   3.797  16.084  0.1441 -0.4880  0.3800
13908TIP3    H163215   0.300   3.746  16.144  0.3599  0.1116  1.1061
13908TIP3    H263216   0.345   3.887  16.114 -0.3978 -0.0596 -1.0103
13909TIP3   OH263217   0.380   3.072  12.541 -0.3232 -0.4171  0.4548
13909TIP3    H163218   0.315   3.048  12.607 -0.2246  1.7102  1.4327
13909TIP3    H263219   0.365   3.011  12.469 -2.4183 -0.9367  1.2527
13910TIP3   OH263220   2.445   3.538   6.841 -0.3902  0.6274  0.3047
13910TIP3    H163221   2.412   3.512   6.755  1.1305  0.8756 -0.3893
13910TIP3    H263222   2.393   3.488   6.903  0.7809 -2.2845 -0.8645
13911TIP3   OH263223   5.616   5.139   3.514  0.2482  0.0972  0.1134
13911TIP3    H163224   5.591   5.121   3.605  3.1912  0.6922  1.1594
13911TIP3    H263225   5.577   5.068   3.464  0.9106 -1.9004  2.2517
13912TIP3   OH263226   1.906   5.034  16.909 -0.0802  0.3107  0.1330
13912TIP3    H163227   1.874   5.107  16.962 -2.5225 -0.6884  0.1367
13912TIP3    H263228   1.985   5.005  16.954  0.1754  2.0596  0.8954
13913TIP3   OH263229   3.072   0.175   3.353  0.0683  0.3067  0.5289
13913TIP3    H163230   3.077   0.083   3.376  1.0835  0.2766  0.2381
13913TIP3    H263231   3.097   0.221   3.433  3.5140  0.2039 -0.3323
13914TIP3   OH263232   6.585   3.190   5.816  0.6566  0.7471 -0.0576
13914TIP3    H163233   6.596   3.263   5.876  1.1954  0.7409 -0.1493
13914TIP3    H263234   6.617   3.114   5.864  1.7715  0.8493 -0.5958
13915TIP3   OH263235   6.268   5.856   0.149 -0.0946 -0.6168  0.6298
13915TIP3    H163236   6.349   5.904   0.130 -0.7741  0.9629  1.4886
13915TIP3    H263237   6.295   5.765   0.156  1.0247 -0.6560 -2.6258
13916TIP3   OH263238   1.264   4.467   6.510 -0.2192 -0.5515  0.3476
13916TIP3    H163239   1.274   4.554   6.470 -2.3092 -0.7047 -0.6347
13916TIP3    H263240   1.330   4.413   6.466 -1.6961 -0.4328 -2.2162
13917TIP3   OH263241   3.413   0.551  11.513  0.7443 -0.3657 -0.2273
13917TIP3    H163242   3.497   0.547  11.558  0.7285 -1.3171 -0.2616
13917TIP3    H263243   3.349   0.521  11.577  0.5252 -0.3384 -0.4294
13918TIP3   OH263244   5.213   4.765  17.203  0.0022 -0.5176  0.5011
13918TIP3    H163245   5.231   4.675  17.230 -1.1240 -1.2852 -1.1760
13918TIP3    H263246   5.118   4.768  17.190  0.0221  0.9266  0.5262
13919TIP3   OH263247   6.103   3.263   6.313  0.0516 -0.2026  0.0322
13919TIP3    H163248   6.026   3.258   6.256 -0.4360  0.2981  0.6425
13919TIP3    H263249   6.123   3.356   6.319 -0.9707 -0.0725  2.0715
13920TIP3   OH263250   5.473   5.272  15.756 -0.4438  0.2177 -0.4636
13920TIP3    H163251   5.420   5.227  15.691 -0.6267 -0.9999  0.4839
13920TIP3    H263252   5.540   5.318  15.706 -0.1336 -1.2871 -1.4907
13921TIP3   OH263253   1.902   0.437  11.070 -0.1741  0.2136  0.2623
13921TIP3    H163254   1.860   0.468  11.150  0.3189  0.4149  0.4495
13921TIP3    H263255   1.900   0.512  11.011 -2.6241 -0.5874 -0.8022
13922TIP3   OH263256   1.989   0.789  15.614 -0.3484 -0.6012  0.1099
13922TIP3    H163257   1.987   0.792  15.709  0.2580 -0.9342  0.1346
13922TIP3    H263258   1.926   0.856  15.587  0.3990  0.3771  0.7382
13923TIP3   OH263259   4.616   0.071  14.966 -0.1214  0.1929  0.2161
13923TIP3    H163260   4.662  -0.012  14.978  1.6085  1.1247  0.2674
13923TIP3    H263261   4.662   0.115  14.895 -1.3304  0.9085 -0.1606
13924TIP3   OH263262   1.416   1.304  15.699  0.6182  0.3512 -0.0992
13924TIP3    H163263   1.375   1.313  15.785 -0.3662  0.3821 -0.5514
13924TIP3    H263264   1.479   1.376  15.695 -0.2128  1.1210  0.1244
13925TIP3   OH263265   5.674   5.173   3.816 -0.1386  0.1375  0.2622
13925TIP3    H163266   5.764   5.139   3.821  0.0415 -0.0551 -2.5912
13925TIP3    H263267   5.678   5.258   3.859  0.5445 -1.2453  3.2101
13926TIP3   OH263268   5.456   2.649   4.253  0.2151 -0.2488 -0.2199
13926TIP3    H163269   5.550   2.640   4.262  0.2948  1.2965  0.9510
13926TIP3    H263270   5.442   2.743   4.241 -1.2529 -0.2595  1.1118
13927TIP3   OH263271   0.852   4.818   1.435 -0.5172  0.5197 -0.4139
13927TIP3    H163272   0.862   4.895   1.379 -0.6722  0.2735 -0.7849
13927TIP3    H263273   0.798   4.848   1.508  1.1101  1.3110  0.5266
13928TIP3   OH263274   1.972   1.098  13.221  0.1681 -0.3598  0.6482
13928TIP3    H163275   1.968   1.070  13.313 -0.9015 -1.4667  0.2952
13928TIP3    H263276   1.906   1.167  13.214  0.4374 -0.0884  0.7660
13929TIP3   OH263277   1.850   4.232  11.863  0.0567 -0.6408  0.4679
13929TIP3    H163278   1.807   4.292  11.924  0.2063 -0.1260  0.0757
13929TIP3    H263279   1.785   4.214  11.796  0.4045  0.0583 -0.0711
13930TIP3   OH263280   4.118   6.049   3.616 -0.1496 -0.1178 -0.0015
13930TIP3    H163281   4.134   6.091   3.532 -0.6258  1.0649  0.4774
13930TIP3    H263282   4.203   6.015   3.643 -0.0932 -0.9545 -1.1841
13931TIP3   OH263283   6.305   1.554  11.501  0.5552 -0.1797  0.0694
13931TIP3    H163284   6.365   1.521  11.434  0.0552  0.3050 -0.6346
13931TIP3    H263285   6.288   1.645  11.475 -0.0135 -0.1298  0.5961
13932TIP3   OH263286   0.656   6.051  12.813  0.0363 -0.2690  0.6586
13932TIP3    H163287   0.575   6.029  12.765  0.4820  0.4017 -0.4243
13932TIP3    H263288   0.678   6.139  12.783  1.6900 -0.8073  0.2127
13933TIP3   OH263289   4.866   5.800   3.690 -0.3792  0.1281  0.1958
13933TIP3    H163290   4.911   5.739   3.633  1.0347  0.5513  0.8226
13933TIP3    H263291   4.889   5.886   3.657 -2.1046  0.3800 -0.4892
13934TIP3   OH263292   3.881   5.937   3.604  0.2195  0.5906  0.3007
13934TIP3    H163293   3.895   5.872   3.673  0.1363 -0.8684 -1.0041
13934TIP3    H263294   3.967   5.975   3.589  0.7655 -0.8863 -0.4949
13935TIP3   OH263295   2.308   5.673   3.963  0.4779  0.4821 -0.7497
13935TIP3    H163296   2.365   5.701   3.892  1.0269 -0.4853 -0.7067
13935TIP3    H263297   2.367   5.636   4.028 -0.2475 -1.6719 -1.2352
13936TIP3   OH263298   1.829   5.908   5.375  0.0054 -0.1907  0.0902
13936TIP3    H163299   1.870   5.840   5.428  1.6251  0.0218 -0.8607
13936TIP3    H263300   1.846   5.989   5.423 -0.0693 -0.1941  0.1239
13937TIP3   OH263301   5.978   1.787  13.850 -0.0181 -1.1391  0.5215
13937TIP3    H163302   6.069   1.815  13.856 -0.0607 -0.9151  0.1772
13937TIP3    H263303   5.973   1.743  13.764 -0.4040 -0.5091  0.2169
13938TIP3   OH263304   4.694   1.577  12.414 -0.2111  0.2746  0.0337
13938TIP3    H163305   4.718   1.669  12.424 -0.7643  0.2586  2.0108
13938TIP3    H263306   4.770   1.529  12.448  0.7128 -0.1130 -2.3701
13939TIP3   OH263307   1.722   6.744   4.553 -0.4645  0.2870  0.2243
13939TIP3    H163308   1.764   6.662   4.578 -1.8918 -0.5917 -0.1366
13939TIP3    H263309   1.791   6.810   4.558  1.1109 -1.2010 -1.0145
13940TIP3   OH263310   4.766   1.216  11.653 -0.3656  0.0314 -0.4175
13940TIP3    H163311   4.733   1.133  11.617 -1.3157  0.2414 -0.0409
13940TIP3    H263312   4.857   1.197  11.676 -0.6396 -0.9763 -0.1249
13941TIP3   OH263313   6.633   0.722  12.517  0.3598 -0.2109 -0.0240
13941TIP3    H163314   6.699   0.779  12.477  0.6952 -0.9878 -0.6071
13941TIP3    H263315   6.683   0.659  12.568  0.1227 -1.2143 -1.0013
13942TIP3   OH263316   3.499   5.603  14.897  0.3827  0.3727  0.3004
13942TIP3    H163317   3.463   5.522  14.934  1.0840 -0.5514 -0.9637
13942TIP3    H263318   3.593   5.595  14.909  0.5212  0.6393 -0.5105
13943TIP3   OH263319   4.766   5.001   3.036 -0.6453  0.4456 -0.5069
13943TIP3    H163320   4.803   4.945   3.104 -2.6909 -0.7586 -0.3178
13943TIP3    H263321   4.673   5.006   3.056 -1.0622  1.2708 -2.3932
13944TIP3   OH263322   4.320   0.359  12.277 -0.3025  0.2678  0.1314
13944TIP3    H163323   4.335   0.271  12.311 -0.9445  0.5906  1.3009
13944TIP3    H263324   4.240   0.388  12.320 -0.8993  0.8859 -1.3406
13945TIP3   OH263325   0.596   0.298  13.341 -0.9242 -0.5296  0.2773
13945TIP3    H163326   0.580   0.298  13.436 -2.0061  0.2055  0.1207
13945TIP3    H263327   0.665   0.363  13.328 -0.6968 -0.7097  0.5662
13946TIP3   OH263328   1.503   6.367   2.763  0.0889  0.7230 -0.5583
13946TIP3    H163329   1.431   6.424   2.790 -0.1318  0.8694 -1.4461
13946TIP3    H263330   1.543   6.411   2.689  1.2333  0.7452  0.0413
13947TIP3   OH263331   3.946   2.517   6.391 -0.4596  0.5146  0.5044
13947TIP3    H163332   3.981   2.453   6.453  0.8494  0.9874  0.2805
13947TIP3    H263333   3.851   2.513   6.404 -0.2141  1.0923  3.0383
13948TIP3   OH263334   4.742   3.246  15.961  0.6484  0.4882  0.4348
13948TIP3    H163335   4.687   3.177  15.926 -0.9873  0.6193  2.5488
13948TIP3    H263336   4.832   3.212  15.952  0.0741 -0.8274 -0.7361
13949TIP3   OH263337   5.277   3.358  14.412  0.0083 -0.0165  0.0620
13949TIP3    H163338   5.343   3.427  14.422 -0.1843  0.0133  1.2506
13949TIP3    H263339   5.211   3.378  14.479 -1.0168 -0.2793 -0.8314
13950TIP3   OH263340   4.595   6.417  12.197 -0.7269 -0.6204  0.1677
13950TIP3    H163341   4.505   6.408  12.166 -0.2308 -1.1690 -1.1653
13950TIP3    H263342   4.616   6.333  12.238 -0.2501 -1.1571 -1.1237
13951TIP3   OH263343   0.011   1.460  11.670 -0.2189  0.7721  0.1625
13951TIP3    H163344   0.064   1.394  11.714 -0.7038  1.7250  2.3336
13951TIP3    H263345   0.017   1.537  11.727  0.0386  2.5147 -2.0718
13952TIP3   OH263346   1.060   4.284   4.176 -0.5014  0.1468 -0.7415
13952TIP3    H163347   1.042   4.347   4.106  2.0673  1.6542 -0.1784
13952TIP3    H263348   1.132   4.230   4.141 -0.1147  0.0369  0.1915
13953TIP3   OH263349   0.172   1.615   1.120 -0.4038 -0.0162 -0.1818
13953TIP3    H163350   0.232   1.557   1.165 -0.4807 -0.3264 -0.4794
13953TIP3    H263351   0.126   1.661   1.190 -0.3766 -0.3484  0.0543
13954TIP3   OH263352   0.696   3.380   4.657 -0.1701 -0.1329 -0.4033
13954TIP3    H163353   0.771   3.425   4.696 -0.2791 -0.5237  0.2570
13954TIP3    H263354   0.735   3.312   4.602 -0.0234  0.3301 -0.8921
13955TIP3   OH263355   3.440   1.311   4.830  0.3086  0.3417  0.0767
13955TIP3    H163356   3.524   1.331   4.789  0.0357  1.5572  0.0550
13955TIP3    H263357   3.459   1.308   4.923  0.7613 -1.5293 -0.0513
13956TIP3   OH263358   3.011   0.998   6.149 -0.0942 -0.0844 -0.2944
13956TIP3    H163359   2.918   0.996   6.125 -0.2966 -0.9196  0.4854
13956TIP3    H263360   3.029   0.910   6.182  1.0349  0.0074 -0.6105
13957TIP3   OH263361   1.005   5.864   6.427  0.1723 -0.7996  0.1653
13957TIP3    H163362   1.058   5.864   6.507  0.4784 -0.9688 -0.0355
13957TIP3    H263363   1.020   5.777   6.389 -1.2786 -1.3586  0.7777
13958TIP3   OH263364   5.245   5.667   2.865 -0.0277  0.0542  0.3356
13958TIP3    H163365   5.294   5.702   2.939  1.4484 -1.5681  0.1825
13958TIP3    H263366   5.184   5.737   2.842  1.1525  1.5452  1.5217
13959TIP3   OH263367   1.643   6.217   5.434 -0.1194 -0.0626  0.2210
13959TIP3    H163368   1.553   6.250   5.431 -0.1849 -0.2348  0.2962
13959TIP3    H263369   1.669   6.225   5.525  0.1665  0.5830  0.0889
13960TIP3   OH263370   0.856   2.278  13.800 -0.1293  0.2256  0.4400
13960TIP3    H163371   0.862   2.185  13.822  0.8545  0.5189  1.5128
13960TIP3    H263372   0.943   2.301  13.768 -0.5441  0.6434 -0.4205
13961TIP3   OH263373   5.088   5.549   3.575 -0.2676 -0.2530  0.0252
13961TIP3    H163374   5.036   5.610   3.523 -1.5643  1.1610  2.7643
13961TIP3    H263375   5.132   5.493   3.510 -1.0588  1.8971 -2.5384
13962TIP3   OH263376   6.067   1.005  17.061 -0.1515  0.1664  0.0214
13962TIP3    H163377   6.002   1.039  17.000 -0.8663 -1.0250  0.0872
13962TIP3    H263378   6.145   0.991  17.007  0.2836  2.1677  0.0651
13963TIP3   OH263379   4.473   5.139  17.308  0.0029 -0.1361 -0.0339
13963TIP3    H163380   4.478   5.116  17.215  0.8924  0.8616 -0.2593
13963TIP3    H263381   4.562   5.165  17.330 -0.2791 -0.0438  1.0179
13964TIP3   OH263382   0.675   5.186  15.253 -0.5616  0.2532 -0.3825
13964TIP3    H163383   0.589   5.163  15.217 -0.0665 -1.0609 -0.7942
13964TIP3    H263384   0.689   5.277  15.225 -1.8564  0.5261 -0.2121
13965TIP3   OH263385   2.504   1.692   3.311  0.1961 -0.0715 -0.1447
13965TIP3    H163386   2.583   1.733   3.275  0.1933 -0.6211 -0.7986
13965TIP3    H263387   2.447   1.765   3.333  0.4054  0.2981 -0.8032
13966TIP3   OH263388   5.724   0.702   1.134  0.2465 -0.8707  0.0466
13966TIP3    H163389   5.700   0.676   1.223  0.3598 -0.1779  0.2824
13966TIP3    H263390   5.643   0.740   1.098  0.2433 -1.0077 -0.0903
13967TIP3   OH263391   4.824   4.302  16.582  0.1595 -0.2934 -0.0630
13967TIP3    H163392   4.880   4.250  16.640  0.6004 -0.3049 -0.4920
13967TIP3    H263393   4.808   4.246  16.506  0.9076  0.2948 -0.6790
13968TIP3   OH263394   5.989   2.696  14.465  0.4610 -0.0080  0.3330
13968TIP3    H163395   6.028   2.719  14.550 -1.0510 -0.7418  1.2827
13968TIP3    H263396   5.906   2.653  14.488  0.2544 -0.6905 -1.5152
13969TIP3   OH263397   4.942   2.543  11.831 -0.4627 -0.7697  0.0827
13969TIP3    H163398   4.951   2.633  11.861 -1.8992 -0.0789 -1.3805
13969TIP3    H263399   5.013   2.496  11.874  0.8311  1.2221  0.2486
13970TIP3   OH263400   0.215   4.818  16.666 -0.0880 -0.4660 -0.4277
13970TIP3    H163401   0.196   4.912  16.657 -1.1781 -0.3712  2.1544
13970TIP3    H263402   0.142   4.775  16.623 -0.0545 -0.1424 -0.8185
13971TIP3   OH263403   6.224   4.053   4.302 -0.4627  0.0560  0.2212
13971TIP3    H163404   6.250   4.041   4.211  0.5700 -2.4731  0.7698
13971TIP3    H263405   6.130   4.069   4.298 -0.4214  0.0466 -1.2844
13972TIP3   OH263406   6.582   1.968   5.667 -0.1124 -0.2817  0.5349
13972TIP3    H163407   6.510   2.009   5.716 -0.6400 -1.1208  0.4696
13972TIP3    H263408   6.555   1.973   5.576  0.1878 -0.0631  0.4572
13973TIP3   OH263409   1.047   4.304   5.165  0.4150  0.0791 -0.2206
13973TIP3    H163410   1.064   4.218   5.203 -1.6676 -0.4009 -0.2499
13973TIP3    H263411   1.126   4.325   5.115  1.7027 -0.9393  1.3194
13974TIP3   OH263412   6.647   6.165   3.965 -0.2007 -0.2658  0.7293
13974TIP3    H163413   6.605   6.232   4.018 -0.1638 -1.3582  2.2000
13974TIP3    H263414   6.590   6.089   3.972  0.9636 -1.1362  1.0806
13975TIP3   OH263415   5.208   2.059   0.642 -0.2852  0.2327 -0.0804
13975TIP3    H163416   5.230   2.124   0.576 -1.7777  1.7262  0.8222
13975TIP3    H263417   5.202   1.977   0.593  1.6376  0.7184 -1.2425
13976TIP3   OH263418   0.440   6.089  17.278 -0.4366 -0.0631  0.5903
13976TIP3    H163419   0.531   6.108  17.257 -0.3580 -1.2042 -0.2147
13976TIP3    H263420   0.389   6.156  17.232 -0.1359 -1.1131 -1.3534
13977TIP3   OH263421   2.595   0.316   6.478  0.1475  0.6257  0.3200
13977TIP3    H163422   2.629   0.389   6.424  2.6263 -1.5501 -1.3246
13977TIP3    H263423   2.636   0.329   6.563 -0.3694  1.7623  0.4162
13978TIP3   OH263424   6.482   4.501   5.959 -0.3203  0.4603 -0.2882
13978TIP3    H163425   6.452   4.457   6.038  2.1459 -1.5668 -0.3270
13978TIP3    H263426   6.498   4.430   5.897 -0.0201  1.7932 -1.8055
13979TIP3   OH263427   1.689   1.126   3.396  0.1408 -0.2240  0.5997
13979TIP3    H163428   1.668   1.123   3.303 -1.4462 -0.5400  0.9384
13979TIP3    H263429   1.717   1.037   3.417 -0.4903 -0.4254  0.6205
13980TIP3   OH263430   4.898   1.762   3.123  0.0900  0.5862  0.1927
13980TIP3    H163431   4.863   1.776   3.035  0.6046  0.9764  0.0486
13980TIP3    H263432   4.979   1.712   3.110  0.4903  1.1772  0.3959
13981TIP3   OH263433   2.654   4.590  11.543 -0.1194 -0.2640 -0.0009
13981TIP3    H163434   2.582   4.611  11.603  0.1522  1.5270 -0.2478
13981TIP3    H263435   2.614   4.535  11.476 -0.9643 -0.3490  0.5555
13982TIP3   OH263436   5.093   3.017   2.969  0.1981  0.0787 -0.5546
13982TIP3    H163437   5.164   2.966   3.007  0.4588  2.2231  2.1966
13982TIP3    H263438   5.039   2.954   2.922  2.3909 -2.0460 -0.3765
13983TIP3   OH263439   2.312   5.044   4.486  0.6460 -0.3785 -0.1594
13983TIP3    H163440   2.395   5.004   4.511 -0.9559 -2.5945  2.1071
13983TIP3    H263441   2.247   4.975   4.497 -1.8369  1.8740  0.4244
13984TIP3   OH263442   1.726   6.685  14.234 -0.3428  0.3076  0.0234
13984TIP3    H163443   1.820   6.697  14.248 -0.3924  0.0800  0.5820
13984TIP3    H263444   1.700   6.620  14.299 -0.8191  0.0884 -0.3735
13985TIP3   OH263445   4.808   4.259   0.283  1.0393  0.0893  0.0061
13985TIP3    H163446   4.747   4.198   0.325 -0.6732  0.7576 -1.3694
13985TIP3    H263447   4.801   4.340   0.334  0.5767  0.2345 -0.2788
13986TIP3   OH263448   1.050   1.264  14.163  0.2361  0.2698 -0.4221
13986TIP3    H163449   1.084   1.191  14.215  2.2158  1.1249 -0.4009
13986TIP3    H263450   0.995   1.313  14.224 -0.5930 -0.8417 -0.2563
13987TIP3   OH263451   5.470   4.273   1.459  1.0296  0.0992 -0.0307
13987TIP3    H163452   5.475   4.192   1.511 -1.9649 -1.0434 -1.2956
13987TIP3    H263453   5.459   4.243   1.369  2.4683  2.0122 -0.9152
13988TIP3   OH263454   2.707   1.283   0.662  0.0263  0.1830 -0.1991
13988TIP3    H163455   2.763   1.233   0.602  0.3656  0.5331 -0.1724
13988TIP3    H263456   2.744   1.267   0.748  0.4265  0.8662 -0.2401
13989TIP3   OH263457   6.801   4.673   4.347 -0.1063 -0.1044  0.4938
13989TIP3    H163458   6.772   4.731   4.276 -0.7971  0.0762  0.9123
13989TIP3    H263459   6.728   4.612   4.359  1.6281 -2.8056 -1.7105
13990TIP3   OH263460   1.664   2.993   2.953  0.2468  0.5920 -0.2598
13990TIP3    H163461   1.673   2.974   3.047  1.5238 -0.5185 -0.5817
13990TIP3    H263462   1.752   2.981   2.918 -0.2467  0.8692 -1.6427
13991TIP3   OH263463   1.635   2.301   5.737 -0.9395  0.4858  1.1656
13991TIP3    H163464   1.579   2.272   5.666  0.0512  0.5031  0.3544
13991TIP3    H263465   1.719   2.257   5.721 -0.5842  0.7968  2.0972
13992TIP3   OH263466   6.414   2.643  15.527 -0.1672  0.6167  0.4069
13992TIP3    H163467   6.431   2.645  15.621 -1.3883 -1.9470  0.7660
13992TIP3    H263468   6.483   2.588  15.491 -1.7522 -1.5606  0.4498
13993TIP3   OH263469   5.377   3.459   1.327 -0.2810 -0.0825 -0.1101
13993TIP3    H163470   5.427   3.379   1.312  1.6799  0.8747  0.9636
13993TIP3    H263471   5.313   3.436   1.395  0.2396 -0.7576  0.1528
13994TIP3   OH263472   3.332   0.159  13.674  0.1666  0.0941 -0.3269
13994TIP3    H163473   3.276   0.172  13.597  1.0466 -1.0693 -1.1946
13994TIP3    H263474   3.328   0.065  13.691  1.2948  0.0952  0.0248
13995TIP3   OH263475   5.860   3.507   2.437 -0.1552 -0.2949 -0.2024
13995TIP3    H163476   5.832   3.595   2.462 -0.1959  0.1938 -1.8282
13995TIP3    H263477   5.901   3.471   2.515  1.4743  1.8399  0.0099
13996TIP3   OH263478   0.829   4.839   0.233  0.7021 -0.2597 -0.3167
13996TIP3    H163479   0.890   4.893   0.183 -2.0167  1.7091 -1.7652
13996TIP3    H263480   0.752   4.832   0.176 -2.4372  1.7252  3.2681
13997TIP3   OH263481   4.420   0.221  11.532  0.1156  0.0186  0.1106
13997TIP3    H163482   4.336   0.248  11.496  0.3641  0.9470  0.1884
13997TIP3    H263483   4.439   0.138  11.489  0.7336  1.3917 -2.5033
13998TIP3   OH263484   4.687   2.444   1.593 -0.0215 -0.2712  0.4870
13998TIP3    H163485   4.674   2.352   1.569 -0.5664 -0.6483  2.1127
13998TIP3    H263486   4.637   2.455   1.674 -1.5722  1.9673 -0.6549
13999TIP3   OH263487   3.121   0.126   1.345 -0.1204  0.8324  0.3297
13999TIP3    H163488   3.148   0.206   1.391 -1.0502  1.7907 -0.7187
13999TIP3    H263489   3.052   0.155   1.284 -1.5424 -1.0173  0.9421
14000TIP3   OH263490   3.919   5.347   6.748 -0.0673 -0.0180  0.5296
14000TIP3    H163491   3.973   5.285   6.797  2.0743  1.3096  0.0031
14000TIP3    H263492   3.962   5.432   6.761 -2.1216  1.1475  0.1294
14001TIP3   OH263493   1.082   6.776  11.132  0.0705  0.3781 -0.4247
14001TIP3    H163494   1.164   6.825  11.123 -0.0608  0.3834 -1.7170
14001TIP3    H263495   1.043   6.778  11.045 -0.8486 -0.4396 -0.0454
14002TIP3   OH263496   1.311   4.945   5.359 -0.3690 -0.4737  0.1784
14002TIP3    H163497   1.383   4.943   5.422 -0.9030  0.4973  0.8373
14002TIP3    H263498   1.325   4.867   5.305  1.4536 -0.0323 -0.0327
14003TIP3   OH263499   2.975   5.126  15.508  0.1857 -0.2153 -0.1864
14003TIP3    H163500   2.926   5.081  15.577 -1.8462  0.8684 -0.8432
14003TIP3    H263501   3.056   5.153  15.551 -0.9471  0.2998  1.7643
14004TIP3   OH263502   0.524   1.865  13.413 -0.0016 -0.0530 -0.1204
14004TIP3    H163503   0.579   1.873  13.335  0.8520 -0.6735  0.4056
14004TIP3    H263504   0.488   1.953  13.425 -1.9126 -0.4135 -2.4395
14005TIP3   OH263505   6.748   3.174  16.728  0.1011 -0.1881 -0.0676
14005TIP3    H163506   6.829   3.225  16.728 -0.3785  0.5946  0.1047
14005TIP3    H263507   6.749   3.127  16.645  0.5531  0.1054 -0.2325
14006TIP3   OH263508   3.538   4.735   6.289  0.7321 -0.1596  0.0129
14006TIP3    H163509   3.519   4.798   6.359  0.5393 -0.1704 -0.0293
14006TIP3    H263510   3.630   4.748   6.269  1.1241 -1.0659  1.1713
14007TIP3   OH263511   1.305   0.128  12.505  0.1803 -0.2692 -0.0344
14007TIP3    H163512   1.247   0.058  12.475  0.1800 -0.8637  1.2723
14007TIP3    H263513   1.287   0.136  12.599  0.7123  0.9829 -0.0168
14008TIP3   OH263514   3.322   2.678  15.157  0.4104 -0.6670  0.0198
14008TIP3    H163515   3.244   2.653  15.108 -0.7158  0.2160  1.2862
14008TIP3    H263516   3.342   2.767  15.128  1.6783 -1.2832 -1.1342
14009TIP3   OH263517   0.351   3.866  11.940  0.6866  0.4479 -0.1809
14009TIP3    H163518   0.437   3.825  11.952  0.2710 -0.6901 -0.8851
14009TIP3    H263519   0.290   3.808  11.986  0.0280  0.0013 -1.5596
14010TIP3   OH263520   6.742   0.053  15.439  0.0961  0.7418  0.2710
14010TIP3    H163521   6.738   0.079  15.347  0.1855  0.2967  0.1388
14010TIP3    H263522   6.650   0.049  15.467  0.0548  0.5261  0.1016
14011TIP3   OH263523   6.428   3.521   2.350  0.1341  0.2557 -0.8278
14011TIP3    H163524   6.371   3.495   2.424 -0.8878  1.8277 -1.0173
14011TIP3    H263525   6.492   3.450   2.344 -0.0524 -0.1795  1.2533
14012TIP3   OH263526   5.515   5.561   5.670 -0.5765  0.0468  0.2023
14012TIP3    H163527   5.566   5.526   5.597  0.2077  3.4087 -1.0562
14012TIP3    H263528   5.579   5.572   5.740 -0.0469  1.7654 -0.4863
14013TIP3   OH263529   3.154   5.788   0.030 -0.0887 -0.4495 -0.2101
14013TIP3    H163530   3.197   5.709   0.062 -1.4312 -1.0655  0.1296
14013TIP3    H263531   3.197   5.860   0.077  3.3004 -0.5799 -2.7016
14014TIP3   OH263532   4.102   2.290   0.006 -0.9429  0.1977 -0.1763
14014TIP3    H163533   4.173   2.262  -0.052 -1.4969  0.5197 -1.0344
14014TIP3    H263534   4.075   2.375  -0.029 -2.6212 -0.5040 -0.6689
14015TIP3   OH263535   2.659   0.618  12.096 -0.4743 -0.2066 -0.7105
14015TIP3    H163536   2.690   0.593  12.008  0.0981 -0.9596 -0.3130
14015TIP3    H263537   2.571   0.651  12.082  0.3785  1.7728 -1.8726
14016TIP3   OH263538   1.337   3.882   4.503 -0.0348  0.3273  0.3072
14016TIP3    H163539   1.383   3.815   4.554  1.9316  0.3844 -1.2867
14016TIP3    H263540   1.402   3.949   4.485 -1.3578  1.5533 -0.1478
14017TIP3   OH263541   6.018   3.912   5.161 -0.3588  0.7924  0.2072
14017TIP3    H163542   5.993   4.004   5.147  1.0548  0.9070 -2.0824
14017TIP3    H263543   6.104   3.917   5.203 -0.0267  0.5337 -0.4355
14018TIP3   OH263544   3.612   4.543   2.895 -0.7332 -0.0193  0.6255
14018TIP3    H163545   3.558   4.619   2.877  1.0747  1.1251 -0.2586
14018TIP3    H263546   3.696   4.562   2.853 -0.7103 -3.2008 -1.1147
14019TIP3   OH263547   6.369   5.072  14.621 -0.0395 -0.3766 -0.4684
14019TIP3    H163548   6.314   4.996  14.601 -0.9367  0.1121  0.1177
14019TIP3    H263549   6.389   5.063  14.714 -2.4326  1.5190  0.3237
14020TIP3   OH263550   6.220   3.143  12.440  0.0013 -0.0308 -0.0418
14020TIP3    H163551   6.159   3.070  12.452  0.9983 -0.8448  0.2055
14020TIP3    H263552   6.306   3.106  12.461  0.4511  1.3991  0.7891
14021TIP3   OH263553   6.436   2.267  12.086 -0.4657  0.5437 -0.0840
14021TIP3    H163554   6.402   2.197  12.141 -1.5374  1.3587  0.3103
14021TIP3    H263555   6.439   2.229  11.998  2.5884 -1.2389  0.6530
14022TIP3   OH263556   5.129   1.272  15.380  0.1784 -0.4095  0.2899
14022TIP3    H163557   5.126   1.322  15.298  1.4262 -0.4885  0.1758
14022TIP3    H263558   5.092   1.187  15.357 -2.7091  0.6364  0.6713
14023TIP3   OH263559   5.545   5.843  13.133  0.6660  0.3132 -0.0089
14023TIP3    H163560   5.483   5.912  13.160  0.2543  0.8625 -2.1890
14023TIP3    H263561   5.618   5.891  13.092  0.9127 -0.4904 -0.5347
14024TIP3   OH263562   1.017   6.389  11.692  0.8695 -0.3833 -0.7794
14024TIP3    H163563   1.055   6.335  11.622  1.6239  0.4682 -1.0468
14024TIP3    H263564   1.089   6.404  11.753  0.7098  0.4131 -0.7737
14025TIP3   OH263565   6.004   2.686   5.370 -0.3208  0.6117 -0.2089
14025TIP3    H163566   5.924   2.634   5.376 -0.3269  0.6469  0.0276
14025TIP3    H263567   5.984   2.753   5.305 -0.7093  1.0203  0.3226
14026TIP3   OH263568   2.418   1.756  15.965 -0.3574  0.7720 -0.0329
14026TIP3    H163569   2.498   1.770  15.916 -0.3988 -0.0599 -0.3523
14026TIP3    H263570   2.358   1.823  15.933 -1.0835 -0.9804 -2.6935
14027TIP3   OH263571   3.466   3.236   5.593  0.0623 -0.6680 -0.1598
14027TIP3    H163572   3.476   3.324   5.628  0.4700 -0.1748 -1.4285
14027TIP3    H263573   3.388   3.242   5.537  1.1096 -0.5928 -1.6690
14028TIP3   OH263574   0.525   5.042  12.040 -0.5669  0.0263 -0.5386
14028TIP3    H163575   0.525   5.126  11.993  0.6035  1.1650  1.3490
14028TIP3    H263576   0.541   5.066  12.132  0.9087 -2.3221 -0.0929
14029TIP3   OH263577   4.119   3.311  14.826 -0.1344  0.7186 -0.1170
14029TIP3    H163578   4.205   3.288  14.861  0.6160  1.7438 -1.2028
14029TIP3    H263579   4.110   3.405  14.842 -1.2372  0.5519  0.3278
14030TIP3   OH263580   1.485   1.161  11.577 -0.0830  0.5195 -0.3938
14030TIP3    H163581   1.458   1.237  11.526  0.9280  0.3591 -1.1853
14030TIP3    H263582   1.449   1.177  11.664 -1.3373  1.0795 -0.9864
14031TIP3   OH263583   6.045   4.060   6.255 -0.3456  0.1157  0.4481
14031TIP3    H163584   6.058   4.154   6.269 -1.0720  0.0428  1.7985
14031TIP3    H263585   6.120   4.019   6.297  1.7474  0.1406 -2.9252
14032TIP3   OH263586   1.347   6.464   1.721  0.2288  0.5420  0.0747
14032TIP3    H163587   1.442   6.458   1.717  0.2362  0.4940  0.3336
14032TIP3    H263588   1.317   6.374   1.708  0.2387  0.4580  0.6259
14033TIP3   OH263589   1.598   2.852  12.049  0.3401  0.6588 -0.3801
14033TIP3    H163590   1.654   2.894  11.984  0.0717  1.0057 -0.3892
14033TIP3    H263591   1.596   2.760  12.024  1.9188  0.4002  0.3308
14034TIP3   OH263592   3.208   6.334   5.507  0.3669  0.3979 -0.4766
14034TIP3    H163593   3.301   6.313   5.498  0.3559  0.2962 -0.3557
14034TIP3    H263594   3.177   6.276   5.577 -0.0187 -0.2888 -1.1964
14035TIP3   OH263595   3.434   3.748  14.793 -0.4798 -0.2243 -0.1392
14035TIP3    H163596   3.372   3.744  14.867 -1.0341  1.3769 -0.4839
14035TIP3    H263597   3.398   3.687  14.729 -0.3610 -1.1261  0.6369
14036TIP3   OH263598   6.271   0.428   2.621  0.1380 -0.1308 -0.6615
14036TIP3    H163599   6.362   0.416   2.645  0.5232  0.9676 -1.5109
14036TIP3    H263600   6.224   0.362   2.673  1.3876 -0.6739 -0.1772
14037TIP3   OH263601   5.010   5.817  11.639 -0.3786  0.5848 -0.1528
14037TIP3    H163602   4.948   5.744  11.632 -1.7643  1.6982 -0.0618
14037TIP3    H263603   4.960   5.886  11.682  0.9164  1.5797 -0.1870
14038TIP3   OH263604   2.860   2.737  16.832  0.1716 -0.4155  0.0381
14038TIP3    H163605   2.945   2.715  16.793  0.2024 -0.4066  0.0998
14038TIP3    H263606   2.804   2.662  16.812 -0.3283  0.3367 -1.5664
14039TIP3   OH263607   3.747   2.839   5.043  0.6325  0.3511  0.1003
14039TIP3    H163608   3.655   2.867   5.044  1.1807  2.4023  1.7310
14039TIP3    H263609   3.782   2.870   5.127  1.8619 -3.9272  1.4173
14040TIP3   OH263610   0.451   0.821  15.472 -0.1711  0.0861  0.1807
14040TIP3    H163611   0.484   0.911  15.469 -0.4347  0.1685 -0.4917
14040TIP3    H263612   0.493   0.783  15.549  0.9099  0.4206 -0.2121
14041TIP3   OH263613   5.421   1.229  16.661  0.1567  0.2195  0.2832
14041TIP3    H163614   5.436   1.176  16.738  1.6095 -1.3589 -1.0081
14041TIP3    H263615   5.506   1.269  16.642 -0.1002  0.3551 -0.6439
14042TIP3   OH263616   1.065   4.693   0.616  0.5321  0.3106 -0.4098
14042TIP3    H163617   1.034   4.613   0.572  0.2456 -0.0764  0.4634
14042TIP3    H263618   1.120   4.660   0.688  0.5065  0.9023 -0.1156
14043TIP3   OH263619   0.073   2.564   1.048  0.2935  0.2781 -0.0810
14043TIP3    H163620   0.053   2.513   1.126 -1.9663 -0.9988 -1.3708
14043TIP3    H263621   0.168   2.558   1.039  0.4575 -0.6425  1.8091
14044TIP3   OH263622   3.293   4.965  13.373  0.5479  0.6599  0.4533
14044TIP3    H163623   3.221   4.942  13.432  0.0430 -0.7138 -0.6415
14044TIP3    H263624   3.356   4.894  13.383  1.7832  1.8318  1.3711
14045TIP3   OH263625   4.777   3.113   3.399  0.2671 -0.5309  0.2684
14045TIP3    H163626   4.790   3.025   3.364 -1.2423 -0.3037 -0.9646
14045TIP3    H263627   4.697   3.144   3.356  1.3383  1.8404 -0.1402
14046TIP3   OH263628   6.194   2.366  16.912 -0.3379  0.2694  0.1131
14046TIP3    H163629   6.229   2.451  16.938  1.6378 -0.9230  1.6220
14046TIP3    H263630   6.135   2.341  16.982 -0.2270  0.0097  0.1157
14047TIP3   OH263631   2.027   3.949  16.779  0.3924  0.3188  0.1407
14047TIP3    H163632   2.105   3.970  16.727 -0.1748  3.1586  0.3068
14047TIP3    H263633   1.963   3.920  16.714  0.9227 -0.0249 -0.2422
14048TIP3   OH263634   5.795   4.686  15.553 -0.1345 -0.2287 -0.6160
14048TIP3    H163635   5.793   4.758  15.490 -0.2895 -0.2689 -0.6556
14048TIP3    H263636   5.734   4.713  15.622  0.4169  0.0493 -0.2300
14049TIP3   OH263637   4.614   0.898   5.020 -0.3880 -0.7018 -0.3202
14049TIP3    H163638   4.568   0.935   4.944  0.8257 -0.1290 -0.8070
14049TIP3    H263639   4.632   0.973   5.076  0.2888 -0.8560 -0.3268
14050TIP3   OH263640   0.268   4.423   1.078  0.0509  0.1254 -0.6062
14050TIP3    H163641   0.300   4.481   1.008  1.0204 -2.1998 -2.1940
14050TIP3    H263642   0.173   4.435   1.078  0.3305  3.4871  0.8385
14051TIP3   OH263643   0.344   3.858  12.237  0.0530  0.6884 -1.0646
14051TIP3    H163644   0.255   3.823  12.245  0.4718 -0.3361 -0.7277
14051TIP3    H263645   0.401   3.787  12.268  0.9647  1.4934 -0.8396
14052TIP3   OH263646   3.619   4.608   1.760  0.0232  0.0158  1.0559
14052TIP3    H163647   3.624   4.655   1.844  0.4664 -1.3193  1.8025
14052TIP3    H263648   3.567   4.530   1.780  0.3429 -0.4336  0.1373
14053TIP3   OH263649   2.507   0.191  11.484  0.0607 -0.4919  0.3071
14053TIP3    H163650   2.429   0.197  11.539  1.1074  0.0204  1.8212
14053TIP3    H263651   2.563   0.127  11.529  1.4628  0.8421  0.5419
14054TIP3   OH263652   2.703   1.537   1.688 -0.0474  0.1781  0.0517
14054TIP3    H163653   2.682   1.573   1.774 -0.3660 -1.6813  0.8157
14054TIP3    H263654   2.788   1.495   1.699  0.8402  1.5620 -1.1076
14055TIP3   OH263655   0.330   0.657   5.885  0.4944  0.3322  0.2119
14055TIP3    H163656   0.249   0.636   5.931  1.5060 -1.1254  1.3862
14055TIP3    H263657   0.382   0.706   5.948  1.0568  0.1171 -0.0754
14056TIP3   OH263658   0.186   5.211   6.900  0.3296  0.3995 -0.0351
14056TIP3    H163659   0.137   5.129   6.904  2.8070 -1.3675 -2.0575
14056TIP3    H263660   0.141   5.262   6.832 -1.5187  1.0544  1.5753
14057TIP3   OH263661   0.290   5.183   6.393  0.2949  0.3735  0.1646
14057TIP3    H163662   0.317   5.191   6.485  0.5776 -0.6473  0.1804
14057TIP3    H263663   0.277   5.090   6.380 -2.3759  0.7054 -0.1106
14058TIP3   OH263664   3.672   3.589  11.349 -0.4359  0.1398 -0.0546
14058TIP3    H163665   3.649   3.496  11.337  0.5241  0.2006 -2.8839
14058TIP3    H263666   3.600   3.637  11.308 -0.8449  0.6951  1.2529
14059TIP3   OH263667   2.137   5.943   4.952 -0.4013 -0.6839 -0.0100
14059TIP3    H163668   2.186   5.962   4.872 -2.0020  0.8008 -0.7199
14059TIP3    H263669   2.190   5.980   5.022 -0.0608  0.0912 -0.6582
14060TIP3   OH263670   4.599   0.111   0.355 -0.2884 -0.3910 -0.4964
14060TIP3    H163671   4.532   0.172   0.324 -1.2087 -1.6321 -1.0082
14060TIP3    H263672   4.675   0.128   0.298 -0.4411  0.4437 -0.4593
14061TIP3   OH263673   2.523   6.585   3.897 -0.2832 -0.3111 -0.0608
14061TIP3    H163674   2.601   6.624   3.857 -0.1187  3.2592  3.1370
14061TIP3    H263675   2.554   6.548   3.979 -1.6931 -0.3081  0.5009
14062TIP3   OH263676   3.190   5.126   2.427  0.2178 -0.6429  0.1602
14062TIP3    H163677   3.267   5.084   2.466  0.9819 -0.9376 -1.5423
14062TIP3    H263678   3.115   5.085   2.470  0.9725 -2.8812 -0.5271
14063TIP3   OH263679   6.470   6.609   1.837 -0.5523  0.1027  0.8001
14063TIP3    H163680   6.504   6.694   1.865  1.6045 -0.3108 -0.3139
14063TIP3    H263681   6.480   6.552   1.913 -1.7229  0.7313  1.4546
14064TIP3   OH263682   2.306   4.858  14.693  0.0449 -0.6820 -0.1021
14064TIP3    H163683   2.335   4.901  14.612 -0.8253  0.4401  0.1573
14064TIP3    H263684   2.302   4.929  14.757  0.0165 -1.4304  0.7344
14065TIP3   OH263685   3.105   5.253  14.921  0.1609 -0.3628  0.3416
14065TIP3    H163686   3.013   5.238  14.945 -0.6406  2.9149 -0.1779
14065TIP3    H263687   3.138   5.311  14.990  0.6053  1.6193 -1.4438
14066TIP3   OH263688   5.848   2.019   2.566 -0.5651 -0.0664 -0.0820
14066TIP3    H163689   5.941   2.044   2.559 -0.5017 -0.3942 -0.4246
14066TIP3    H263690   5.801   2.103   2.566 -0.2820  0.0951 -0.1370
14067TIP3   OH263691   0.461   3.465   5.786 -0.2970 -0.0572 -0.3179
14067TIP3    H163692   0.521   3.485   5.858 -0.5282  1.5289 -0.5395
14067TIP3    H263693   0.513   3.479   5.707 -0.7407  0.6166 -0.4962
14068TIP3   OH263694   1.983   5.684   3.599  0.3929  0.2442 -0.3168
14068TIP3    H163695   1.895   5.700   3.634 -0.0110 -1.3260 -0.5565
14068TIP3    H263696   2.004   5.595   3.625  1.8437  0.5258 -0.4530
14069TIP3   OH263697   6.279   6.107  13.267 -0.0082 -0.0598  0.1868
14069TIP3    H163698   6.227   6.089  13.345 -0.0604 -1.2334 -0.0936
14069TIP3    H263699   6.368   6.121  13.301 -0.3859  1.5096  0.6230
14070TIP3   OH263700   0.725   2.218  15.261  0.2977  0.2367 -0.0441
14070TIP3    H163701   0.815   2.224  15.228  0.7785  0.8033  1.2787
14070TIP3    H263702   0.696   2.309  15.268 -0.7103  0.0269 -1.2790
14071TIP3   OH263703   1.349   6.234  14.618  0.4124  0.4695  0.1978
14071TIP3    H163704   1.265   6.188  14.620  1.2856 -1.2115 -0.2137
14071TIP3    H263705   1.372   6.238  14.525  1.3060 -0.0696  0.3942
14072TIP3   OH263706   1.618   2.647  16.622 -0.3655 -0.3625 -0.8195
14072TIP3    H163707   1.619   2.552  16.610 -0.2350 -0.8228  2.0401
14072TIP3    H263708   1.703   2.668  16.660 -0.7597  0.7313 -0.4782
14073TIP3   OH263709   2.665   5.707   5.779 -0.5331 -0.3795  0.1211
14073TIP3    H163710   2.720   5.694   5.857 -2.0418 -2.1073  0.9624
14073TIP3    H263711   2.707   5.780   5.733  0.4557  0.6833  2.4978
14074TIP3   OH263712   4.362   4.786  16.389 -0.1447  0.4153 -0.0674
14074TIP3    H163713   4.437   4.812  16.443 -0.2957 -0.8752  0.8053
14074TIP3    H263714   4.366   4.844  16.313  0.9736  1.2402  0.5924
14075TIP3   OH263715   6.058   6.749   4.494  0.1070 -0.2741  0.2914
14075TIP3    H163716   5.988   6.686   4.478  0.9048 -1.0425 -0.2035
14075TIP3    H263717   6.123   6.732   4.426  0.6947  0.5572  0.6253
14076TIP3   OH263718   3.279   3.569  14.635  0.0215 -0.2041 -0.5847
14076TIP3    H163719   3.349   3.513  14.603 -0.1988 -0.1305 -1.1994
14076TIP3    H263720   3.200   3.517  14.626 -0.0436 -0.1826 -0.1606
14077TIP3   OH263721   3.833   5.892  13.916  0.2919 -0.0784 -0.0606
14077TIP3    H163722   3.794   5.895  14.004  1.3321 -0.2374  0.4224
14077TIP3    H263723   3.758   5.878  13.857 -0.7347  2.2351  0.5617
14078TIP3   OH263724   0.391   1.165   0.410  0.5758 -0.4163  0.0246
14078TIP3    H163725   0.390   1.257   0.436 -0.9347 -0.0864 -1.0214
14078TIP3    H263726   0.435   1.165   0.325  0.7944 -0.7063  0.1353
14079TIP3   OH263727   3.438   3.190   2.877  0.2151  0.3154  0.5336
14079TIP3    H163728   3.519   3.240   2.885  0.6156 -0.2620  0.1782
14079TIP3    H263729   3.387   3.215   2.954 -0.0118  1.9729 -0.1200
14080TIP3   OH263730   3.291   5.929  12.678 -0.4110 -0.1906  0.2129
14080TIP3    H163731   3.247   5.923  12.593 -1.3742 -0.3754  0.7100
14080TIP3    H263732   3.260   5.853  12.726  0.9722 -0.6842  0.3619
14081TIP3   OH263733   2.800   3.358   3.211 -0.0951  0.3302  0.3995
14081TIP3    H163734   2.824   3.337   3.121  2.7892  1.8279  0.7054
14081TIP3    H263735   2.797   3.454   3.213 -3.9245  0.3543  1.0961
14082TIP3   OH263736   3.243   3.644   4.306  0.2378 -0.2275  0.4293
14082TIP3    H163737   3.300   3.697   4.251 -1.0816  1.9968  1.0639
14082TIP3    H263738   3.289   3.638   4.390 -0.2965  1.3919  0.8767
14083TIP3   OH263739   0.144   2.344   4.042 -0.7201 -0.1391 -0.0225
14083TIP3    H163740   0.188   2.388   3.969 -0.0206  1.2106  1.1444
14083TIP3    H263741   0.206   2.351   4.114 -1.7020 -0.7585  0.9013
14084TIP3   OH263742   4.208   1.564   1.779 -0.0992  0.2125 -0.2250
14084TIP3    H163743   4.120   1.531   1.763  0.1673  0.1264 -1.5639
14084TIP3    H263744   4.249   1.570   1.693  1.5364 -0.6297  0.4385
14085TIP3   OH263745   2.542   5.784  14.680 -0.7765  0.1266  0.0551
14085TIP3    H163746   2.586   5.869  14.684 -0.1356 -0.1671 -0.4149
14085TIP3    H263747   2.605   5.727  14.635 -1.2749 -0.5464  0.1898
14086TIP3   OH263748   5.663   0.193   3.049 -0.3739  0.5716 -0.0255
14086TIP3    H163749   5.739   0.158   3.094  0.8326  2.5334 -0.3989
14086TIP3    H263750   5.641   0.127   2.983 -0.7004 -1.2335  1.7925
14087TIP3   OH263751   3.562   1.241  14.375 -0.0010  0.0588  0.6651
14087TIP3    H163752   3.491   1.263  14.435 -0.8376  1.1362 -0.6440
14087TIP3    H263753   3.636   1.294  14.404 -0.1839  0.0440  1.1631
14088TIP3   OH263754   4.100   5.984  13.222  0.2454  0.3001  0.4557
14088TIP3    H163755   4.084   6.072  13.256  1.1610  0.2775  0.9583
14088TIP3    H263756   4.137   5.936  13.296 -0.3377 -0.5466  0.2173
14089TIP3   OH263757   5.284   6.289  11.883  0.4425  0.0501 -0.1042
14089TIP3    H163758   5.363   6.244  11.914 -0.0515 -0.4053  0.5143
14089TIP3    H263759   5.281   6.369  11.934 -0.6795 -0.9646  1.4904
14090TIP3   OH263760   1.515   1.041   1.076 -0.3305  0.3524 -0.6406
14090TIP3    H163761   1.462   0.986   1.018 -2.5956 -2.1428  3.2512
14090TIP3    H263762   1.462   1.121   1.088 -1.6075 -0.6053  0.4745
14091TIP3   OH263763   6.681   6.549   3.096  0.1879  0.1451  0.3218
14091TIP3    H163764   6.729   6.513   3.021  1.1964 -0.1551  1.0753
14091TIP3    H263765   6.713   6.639   3.104  0.6936 -0.0690  0.8514
14092TIP3   OH263766   6.467   1.643   2.651  0.1751  0.3105 -0.1527
14092TIP3    H163767   6.422   1.651   2.735  2.6193  2.2213  1.1336
14092TIP3    H263768   6.407   1.682   2.588 -1.5959 -0.9019  0.6953
14093TIP3   OH263769   0.406   0.292  16.765 -0.0312 -0.2373  0.2138
14093TIP3    H163770   0.325   0.253  16.798  0.8468 -0.6389  2.0032
14093TIP3    H263771   0.399   0.385  16.789  0.1475 -0.3222  0.5958
14094TIP3   OH263772   1.271   5.142  12.474  0.7516 -0.2127 -0.0692
14094TIP3    H163773   1.228   5.070  12.428 -0.5964  0.3438  0.2523
14094TIP3    H263774   1.280   5.210  12.408  0.2518  0.0125  0.0864
14095TIP3   OH263775   2.543   0.253  13.029  0.1022  0.1171  0.2735
14095TIP3    H163776   2.512   0.196  13.100 -1.4276  0.3911 -0.1312
14095TIP3    H263777   2.463   0.286  12.988  0.9475  0.3723 -1.2680
14096TIP3   OH263778   4.503   5.126   0.882  0.3012 -0.2681 -0.5283
14096TIP3    H163779   4.476   5.086   0.965 -1.0374  1.3545 -0.1003
14096TIP3    H263780   4.427   5.179   0.856  1.9867  2.1212 -0.8893
14097TIP3   OH263781   3.584   0.844   0.967  0.1421  0.0728 -0.3050
14097TIP3    H163782   3.540   0.809   0.889  2.1767  0.1633 -1.5801
14097TIP3    H263783   3.569   0.938   0.963 -0.7051 -0.0358  0.0691
14098TIP3   OH263784   3.965   3.899   2.297 -0.4327  0.0618  0.1788
14098TIP3    H163785   3.874   3.920   2.277 -0.2117  2.0153  1.0819
14098TIP3    H263786   4.011   3.982   2.292  0.7802 -0.3898  2.5402
14099TIP3   OH263787   3.707   2.660   5.993  0.0464  0.7340  0.2232
14099TIP3    H163788   3.738   2.570   5.983  0.6231  1.0315 -0.7963
14099TIP3    H263789   3.738   2.687   6.079 -1.8614 -0.6922  1.4439
14100TIP3   OH263790   4.048   3.943  16.514 -0.6162 -0.3060 -0.2374
14100TIP3    H163791   4.077   3.871  16.459  2.3126 -0.8095  1.7029
14100TIP3    H263792   4.032   3.903  16.600 -1.0141  1.0343  0.3373
14101TIP3   OH263793   5.676   4.902   2.419 -0.4478  0.0413 -0.7037
14101TIP3    H163794   5.721   4.838   2.363  1.9181  2.4895 -1.8100
14101TIP3    H263795   5.630   4.959   2.358 -2.4441 -0.4305  0.2674
14102TIP3   OH263796   1.872   0.618  14.995 -0.0798 -0.1360 -0.7683
14102TIP3    H163797   1.915   0.582  14.918 -0.0502 -0.9096 -0.3995
14102TIP3    H263798   1.934   0.605  15.067  0.1244  1.0834 -0.7061
14103TIP3   OH263799   4.011   4.049  15.128  0.3091  0.6349 -0.3077
14103TIP3    H163800   3.922   4.047  15.163  0.4152 -1.3167  0.0111
14103TIP3    H263801   4.003   4.097  15.045 -1.5517 -1.4167 -1.4530
14104TIP3   OH263802   4.240   2.164  16.364  0.1297 -0.4347  0.3562
14104TIP3    H163803   4.145   2.164  16.371  0.1307 -0.6357  0.3782
14104TIP3    H263804   4.263   2.256  16.347 -0.1617 -0.5981 -1.0218
14105TIP3   OH263805   4.456   6.693   3.341  0.4238 -0.6197 -0.1259
14105TIP3    H163806   4.446   6.638   3.263 -0.1998 -0.3010 -0.2788
14105TIP3    H263807   4.384   6.665   3.398  1.1766 -1.2005  0.5487
14106TIP3   OH263808   2.273   1.271   1.571  0.2133  0.4553  0.0922
14106TIP3    H163809   2.281   1.254   1.665  2.9526  2.8640  0.4301
14106TIP3    H263810   2.179   1.285   1.557 -0.2982 -0.3454  2.3782
14107TIP3   OH263811   5.418   0.888  11.269  0.1031  0.5754 -0.5872
14107TIP3    H163812   5.352   0.866  11.204  0.6474 -0.6803 -0.7440
14107TIP3    H263813   5.462   0.805  11.288  1.6529  1.3727 -0.5039
14108TIP3   OH263814   5.859   4.330  14.859 -0.0758 -0.0982  0.7545
14108TIP3    H163815   5.823   4.382  14.931  1.6067  0.7579  1.0488
14108TIP3    H263816   5.813   4.246  14.863 -0.3220  0.0977  2.5542
14109TIP3   OH263817   4.349   1.710  12.024  0.4398 -0.2206 -0.7016
14109TIP3    H163818   4.399   1.782  12.062  0.0359 -0.1099 -0.3695
14109TIP3    H263819   4.405   1.676  11.954  1.0197 -0.1678 -0.2716
14110TIP3   OH263820   6.486   0.310  16.375  0.4781  0.2715 -0.7316
14110TIP3    H163821   6.485   0.385  16.435  0.5669 -0.1547 -0.1997
14110TIP3    H263822   6.557   0.329  16.314  3.1617 -1.1908  1.7184
14111TIP3   OH263823   2.387   4.379   3.883 -0.3643 -0.4433 -0.5656
14111TIP3    H163824   2.437   4.411   3.808 -0.8624 -1.8247 -1.5192
14111TIP3    H263825   2.322   4.447   3.899 -1.4587 -0.9304 -2.6037
14112TIP3   OH263826   5.075   1.514  13.593 -0.0422 -0.2083  0.0386
14112TIP3    H163827   5.017   1.517  13.517 -0.6759  0.4428  0.5386
14112TIP3    H263828   5.163   1.525  13.556 -0.3648  0.4208 -0.5708
14113TIP3   OH263829   4.001   1.408   4.993  0.1214 -0.1180  0.7575
14113TIP3    H163830   4.049   1.490   5.007 -0.2701  0.3892 -0.6527
14113TIP3    H263831   3.929   1.411   5.056 -0.2983  0.9725  0.2576
14114TIP3   OH263832   1.890   5.404   5.287  0.5597  0.0204 -0.0198
14114TIP3    H163833   1.814   5.433   5.337  0.8062  3.0831 -1.1664
14114TIP3    H263834   1.965   5.420   5.345  0.5853  0.4013 -0.1543
14115TIP3   OH263835   1.724   2.304  11.881 -0.3672  0.1647  0.2061
14115TIP3    H163836   1.660   2.301  11.952  1.1835 -2.9967  1.6182
14115TIP3    H263837   1.678   2.265  11.806 -0.6690 -0.3823  0.6708
14116TIP3   OH263838   2.287   2.695   2.249 -0.2775  0.1521  0.1166
14116TIP3    H163839   2.343   2.726   2.321  2.5568 -1.3338 -1.2641
14116TIP3    H263840   2.245   2.617   2.284  0.0254  0.1958  0.5935
14117TIP3   OH263841   0.909   0.854   0.562 -0.4146 -0.3596  0.1931
14117TIP3    H163842   0.859   0.834   0.483 -1.1333  1.3691  0.1696
14117TIP3    H263843   0.847   0.840   0.634 -0.5905  0.6234  0.2478
14118TIP3   OH263844   2.333   0.467   2.524 -0.0717  0.3931 -0.1500
14118TIP3    H163845   2.335   0.535   2.457 -2.4127  0.2844 -0.4134
14118TIP3    H263846   2.341   0.515   2.607 -1.7684  1.0619 -0.3286
14119TIP3   OH263847   6.199   1.212  11.250 -0.2272  0.3867 -0.2164
14119TIP3    H163848   6.281   1.253  11.222 -0.0467 -1.4145 -2.6919
14119TIP3    H263849   6.209   1.120  11.224 -2.0250 -0.4471  1.8244
14120TIP3   OH263850   6.106   4.551   0.681 -0.3163 -0.3834 -0.8320
14120TIP3    H163851   6.189   4.547   0.633  0.3774  1.6884  0.0593
14120TIP3    H263852   6.067   4.465   0.669  1.0985 -0.8315 -2.7981
14121TIP3   OH263853   6.307   3.654  16.978  0.0922  0.6278 -0.0200
14121TIP3    H163854   6.312   3.596  17.054  1.2611  1.2723  0.4108
14121TIP3    H263855   6.214   3.676  16.972 -0.0796  0.2658  0.9974
14122TIP3   OH263856   6.503   0.765   3.210 -0.2458  0.0537  0.5599
14122TIP3    H163857   6.430   0.826   3.224 -0.4866  0.0525 -0.5684
14122TIP3    H263858   6.472   0.682   3.246 -1.5360 -0.3949 -1.4166
14123TIP3   OH263859   3.278   6.128   5.132 -0.4210 -0.2575 -0.4803
14123TIP3    H163860   3.369   6.099   5.119  0.7924  2.1036  1.6880
14123TIP3    H263861   3.261   6.186   5.058  0.3860  0.3656 -0.1999
14124TIP3   OH263862   2.992   2.333   2.807 -0.0958  0.3416 -0.0394
14124TIP3    H163863   3.058   2.268   2.831  1.8018  1.5800 -1.5873
14124TIP3    H263864   3.039   2.397   2.754 -2.4577  1.5834 -0.8026
14125TIP3   OH263865   4.684   4.691  14.048  0.0883 -0.3636 -0.4479
14125TIP3    H163866   4.723   4.620  13.997  0.5252 -0.0779 -0.5131
14125TIP3    H263867   4.708   4.671  14.139  0.6295 -0.0321 -0.5190
14126TIP3   OH263868   4.622   4.990  11.793 -0.3006 -0.3007 -1.1298
14126TIP3    H163869   4.568   4.924  11.837  0.8437 -0.4831  0.0428
14126TIP3    H263870   4.581   5.074  11.815  0.2481 -0.3902  0.2924
14127TIP3   OH263871   5.837   2.684   4.035 -0.2471  0.6928  0.6798
14127TIP3    H163872   5.799   2.641   4.111  0.5194  0.7444  1.1070
14127TIP3    H263873   5.861   2.771   4.066 -1.2987  1.2630 -0.0351
14128TIP3   OH263874   4.435   1.876   2.208 -0.1827 -0.1995  0.1265
14128TIP3    H163875   4.459   1.792   2.170 -1.6743 -0.5836 -0.0284
14128TIP3    H263876   4.467   1.872   2.298  0.5851 -0.5359 -0.1477
14129TIP3   OH263877   5.183   0.919  13.014  0.1116  0.0261  0.1688
14129TIP3    H163878   5.102   0.893  12.971 -0.7100  0.4476  1.4114
14129TIP3    H263879   5.235   0.839  13.019 -0.9170 -0.6195  0.7962
14130TIP3   OH263880   6.272   4.858  13.236 -0.0786  0.0566  0.4744
14130TIP3    H163881   6.183   4.859  13.271 -0.7508 -1.2297 -1.0486
14130TIP3    H263882   6.288   4.948  13.207  0.5081  1.1742  3.8471
14131TIP3   OH263883   0.977   2.594  17.196  0.2485  0.4012  0.1575
14131TIP3    H163884   1.004   2.651  17.269 -0.9226  1.5735 -0.2742
14131TIP3    H263885   1.054   2.590  17.139  0.6912  0.6967  0.7219
14132TIP3   OH263886   2.176   3.160   2.859  0.0460 -0.5478 -0.1847
14132TIP3    H163887   2.185   3.206   2.775  0.8420 -0.7601 -0.2284
14132TIP3    H263888   2.214   3.074   2.843  0.3123 -0.5474  0.4237
14133TIP3   OH263889   6.196   5.693  13.930 -0.2443 -0.1988 -0.6626
14133TIP3    H163890   6.289   5.670  13.924 -0.1349 -0.0920  0.4116
14133TIP3    H263891   6.170   5.667  14.019 -1.4089 -0.8143 -1.1627
14134TIP3   OH263892   0.750   2.513  16.659  0.2614 -0.1009  0.1048
14134TIP3    H163893   0.680   2.452  16.682  0.0797 -0.4138 -1.1963
14134TIP3    H263894   0.744   2.523  16.564 -0.2718  2.6269  0.3247
14135TIP3   OH263895   6.278   4.726   5.998 -0.1016  0.0434 -0.5211
14135TIP3    H163896   6.256   4.718   6.091 -0.8820  0.2850 -0.6761
14135TIP3    H263897   6.337   4.653   5.981  2.4338  1.6313  0.8268
14136TIP3   OH263898   3.862   2.048  15.642  0.3178  0.2504  0.8312
14136TIP3    H163899   3.791   2.111  15.631 -1.3448 -1.5980  0.4806
14136TIP3    H263900   3.820   1.963  15.637  2.7711 -0.9718 -0.7345
14137TIP3   OH263901   3.173   6.245  14.549  0.4043 -0.3281  0.2506
14137TIP3    H163902   3.236   6.284  14.490  1.8394 -0.1082  1.8493
14137TIP3    H263903   3.088   6.264  14.510  1.2634  0.3174 -1.3905
14138TIP3   OH263904   5.696   5.138  15.488  0.7740 -0.2457 -0.1247
14138TIP3    H163905   5.718   5.121  15.579 -2.3325  0.7494  0.9311
14138TIP3    H263906   5.758   5.205  15.460  0.8822  0.4943  1.7482
14139TIP3   OH263907   2.773   6.527  16.777  0.1386  0.0789 -0.5574
14139TIP3    H163908   2.711   6.596  16.800 -1.2418 -1.0477 -0.7269
14139TIP3    H263909   2.835   6.524  16.851 -0.0625  1.1567 -0.3351
14140TIP3   OH263910   6.544   2.018  10.437  0.0847 -0.2014  0.0285
14140TIP3    H163911   6.503   2.073  10.504 -1.6566  1.9868 -2.5704
14140TIP3    H263912   6.482   1.946  10.424 -1.2692  1.0960 -1.2866
14141TIP3   OH263913   1.378   4.777   1.597  0.7993 -0.0435 -0.3526
14141TIP3    H163914   1.410   4.800   1.510 -1.3431 -0.8947 -1.4295
14141TIP3    H263915   1.312   4.844   1.617 -0.6786 -1.3497 -0.6230
14142TIP3   OH263916   0.432   3.826  10.622 -1.2650 -0.6524 -0.2263
14142TIP3    H163917   0.470   3.892  10.564 -1.3412  1.4727  1.9622
14142TIP3    H263918   0.367   3.874  10.674 -1.2961 -2.4219  1.5101
14143TIP3   OH263919   4.076   4.144   3.911  0.1780 -0.1238  0.0060
14143TIP3    H163920   3.996   4.114   3.868 -0.3587 -1.8829  2.0630
14143TIP3    H263921   4.051   4.226   3.953  0.2333  0.6877 -1.4526
14144TIP3   OH263922   0.905   6.170   1.018  0.5226  0.2559  0.3792
14144TIP3    H163923   0.948   6.254   1.008  1.2889  0.0583  1.7426
14144TIP3    H263924   0.906   6.153   1.113 -0.8151 -0.6619  0.2629
14145TIP3   OH263925   5.046   1.222  11.714  0.6486  0.9955 -0.1676
14145TIP3    H163926   5.057   1.306  11.760  0.4158 -0.1085  2.0355
14145TIP3    H263927   5.126   1.173  11.732  0.8705  0.7787 -1.6087
14146TIP3   OH263928   0.609   3.711   1.473 -0.6791 -0.4203  0.1236
14146TIP3    H163929   0.616   3.629   1.425 -1.8475  0.9235 -2.5084
14146TIP3    H263930   0.518   3.738   1.463 -0.2374  1.4003  0.5853
14147TIP3   OH263931   1.588   3.585  13.091 -0.0165  0.0816  0.4861
14147TIP3    H163932   1.651   3.657  13.092  1.1189 -0.8352 -0.5216
14147TIP3    H263933   1.510   3.621  13.048  0.3718  0.8349  0.4050
14148TIP3   OH263934   5.099   2.603  16.985  0.2817  0.5731  0.1225
14148TIP3    H163935   5.111   2.514  16.951 -0.0092  0.3157  0.6751
14148TIP3    H263936   5.073   2.655  16.909  2.6096  0.6834 -0.6762
14149TIP3   OH263937   5.816   2.812   2.577 -0.7161  0.0637 -0.2535
14149TIP3    H163938   5.887   2.755   2.547  0.2696  1.0944  0.0566
14149TIP3    H263939   5.751   2.808   2.507 -0.4975 -1.1442 -0.4028
14150TIP3   OH263940   3.183   5.978   4.777 -0.7277  0.9274  0.1300
14150TIP3    H163941   3.268   5.947   4.745 -0.6657  0.6259  0.5709
14150TIP3    H263942   3.204   6.053   4.832 -0.6643  0.3523  0.9056
14151TIP3   OH263943   1.163   2.087   5.570  0.4520  0.3733  0.5550
14151TIP3    H163944   1.085   2.141   5.579 -0.0828 -0.6383  2.4667
14151TIP3    H263945   1.173   2.043   5.655  2.9094  0.2039  0.2705
14152TIP3   OH263946   6.588   5.888  13.473 -0.2392  0.0646  0.2789
14152TIP3    H163947   6.588   5.801  13.434  0.9232 -0.1719  0.7564
14152TIP3    H263948   6.655   5.883  13.542 -0.6420  1.1327  0.7725
14153TIP3   OH263949   4.328   6.812  14.650 -0.5616  0.1093  0.1859
14153TIP3    H163950   4.242   6.835  14.614 -0.6568 -2.6459 -1.6328
14153TIP3    H263951   4.370   6.896  14.666 -2.8027  1.5371 -0.8605
14154TIP3   OH263952   4.243   1.928   5.455  0.4899 -0.4028  0.0914
14154TIP3    H163953   4.247   1.850   5.512 -1.9713 -0.3336  0.4794
14154TIP3    H263954   4.175   1.982   5.495  0.8889  1.1098 -1.2198
14155TIP3   OH263955   6.752   0.078  12.998 -0.6215 -0.2290  0.3640
14155TIP3    H163956   6.721   0.168  13.009  0.0136  0.0649 -0.2262
14155TIP3    H263957   6.734   0.036  13.083  0.8835  0.9933  1.3281
14156TIP3   OH263958   1.627   3.926   4.244 -0.3418 -0.2029 -0.1830
14156TIP3    H163959   1.554   3.988   4.239 -0.4722 -0.4384 -3.0990
14156TIP3    H263960   1.584   3.842   4.261 -0.7161 -0.2421 -1.2504
14157TIP3   OH263961   4.689   3.955  13.465 -0.0510  0.3774  0.2473
14157TIP3    H163962   4.620   3.896  13.495  1.3270 -1.7163 -0.5311
14157TIP3    H263963   4.720   3.917  13.384  1.5372  1.6779  0.1936
14158TIP3   OH263964   1.513   6.675   3.629 -0.2079 -0.0098  0.1580
14158TIP3    H163965   1.519   6.771   3.636 -2.0536  0.1733 -0.1927
14158TIP3    H263966   1.554   6.643   3.709  2.0601  0.9582 -0.5228
14159TIP3   OH263967   2.815   0.109  13.047 -0.3718 -0.0640  0.4513
14159TIP3    H163968   2.786   0.020  13.063  0.0867 -0.3042 -0.0177
14159TIP3    H263969   2.737   0.163  13.061 -0.4619 -0.4500  1.5108
14160TIP3   OH263970   1.097   0.785  16.697  0.0346 -0.0146 -0.4910
14160TIP3    H163971   1.082   0.701  16.740 -0.7766 -0.2920 -1.2602
14160TIP3    H263972   1.187   0.781  16.666  0.5475  0.0925  0.9140
14161TIP3   OH263973   3.568   5.623  12.924  0.4015 -0.0655  0.0696
14161TIP3    H163974   3.605   5.557  12.982 -0.1272 -0.1350  0.3373
14161TIP3    H263975   3.474   5.619  12.939  0.3071  0.3346 -0.3529
14162TIP3   OH263976   5.722   0.600  16.847  0.5216 -0.4026  0.2067
14162TIP3    H163977   5.663   0.538  16.888  0.5472 -0.7951 -0.3378
14162TIP3    H263978   5.800   0.601  16.903  1.6948 -2.9793 -1.2352
14163TIP3   OH263979   1.637   5.475   5.054  0.4009 -0.1548 -0.1227
14163TIP3    H163980   1.605   5.529   5.126  0.2882 -0.7588  0.2886
14163TIP3    H263981   1.567   5.412   5.038  1.2536 -1.3524  0.6387
14164TIP3   OH263982   1.471   2.658   2.185 -0.2752  0.3158 -0.3067
14164TIP3    H163983   1.437   2.622   2.103 -0.5011 -0.3666  0.0736
14164TIP3    H263984   1.527   2.589   2.220  0.8359  1.0997 -0.5007
14165TIP3   OH263985   6.351   0.965   5.584 -1.0813  0.4005  0.2729
14165TIP3    H163986   6.331   0.872   5.583  0.2035  0.0601 -2.2162
14165TIP3    H263987   6.277   1.006   5.538 -0.2659  0.2047 -1.2629
14166TIP3   OH263988   6.207   0.061  12.128 -0.4255  0.2370 -0.0026
14166TIP3    H163989   6.132   0.003  12.132  0.8791 -1.7467 -1.8771
14166TIP3    H263990   6.278   0.011  12.169  0.6487  0.5777 -1.3557
14167TIP3   OH263991   1.454   1.773   4.730 -0.1554 -0.1917  0.8310
14167TIP3    H163992   1.396   1.775   4.654  0.5681 -1.8461  0.1869
14167TIP3    H263993   1.522   1.710   4.706  0.0630 -0.7882  2.8621
14168TIP3   OH263994   2.108   0.948  13.013 -0.2412 -0.1311  0.7010
14168TIP3    H163995   2.064   0.991  13.087 -2.5143 -1.9223  0.5094
14168TIP3    H263996   2.041   0.892  12.975  1.5302 -1.0011 -1.3383
14169TIP3   OH263997   6.346   5.339  17.274 -0.1305 -0.2402  0.5192
14169TIP3    H163998   6.313   5.323  17.362  1.4392  0.0343  1.1948
14169TIP3    H263999   6.330   5.258  17.226 -2.2118  0.0592  0.6368
14170TIP3   OH264000   4.413   4.681   0.429 -0.0821 -0.3443  0.2320
14170TIP3    H164001   4.462   4.598   0.419 -0.9942 -0.7950 -0.6915
14170TIP3    H264002   4.328   4.663   0.389 -0.8427  0.5892  1.3796
14171TIP3   OH264003   1.806   3.061   4.045  0.8871  0.2354  0.8046
14171TIP3    H164004   1.785   3.154   4.050 -0.7444 -0.1412  2.2915
14171TIP3    H264005   1.738   3.025   3.987  0.1077 -0.3220  2.0142
14172TIP3   OH264006   3.735   2.565   1.277 -0.6877  0.3505  0.2746
14172TIP3    H164007   3.653   2.613   1.266 -1.1602 -0.3931  0.4051
14172TIP3    H264008   3.708   2.480   1.311  0.2922  0.7438  2.1625
14173TIP3   OH264009   3.944   0.176   0.575 -0.9150  0.2327  0.5345
14173TIP3    H164010   3.902   0.193   0.491 -1.3954 -0.5486  0.6040
14173TIP3    H264011   3.893   0.105   0.613 -0.6629  0.5430  1.4668
14174TIP3   OH264012   2.264   6.481  15.447 -0.1109  0.6539  0.3774
14174TIP3    H164013   2.285   6.434  15.528  0.4403 -0.0706 -0.1687
14174TIP3    H264014   2.335   6.457  15.386 -1.3865 -0.1484 -0.8540
14175TIP3   OH264015   2.713   2.056   0.427  0.0140  0.1690  0.4651
14175TIP3    H164016   2.644   1.991   0.414  0.8321 -0.3913 -1.5265
14175TIP3    H264017   2.673   2.139   0.403 -0.2372 -0.0271  0.1922
14176TIP3   OH264018   0.832   3.817  12.906 -0.8423  0.8924 -0.4395
14176TIP3    H164019   0.895   3.858  12.847 -0.5577  3.4246  1.4431
14176TIP3    H264020   0.752   3.869  12.897 -1.3828  0.1754  0.0556
14177TIP3   OH264021   1.914   5.796  14.840  0.0664 -1.4268  0.5392
14177TIP3    H164022   1.926   5.709  14.879 -0.3588 -0.7936  2.1544
14177TIP3    H264023   1.821   5.814  14.849  0.4134 -0.0756  1.9252
14178TIP3   OH264024   5.549   5.878   1.119  0.1936 -0.7917 -0.3375
14178TIP3    H164025   5.466   5.846   1.156 -0.0799  1.3112  1.0264
14178TIP3    H264026   5.613   5.865   1.188  0.5054 -0.2883 -0.5290
14179TIP3   OH264027   1.854   3.989  11.999  0.4825 -0.1066  0.3578
14179TIP3    H164028   1.864   4.078  11.964  0.1226 -0.8996 -1.9063
14179TIP3    H264029   1.940   3.949  11.984  0.1034 -0.6788 -0.3399
14180TIP3   OH264030   3.448   5.251  11.520 -0.6118  0.3281 -0.1949
14180TIP3    H164031   3.533   5.242  11.562 -0.3681  0.3773 -0.6755
14180TIP3    H264032   3.446   5.183  11.453 -0.3648  1.2328 -1.1429
14181TIP3   OH264033   4.203   4.461   4.821  0.3095  0.3170 -0.2796
14181TIP3    H164034   4.279   4.436   4.769  0.4626  0.3942 -0.0890
14181TIP3    H264035   4.232   4.457   4.912 -0.0038  0.0262 -0.1875
14182TIP3   OH264036   2.300   5.437  13.341  0.2535  0.0183  0.3146
14182TIP3    H164037   2.387   5.409  13.313  0.4304  0.8222  0.0479
14182TIP3    H264038   2.250   5.444  13.260 -0.1216 -0.6296  0.4828
14183TIP3   OH264039   3.106   1.691   5.051  0.1394 -0.2807 -0.2783
14183TIP3    H164040   3.133   1.765   5.105  0.0452 -1.3548  1.3203
14183TIP3    H264041   3.183   1.669   4.999  0.0907  1.0613 -0.9548
14184TIP3   OH264042   3.528   2.402   4.484  0.2202 -0.4359  0.5743
14184TIP3    H164043   3.531   2.385   4.390  1.7873 -3.2333  1.0073
14184TIP3    H264044   3.436   2.392   4.508 -0.2572  0.7065 -0.6774
14185TIP3   OH264045   4.600   0.503   4.006  0.0693  0.1733  0.0228
14185TIP3    H164046   4.665   0.491   4.074  0.1904  0.3227 -0.0662
14185TIP3    H264047   4.517   0.479   4.047  0.2768 -0.7789 -0.0994
14186TIP3   OH264048   1.873   6.303   3.362  0.8025  0.5241  0.7668
14186TIP3    H164049   1.912   6.231   3.312  0.9480 -0.9951  2.9135
14186TIP3    H264050   1.944   6.334   3.418  0.0134  0.3868  1.8803
14187TIP3   OH264051   0.335   5.585  14.171 -0.3792  0.1661  0.2572
14187TIP3    H164052   0.317   5.650  14.103  1.9241  0.9458  0.2961
14187TIP3    H264053   0.295   5.505  14.138  0.9908  0.4142 -2.2725
14188TIP3   OH264054   6.439   5.735  14.387 -0.2400 -0.5176 -0.2352
14188TIP3    H164055   6.354   5.777  14.386 -1.3613 -2.6213 -0.2742
14188TIP3    H264056   6.458   5.721  14.480  1.3994  2.3065 -0.0409
14189TIP3   OH264057   2.800   5.990  12.390  0.1875 -0.3093  0.6669
14189TIP3    H164058   2.775   5.989  12.297 -2.9959 -0.4452  1.4199
14189TIP3    H264059   2.843   6.075  12.402 -1.0425  0.5387 -0.5723
14190TIP3   OH264060   5.248   3.450  12.380 -0.3411  0.2099 -0.2081
14190TIP3    H164061   5.189   3.420  12.450  0.4326  2.4692  1.5390
14190TIP3    H264062   5.326   3.396  12.391 -1.0524 -0.9934 -0.8402
14191TIP3   OH264063   1.099   2.375  13.667 -0.1373 -0.0572  0.1684
14191TIP3    H164064   1.183   2.331  13.657 -1.0396 -1.5781 -1.4121
14191TIP3    H264065   1.113   2.462  13.630  0.9476  0.0202  0.7215
14192TIP3   OH264066   0.906   0.837   2.549 -0.2796 -0.1393 -0.5377
14192TIP3    H164067   0.936   0.917   2.507  1.9868 -1.6342 -1.9862
14192TIP3    H264068   0.939   0.766   2.493  0.5494 -2.1889  2.2796
14193TIP3   OH264069   0.253   6.302   6.042  0.0479 -0.5103 -0.1766
14193TIP3    H164070   0.230   6.392   6.066  3.0713  0.8629 -1.9462
14193TIP3    H264071   0.316   6.275   6.109 -0.9592 -1.4362  0.4346
14194TIP3   OH264072   5.953   5.209  13.470 -0.5624 -0.2537  0.2389
14194TIP3    H164073   5.880   5.224  13.530 -0.4307  1.8946 -0.0581
14194TIP3    H264074   6.028   5.253  13.511 -0.1941  0.2539 -0.9310
14195TIP3   OH264075   5.608   0.437  14.381 -0.1314 -0.0970 -0.0495
14195TIP3    H164076   5.646   0.354  14.351  1.3337 -0.0102  1.4527
14195TIP3    H264077   5.683   0.494  14.395 -1.0915  1.2948 -0.4540
14196TIP3   OH264078   6.450   6.066  13.622 -0.4836  0.9203 -0.1347
14196TIP3    H164079   6.523   6.019  13.581 -0.0673  1.2213  0.2472
14196TIP3    H264080   6.397   5.997  13.662 -0.2794  0.7149 -0.2138
14197TIP3   OH264081   2.734   5.644   3.159 -0.0291  0.2019  0.1733
14197TIP3    H164082   2.772   5.724   3.193  1.0907  0.0844 -0.7478
14197TIP3    H264083   2.783   5.626   3.078 -1.6656 -0.2544 -0.7759
14198TIP3   OH264084   5.012   3.671   4.795  0.7678  0.4073  0.2343
14198TIP3    H164085   5.024   3.581   4.765 -0.0836 -0.0122  1.1114
14198TIP3    H264086   4.922   3.674   4.827  1.4072  1.0105  2.0942
14199TIP3   OH264087   5.286   4.422  15.811  0.4928 -0.1445  0.0526
14199TIP3    H164088   5.291   4.392  15.902 -1.4563  4.1992  1.8609
14199TIP3    H264089   5.372   4.460  15.794  0.1716  1.0543  0.9780
14200TIP3   OH264090   5.055   3.521  16.279 -0.6969  0.0502  0.2970
14200TIP3    H164091   4.979   3.472  16.248 -1.1351  0.6668  0.3860
14200TIP3    H264092   5.020   3.585  16.340  0.0203 -0.3163  1.1071
14201TIP3   OH264093   2.061   1.330  12.370  0.0810 -0.1710 -0.0356
14201TIP3    H164094   2.084   1.274  12.444 -1.0137 -1.4445 -0.6206
14201TIP3    H264095   2.116   1.408  12.381 -0.2272 -0.2055  2.2412
14202TIP3   OH264096   5.448   6.723  16.300  0.3298 -0.3200 -0.0563
14202TIP3    H164097   5.504   6.795  16.328  1.0588  0.2434 -2.7494
14202TIP3    H264098   5.474   6.650  16.357  3.1016  0.2183 -0.4684
14203TIP3   OH264099   5.256   1.157  14.413 -0.0329 -0.0816 -0.8475
14203TIP3    H164100   5.225   1.223  14.475  1.3671 -0.6003  0.4691
14203TIP3    H264101   5.197   1.166  14.338 -1.0118  1.4142  0.0282
14204TIP3   OH264102   1.136   3.325  15.156  0.9301  0.2941  0.3324
14204TIP3    H164103   1.151   3.299  15.065 -0.2196 -1.2014  0.5426
14204TIP3    H264104   1.101   3.414  15.149  0.0384 -0.1175 -0.7572
14205TIP3   OH264105   6.821   6.626   2.625  0.7022 -0.2058  0.5194
14205TIP3    H164106   6.810   6.572   2.704  2.2753  0.2645  1.1141
14205TIP3    H264107   6.827   6.563   2.553  0.7234 -0.7254  0.9725
14206TIP3   OH264108   4.248   2.849  10.774 -0.6470  0.5837 -0.4408
14206TIP3    H164109   4.323   2.798  10.747 -1.4765 -0.5963 -0.5751
14206TIP3    H264110   4.285   2.929  10.812  0.7116 -0.6413  0.8879
14207TIP3   OH264111   2.074   1.295  11.660 -0.1336 -0.0719  0.2021
14207TIP3    H164112   2.107   1.384  11.671  1.1533 -0.5613  0.4824
14207TIP3    H264113   2.069   1.283  11.566  0.0886  0.1467  0.1620
14208TIP3   OH264114   3.599   0.002  14.142 -0.2452  0.4542  0.2041
14208TIP3    H164115   3.540  -0.048  14.199  1.9556 -2.4990  0.1279
14208TIP3    H264116   3.673   0.025  14.198  1.9084 -2.4054 -1.1855
14209TIP3   OH264117   5.787   6.600   4.770  0.7438  0.4635 -0.3740
14209TIP3    H164118   5.869   6.650   4.773  0.2211  1.4459 -1.4261
14209TIP3    H264119   5.719   6.667   4.771 -0.1314 -0.3800  2.0165
14210TIP3   OH264120   6.810   6.042   1.158  0.4938 -0.3233 -0.3196
14210TIP3    H164121   6.868   5.976   1.120  1.0660 -0.7438  1.2152
14210TIP3    H264122   6.737   5.992   1.194  1.1925 -0.2131  1.3336
14211TIP3   OH264123   5.339   3.046  13.801 -0.4189 -0.1324 -0.7081
14211TIP3    H164124   5.326   3.140  13.791 -0.2494 -0.1923 -1.5518
14211TIP3    H264125   5.268   3.007  13.750 -0.5718 -0.4666 -0.2494
14212TIP3   OH264126   4.600   5.912   0.908 -0.4911  0.5428 -0.5261
14212TIP3    H164127   4.507   5.894   0.894 -0.2511 -0.8505 -0.4416
14212TIP3    H264128   4.634   5.932   0.821 -0.8289  0.8730 -0.5852
14213TIP3   OH264129   3.171   1.459  13.253 -0.4801 -0.0683  0.2452
14213TIP3    H164130   3.091   1.465  13.201 -0.3011 -0.8630 -0.1393
14213TIP3    H264131   3.142   1.468  13.343 -0.6011  3.2503  0.0254
14214TIP3   OH264132   1.189   3.104  11.430  0.2059 -0.5036  0.2455
14214TIP3    H164133   1.165   3.012  11.425 -1.7899  0.0051 -0.5637
14214TIP3    H264134   1.142   3.145  11.357 -0.6923  1.4933  1.8494
14215TIP3   OH264135   5.773   2.991  17.134 -0.3429 -0.0205  0.5270
14215TIP3    H164136   5.783   3.085  17.151  2.8958 -0.3687  1.0951
14215TIP3    H264137   5.794   2.981  17.041  2.4712 -0.4487  1.1265
14216TIP3   OH264138   1.950   3.409   3.306  0.1794  0.1964 -0.1712
14216TIP3    H164139   1.958   3.498   3.341  1.4547  0.7599 -1.7495
14216TIP3    H264140   1.855   3.396   3.297 -0.0878  0.8889  1.2299
14217TIP3   OH264141   6.564   4.109   3.654  0.1685  0.1462 -0.0109
14217TIP3    H164142   6.618   4.053   3.710  0.8138  1.1139  0.3641
14217TIP3    H264143   6.476   4.070   3.659  0.6719 -1.0546 -0.0822
14218TIP3   OH264144   3.565   2.637  11.671  0.0537 -0.1368 -0.2974
14218TIP3    H164145   3.472   2.612  11.669 -0.3641  1.3167 -0.2887
14218TIP3    H264146   3.604   2.590  11.598 -1.2928  1.3919 -2.1048
14219TIP3   OH264147   2.349   6.304   3.447 -0.5933  0.3182 -0.0471
14219TIP3    H164148   2.427   6.358   3.431 -0.1061 -0.2380  0.4121
14219TIP3    H264149   2.326   6.269   3.362 -0.9860  1.3341 -0.3786
14220TIP3   OH264150   3.803   0.161   0.335  0.6042  0.0152 -0.1566
14220TIP3    H164151   3.862   0.196   0.268  0.5745  1.4454  0.5295
14220TIP3    H264152   3.760   0.087   0.292  1.9607 -0.2858 -1.0853
14221TIP3   OH264153   4.688   6.605  16.941 -0.1392  0.1937  0.4118
14221TIP3    H164154   4.780   6.582  16.933  0.3087  0.7992  3.0194
14221TIP3    H264155   4.649   6.534  16.993 -0.1036  1.9964  3.1044
14222TIP3   OH264156   3.011   0.144   0.573 -0.6404  0.6632 -0.7977
14222TIP3    H164157   3.021   0.239   0.561  0.9110  0.8232  1.2516
14222TIP3    H264158   3.002   0.133   0.668 -0.0210 -1.3198 -0.9370
14223TIP3   OH264159   3.398   2.674   3.614 -0.0371  0.1154  0.2794
14223TIP3    H164160   3.409   2.705   3.704  0.9831  1.9192 -0.4209
14223TIP3    H264161   3.461   2.725   3.563  0.4896 -1.9427 -1.2566
14224TIP3   OH264162   5.173   1.625  13.022 -0.6042  0.4979 -0.4467
14224TIP3    H164163   5.152   1.601  13.112  0.9528  0.6870  0.0027
14224TIP3    H264164   5.261   1.663  13.028 -0.9441  1.5838 -1.8784
14225TIP3   OH264165   0.907   2.810  12.597 -0.4213 -0.0435 -0.6010
14225TIP3    H164166   0.941   2.724  12.574 -0.0215 -0.5665  1.7203
14225TIP3    H264167   0.982   2.858  12.630 -0.5549  1.3986 -2.2485
14226TIP3   OH264168   6.337   4.894  12.883 -0.5046 -0.0022 -0.2421
14226TIP3    H164169   6.396   4.890  12.958 -0.7437 -1.7272 -0.0903
14226TIP3    H264170   6.292   4.977  12.892  1.5658  1.1771 -0.1207
14227TIP3   OH264171   1.610   5.902  13.628  0.1052 -0.1875  0.0892
14227TIP3    H164172   1.573   5.827  13.581  1.3939  0.0856 -1.4333
14227TIP3    H264173   1.682   5.865  13.679 -0.9339 -0.3844  1.4956
14228TIP3   OH264174   4.631   6.001   2.817  0.5750  0.1188  0.4688
14228TIP3    H164175   4.632   5.997   2.722  1.2544  1.9167  0.3711
14228TIP3    H264176   4.541   5.981   2.842 -0.4528  2.7649 -0.7657
14229TIP3   OH264177   3.840   3.540  16.185 -0.4020 -0.2410  0.6188
14229TIP3    H164178   3.807   3.459  16.224  0.6242  0.1838  2.5035
14229TIP3    H264179   3.761   3.589  16.160 -1.0559 -1.3147  0.5379
14230TIP3   OH264180   5.953   3.147  15.401  0.0122  0.3943 -0.2218
14230TIP3    H164181   5.901   3.191  15.468 -0.1793 -0.1238 -0.0266
14230TIP3    H264182   6.002   3.218  15.359 -0.1498  0.7702  0.2095
14231TIP3   OH264183   6.641   1.588   5.846 -0.2215  0.2358  0.0629
14231TIP3    H164184   6.593   1.661   5.887 -3.2422 -1.9978  0.8794
14231TIP3    H264185   6.588   1.565   5.770  1.0004 -0.7638 -0.5017
14232TIP3   OH264186   0.187   4.610  10.459 -0.6430  0.1015  0.1326
14232TIP3    H164187   0.224   4.544  10.517  0.4487  0.3209 -0.2813
14232TIP3    H264188   0.156   4.561  10.383 -0.1171  0.0231 -0.0352
14233TIP3   OH264189   5.796   1.254   2.682 -0.4482  0.2593 -0.7995
14233TIP3    H164190   5.857   1.245   2.609 -0.8848  0.6610 -1.2205
14233TIP3    H264191   5.851   1.247   2.760  0.1025  0.3761 -1.1708
14234TIP3   OH264192   4.193   5.191  15.020  0.1359  0.2949  0.1251
14234TIP3    H164193   4.206   5.154  15.108  0.5680 -1.1667 -0.5321
14234TIP3    H264194   4.165   5.117  14.966 -1.1804  1.3827 -0.7631
14235TIP3   OH264195   6.681   4.784  14.254 -0.3804 -0.0337  0.3442
14235TIP3    H164196   6.632   4.723  14.198 -0.7804 -0.1258  0.7929
14235TIP3    H264197   6.674   4.747  14.342  1.8721 -0.9415  0.2006
14236TIP3   OH264198   1.063   0.165   3.834 -0.1625  0.6576  0.5545
14236TIP3    H164199   1.126   0.093   3.843  0.4550  0.9215 -1.2660
14236TIP3    H264200   1.086   0.226   3.903  0.5619  0.0098  0.9022
14237TIP3   OH264201   1.390   0.171   3.653  0.1923 -0.4604  0.1106
14237TIP3    H164202   1.334   0.248   3.656  1.7293  0.6963  0.4886
14237TIP3    H264203   1.358   0.114   3.723  0.1524  0.6650  1.0344
14238TIP3   OH264204   6.545   3.680   2.037  0.2876 -0.0233  0.2425
14238TIP3    H164205   6.594   3.681   1.955 -2.8452  1.8104 -1.7967
14238TIP3    H264206   6.604   3.639   2.100  4.0294  1.2746 -2.1327
14239TIP3   OH264207   5.372   1.912  14.526  0.8419  0.0137  0.0373
14239TIP3    H164208   5.420   1.978  14.475  0.4845 -2.3325 -3.7429
14239TIP3    H264209   5.307   1.878  14.465 -0.6620 -2.0775  2.6365
14240TIP3   OH264210   2.970   0.858   4.710 -0.1703 -0.2990 -0.4602
14240TIP3    H164211   2.999   0.909   4.785 -1.9065 -0.6735  0.5160
14240TIP3    H264212   3.023   0.778   4.714  0.8995  0.3792 -0.6276
14241TIP3   OH264213   3.935   5.894  16.608  0.2191 -0.4951 -0.5951
14241TIP3    H164214   4.012   5.945  16.632 -0.3573  0.4709 -0.7570
14241TIP3    H264215   3.910   5.927  16.522 -1.2245  0.2260  0.0696
14242TIP3   OH264216   3.259   6.686   5.057  0.1275 -0.0606  0.6816
14242TIP3    H164217   3.301   6.667   4.973 -0.4319  1.1328  0.1130
14242TIP3    H264218   3.210   6.606   5.078 -1.6016  0.4109 -1.2899
14243TIP3   OH264219   3.506   4.872   5.485 -0.4544  0.2778 -0.0308
14243TIP3    H164220   3.504   4.967   5.472 -2.5330  0.3094  0.3059
14243TIP3    H264221   3.438   4.838   5.427  0.1479 -1.0188 -0.0205
14244TIP3   OH264222   6.594   4.241   2.616 -0.4816  0.3605  0.8277
14244TIP3    H164223   6.603   4.149   2.593  1.2417  0.8170 -0.5969
14244TIP3    H264224   6.644   4.287   2.549 -0.3501  2.2628  2.1517
14245TIP3   OH264225   6.032   1.462   0.894  0.1563  0.1321  0.2067
14245TIP3    H164226   5.994   1.550   0.896  2.3348  1.1545 -0.1405
14245TIP3    H264227   6.015   1.426   0.981 -1.6218  0.4882  0.0295
14246TIP3   OH264228   6.662   0.798   6.224  0.0883  0.2109 -0.5720
14246TIP3    H164229   6.732   0.738   6.197 -0.2629  0.4745 -2.1601
14246TIP3    H264230   6.696   0.885   6.205 -0.5369  0.3595 -1.0135
14247TIP3   OH264231   1.776   5.400   1.467  0.3613 -0.0359  0.5260
14247TIP3    H164232   1.777   5.482   1.418  0.1503 -0.1828  0.2737
14247TIP3    H264233   1.868   5.385   1.491  0.4288  0.1625  0.3893
14248TIP3   OH264234   5.813   2.925  11.778  0.4971 -0.1481 -0.3238
14248TIP3    H164235   5.788   3.014  11.803 -1.2996 -0.3156 -1.4066
14248TIP3    H264236   5.755   2.903  11.706  0.6186 -2.3749  0.1996
14249TIP3   OH264237   1.511   1.095  16.245  0.3180  0.8475 -0.8874
14249TIP3    H164238   1.481   1.186  16.238 -1.1543  0.4872  0.1889
14249TIP3    H264239   1.527   1.068  16.155 -1.9136  1.3293 -1.4894
14250TIP3   OH264240   2.944   0.087  15.257  0.5114  0.4174  0.7167
14250TIP3    H164241   2.853   0.094  15.288 -0.7042  1.4218 -2.6427
14250TIP3    H264242   2.964  -0.007  15.265 -2.0455 -0.4292 -1.3656
14251TIP3   OH264243   0.363   6.449   5.406  0.3045 -0.1037  0.0920
14251TIP3    H164244   0.427   6.521   5.402  1.2347 -0.9792 -2.1787
14251TIP3    H264245   0.297   6.472   5.340  0.3419 -1.0964 -0.2962
14252TIP3   OH264246   1.916   5.261   0.755 -0.2846 -0.0380  0.5345
14252TIP3    H164247   2.002   5.233   0.788 -1.3724  0.1839  3.9657
14252TIP3    H264248   1.909   5.219   0.669  2.3999 -1.7832  1.0270
14253TIP3   OH264249   4.756   3.697  12.821 -0.3429 -0.2915  0.1280
14253TIP3    H164250   4.848   3.719  12.803 -0.4423 -0.7830 -1.1126
14253TIP3    H264251   4.712   3.781  12.830  0.4553 -0.0323  2.1663
14254TIP3   OH264252   3.265   6.804   0.977 -0.3352 -0.4439  0.7910
14254TIP3    H164253   3.213   6.751   0.917 -0.9573 -2.0810  2.6561
14254TIP3    H264254   3.348   6.756   0.986  0.0963  0.2496  0.5965
14255TIP3   OH264255   1.283   1.579  14.359  0.6217  0.0681 -0.3006
14255TIP3    H164256   1.267   1.505  14.301  0.5815 -0.9975  1.0419
14255TIP3    H264257   1.276   1.544  14.447  1.9228  1.3794  0.3786
14256TIP3   OH264258   0.052   0.091  13.854 -0.0537  0.1340 -0.1117
14256TIP3    H164259   0.007   0.160  13.903 -0.5161  0.3570 -0.8478
14256TIP3    H264260   0.094   0.038  13.922  0.6604  1.3751  0.4584
14257TIP3   OH264261   5.336   2.834   5.341 -0.2390 -0.3765 -0.0201
14257TIP3    H164262   5.367   2.924   5.354 -0.5506 -0.4018  0.9785
14257TIP3    H264263   5.262   2.825   5.400  1.0077 -1.9092  1.4290
14258TIP3   OH264264   2.834   5.283  13.666  0.8675  0.3559 -0.5533
14258TIP3    H164265   2.851   5.370  13.704 -1.5443  0.7459 -0.2197
14258TIP3    H264266   2.791   5.301  13.583 -0.7924 -0.4757  0.0812
14259TIP3   OH264267   5.055   1.696  10.876  0.2445  0.2082  0.3399
14259TIP3    H164268   5.069   1.603  10.860 -0.0366  0.0919  0.7337
14259TIP3    H264269   5.011   1.728  10.798  2.0564  0.4471 -0.6468
14260TIP3   OH264270   1.653   2.667  13.322  0.2667 -0.0250 -0.1917
14260TIP3    H164271   1.708   2.744  13.310  0.2844  0.1013  0.6735
14260TIP3    H264272   1.571   2.702  13.357  0.7892 -0.5264  1.6214
14261TIP3   OH264273   1.110   3.545   2.970  0.2732  0.6207 -0.1618
14261TIP3    H164274   1.165   3.618   3.000  0.4631  0.0285  0.9886
14261TIP3    H264275   1.111   3.483   3.042 -0.6830 -0.0961 -0.7384
14262TIP3   OH264276   4.997   4.258   4.008  0.5000  0.3011 -0.1714
14262TIP3    H164277   5.063   4.250   3.939  1.7835  1.3546  0.8801
14262TIP3    H264278   4.924   4.303   3.965  1.8935  2.3779 -0.5200
14263TIP3   OH264279   6.148   3.923  15.452  0.5901  0.0536 -1.1649
14263TIP3    H164280   6.241   3.931  15.475  0.4760 -0.8077 -0.3414
14263TIP3    H264281   6.104   3.982  15.513  0.7919  2.9000 -3.5481
14264TIP3   OH264282   0.548   5.427   3.757  0.5996 -0.4760  0.3697
14264TIP3    H164283   0.570   5.392   3.671  0.3214  1.1150 -0.3735
14264TIP3    H264284   0.470   5.378   3.783 -0.0723 -0.1106 -0.8622
14265TIP3   OH264285   4.034   5.317   3.529  0.0839 -0.2337 -0.6691
14265TIP3    H164286   4.046   5.243   3.589 -1.5712 -0.0301 -0.0292
14265TIP3    H264287   3.987   5.382   3.581  0.8829  1.0019 -1.4461
14266TIP3   OH264288   2.732   1.856   3.943  0.4208  0.4590 -0.0529
14266TIP3    H164289   2.738   1.793   3.871 -0.4753  2.1508 -1.7057
14266TIP3    H264290   2.822   1.884   3.958  0.7508 -0.6881  0.2700
14267TIP3   OH264291   3.406   1.630   5.222  0.3749 -0.5516  0.3349
14267TIP3    H164292   3.397   1.662   5.312  1.0373  1.3725 -0.2369
14267TIP3    H264293   3.444   1.704   5.174 -0.9233 -1.1682 -1.7623
14268TIP3   OH264294   4.706   0.760   6.248  0.0213  0.4321  0.2738
14268TIP3    H164295   4.791   0.788   6.282  0.1896  1.7507 -1.1225
14268TIP3    H264296   4.659   0.729   6.325  1.3138  0.8309  1.2728
14269TIP3   OH264297   3.846   2.134  14.403 -0.4017  0.8073  0.4992
14269TIP3    H164298   3.807   2.097  14.324 -0.0315  3.4597 -1.0301
14269TIP3    H264299   3.918   2.075  14.424  0.4043  0.8036 -2.0077
14270TIP3   OH264300   5.753   3.476   6.693 -0.6816 -0.0251  0.3154
14270TIP3    H164301   5.696   3.415   6.646  0.2792  0.3043 -1.3709
14270TIP3    H264302   5.836   3.473   6.645 -0.2256  1.7088  0.9074
14271TIP3   OH264303   0.976   4.075  13.668  0.2280  0.2765  0.4404
14271TIP3    H164304   0.962   4.146  13.730  0.4890  0.1884  0.6057
14271TIP3    H264305   0.891   4.060  13.628 -0.3715 -0.8081  2.0016
14272TIP3   OH264306   3.691   1.892   0.436 -0.2702 -0.0361  0.0669
14272TIP3    H164307   3.647   1.955   0.379  1.4282  1.5723  0.4029
14272TIP3    H264308   3.768   1.865   0.387  1.5437  1.8236  1.6794
14273TIP3   OH264309   1.747   0.393  12.983  0.3879  0.7005  0.1421
14273TIP3    H164310   1.673   0.402  12.923 -0.5496  1.6658  1.4003
14273TIP3    H264311   1.776   0.483  13.000  0.2487  0.4996  1.5867
14274TIP3   OH264312   1.195   4.549   6.777  0.0423 -0.0421  0.5697
14274TIP3    H164313   1.223   4.487   6.710 -1.9373  0.1106 -0.4781
14274TIP3    H264314   1.233   4.633   6.749 -1.6050  0.2462 -1.0551
14275TIP3   OH264315   5.443   6.107   3.419  0.3287  0.6021  0.0192
14275TIP3    H164316   5.425   6.045   3.490  2.8500  0.6350  0.8074
14275TIP3    H264317   5.436   6.055   3.339 -0.4536  0.0274  0.4521
14276TIP3   OH264318   5.271   1.285   3.901  0.3416 -0.3384  0.0956
14276TIP3    H164319   5.329   1.349   3.943  0.9781 -0.7567 -0.1472
14276TIP3    H264320   5.250   1.222   3.970  1.4686 -1.0819 -0.2295
14277TIP3   OH264321   4.271   2.890   1.773  0.2931  0.3151 -0.0873
14277TIP3    H164322   4.206   2.925   1.712  0.7425  0.8802 -0.2569
14277TIP3    H264323   4.341   2.955   1.772  1.4712 -0.9106 -0.9454
14278TIP3   OH264324   5.107   4.744  15.219  0.0456 -0.1710  0.1364
14278TIP3    H164325   5.115   4.707  15.131 -0.1195 -0.4959  0.2564
14278TIP3    H264326   5.089   4.837  15.204 -0.5506 -0.3329 -0.1860
14279TIP3   OH264327   4.080   0.001   3.388 -0.4106  0.0023  0.1595
14279TIP3    H164328   3.992   0.003   3.426  0.6689  1.0901  2.8706
14279TIP3    H264329   4.121   0.082   3.418  1.7649 -0.8314 -0.3834
14280TIP3   OH264330   3.287   4.723  13.649 -0.0341 -0.1568  0.0292
14280TIP3    H164331   3.239   4.649  13.689 -1.2567  0.5979  0.0161
14280TIP3    H264332   3.247   4.800  13.688 -0.7990  0.6027 -2.1303
14281TIP3   OH264333   2.619   6.109  15.470 -0.2567 -0.1417 -0.0431
14281TIP3    H164334   2.605   6.090  15.563 -1.0700 -0.4813 -0.2258
14281TIP3    H264335   2.589   6.030  15.425 -0.3448  0.2167 -0.6199
14282TIP3   OH264336   0.405   4.884  14.695 -0.2131 -0.5293  0.3000
14282TIP3    H164337   0.349   4.849  14.626 -0.4531 -1.5304  0.9865
14282TIP3    H264338   0.494   4.878  14.658 -0.5129  1.0206 -0.7713
14283TIP3   OH264339   2.747   1.285   3.649 -0.0461  0.3963  0.1538
14283TIP3    H164340   2.752   1.272   3.555  1.7819 -0.8379  0.3820
14283TIP3    H264341   2.670   1.235   3.676 -0.7456  0.9779 -0.6818
14284TIP3   OH264342   3.577   1.008  13.529  0.0042  0.2327 -0.5665
14284TIP3    H164343   3.666   1.012  13.494  1.0765  0.1108  1.9667
14284TIP3    H264344   3.539   1.094  13.509  0.7687  0.3871 -1.4039
14285TIP3   OH264345   2.565   4.415   6.630 -0.3596  0.2479 -0.4722
14285TIP3    H164346   2.576   4.388   6.721 -1.1400  2.3949  0.3162
14285TIP3    H264347   2.489   4.473   6.631 -0.5463  0.1213 -2.5556
14286TIP3   OH264348   1.948   3.313  13.321  0.3904  0.2836  0.1323
14286TIP3    H164349   1.931   3.268  13.238  2.8010  1.5337 -1.1306
14286TIP3    H264350   2.027   3.271  13.356 -0.7827 -0.4759  2.0773
14287TIP3   OH264351   5.527   5.608   1.496  0.1591 -0.2961 -0.4798
14287TIP3    H164352   5.482   5.684   1.459  0.2554 -1.1364 -2.3925
14287TIP3    H264353   5.619   5.634   1.499  0.0828 -0.0373 -0.3186
14288TIP3   OH264354   5.310   4.090  14.807  0.6017  0.0384 -0.2339
14288TIP3    H164355   5.354   4.010  14.775 -0.1419 -0.9267  1.0591
14288TIP3    H264356   5.380   4.141  14.847  0.8252 -0.7963  0.4873
14289TIP3   OH264357   6.087   3.861   3.293 -0.0651  0.0180 -0.0724
14289TIP3    H164358   6.131   3.938   3.331 -1.1199  0.7112 -0.2317
14289TIP3    H264359   6.096   3.872   3.199 -0.0376 -0.1656 -0.0915
14290TIP3   OH264360   1.266   1.766  12.431 -0.3786 -0.2148  0.2218
14290TIP3    H164361   1.320   1.737  12.504 -0.1759  0.5111  0.3743
14290TIP3    H264362   1.318   1.834  12.389 -1.0183  0.2444  0.1540
14291TIP3   OH264363   1.105   3.892  15.546  0.0416  0.1919 -0.3588
14291TIP3    H164364   1.182   3.863  15.496  0.1478 -1.7948  0.8340
14291TIP3    H264365   1.040   3.824  15.530  0.5758 -1.3970  3.2725
14292TIP3   OH264366   0.698   6.121  17.188  0.1969  0.0173  0.8080
14292TIP3    H164367   0.754   6.044  17.186 -0.0526 -0.2077  1.7685
14292TIP3    H264368   0.753   6.190  17.225  0.5368  0.4223 -0.3952
14293TIP3   OH264369   3.368   2.217  12.207 -0.1431 -0.0902 -0.1060
14293TIP3    H164370   3.353   2.172  12.124 -3.8130 -0.3838  0.5621
14293TIP3    H264371   3.386   2.147  12.270 -0.6199 -0.1833 -0.0676
14294TIP3   OH264372   5.044   4.012   4.137 -0.9271  0.3777 -0.0393
14294TIP3    H164373   5.039   4.108   4.133 -2.2954  0.2910 -1.0196
14294TIP3    H264374   5.019   3.983   4.049  2.5732 -0.8406 -0.8279
14295TIP3   OH264375   2.070   4.015  15.341 -0.1222 -0.6947  0.0626
14295TIP3    H164376   1.994   4.039  15.395  0.4654 -1.8157  1.4370
14295TIP3    H264377   2.040   3.940  15.289 -0.3984 -0.1919 -0.5253
14296TIP3   OH264378   2.965   5.190   4.154  0.7755  0.4635 -0.5950
14296TIP3    H164379   2.895   5.188   4.219  0.2712  0.8580 -1.1181
14296TIP3    H264380   3.007   5.104   4.162 -0.6780 -0.3484 -1.2466
14297TIP3   OH264381   6.713   5.044  12.304 -0.3237 -0.4620 -0.0913
14297TIP3    H164382   6.786   5.006  12.354 -0.1983  0.3009  0.3200
14297TIP3    H264383   6.648   5.067  12.371  0.4275  1.8851 -0.0767
14298TIP3   OH264384   3.793   1.969  15.199 -0.5831  0.0607  0.0274
14298TIP3    H164385   3.708   1.959  15.156 -0.9658 -0.9925  0.9751
14298TIP3    H264386   3.796   1.897  15.263  0.0809  1.3886  1.5451
14299TIP3   OH264387   6.584   4.589   3.977 -0.2835 -0.1444 -0.9106
14299TIP3    H164388   6.540   4.583   4.062 -1.7737  0.6080 -1.5799
14299TIP3    H264389   6.675   4.609   3.998 -0.1786 -1.9006  0.5440
14300TIP3   OH264390   3.592   1.790   2.423  0.2383  0.1119 -0.4676
14300TIP3    H164391   3.633   1.823   2.343  0.9172  0.3953 -0.0102
14300TIP3    H264392   3.602   1.861   2.486 -1.3914  0.3897 -0.4560
14301TIP3   OH264393   2.531   2.899   2.840 -0.2830 -0.1248  0.0939
14301TIP3    H164394   2.571   2.843   2.906 -0.0303 -0.2233 -0.1413
14301TIP3    H264395   2.520   2.984   2.883  1.7062  0.4008 -0.3348
14302TIP3   OH264396   3.489   0.450  16.237  0.2895 -0.4657  0.3918
14302TIP3    H164397   3.528   0.485  16.317  1.1239  1.2771 -0.7089
14302TIP3    H264398   3.402   0.489  16.233 -0.3093 -1.6699  1.1261
14303TIP3   OH264399   0.896   5.993   0.490  0.3227 -0.5523  0.1873
14303TIP3    H164400   0.940   5.919   0.531  0.4308  0.6091  2.3051
14303TIP3    H264401   0.811   5.997   0.532  0.2813  0.4473  0.0406
14304TIP3   OH264402   0.323   0.540   4.731  0.5054 -0.0104  0.0866
14304TIP3    H164403   0.294   0.625   4.766 -0.0879 -0.8687  1.7898
14304TIP3    H264404   0.274   0.475   4.782 -0.8421 -1.3881 -2.7713
14305TIP3   OH264405   2.256   3.888  12.555  0.3893 -0.5201 -0.1510
14305TIP3    H164406   2.349   3.902  12.538  0.4664 -1.1829 -0.2834
14305TIP3    H264407   2.252   3.801  12.594  0.0809  0.3839  1.9973
14306TIP3   OH264408   0.437   5.431   2.293  0.3162  0.1106 -0.0809
14306TIP3    H164409   0.344   5.444   2.308  0.5385  1.2622  0.3733
14306TIP3    H264410   0.466   5.377   2.367  0.2068  0.6395  0.3554
14307TIP3   OH264411   6.802   4.997   5.181 -0.2579 -0.1151 -0.8626
14307TIP3    H164412   6.722   5.046   5.201  0.8449  1.5211 -0.3313
14307TIP3    H264413   6.861   5.015   5.254 -0.0820 -3.0067 -0.1520
14308TIP3   OH264414   3.576   1.603  15.802 -0.5463  0.6736 -0.0375
14308TIP3    H164415   3.490   1.570  15.777 -0.2628 -1.7734  1.7959
14308TIP3    H264416   3.590   1.566  15.890  2.7176  0.2758 -0.6239
14309TIP3   OH264417   2.833   4.825  11.537  0.9003  0.1955 -0.2172
14309TIP3    H164418   2.903   4.777  11.582  0.6541 -1.2606 -1.2994
14309TIP3    H264419   2.761   4.762  11.531  0.4145  0.8311 -1.3507
14310TIP3   OH264420   1.388   4.329  10.956 -0.4304  0.4315 -0.3859
14310TIP3    H164421   1.450   4.276  10.906 -1.3017  1.6277 -2.8997
14310TIP3    H264422   1.442   4.391  11.004  0.4567 -0.9602  0.4985
14311TIP3   OH264423   4.574   0.418  15.451  0.1713 -0.1492 -0.1561
14311TIP3    H164424   4.497   0.470  15.474  0.2256  1.0889 -2.4410
14311TIP3    H264425   4.544   0.361  15.381  1.6519  1.7274 -2.5005
14312TIP3   OH264426   6.259   4.973   5.944  0.4818  0.5934 -0.1868
14312TIP3    H164427   6.271   4.886   5.981  1.2092  0.0989 -1.5033
14312TIP3    H264428   6.323   5.028   5.989  0.2174  0.3775  0.4490
14313TIP3   OH264429   3.811   5.666  13.625 -0.1526  0.1628  0.2607
14313TIP3    H164430   3.862   5.660  13.706 -0.4030 -1.8802  0.2996
14313TIP3    H264431   3.732   5.714  13.650 -0.0892 -0.1834  1.1538
14314TIP3   OH264432   6.525   3.382   3.218 -0.8927  0.6671  0.3859
14314TIP3    H164433   6.620   3.382   3.219 -0.8772  0.3504 -0.3967
14314TIP3    H264434   6.500   3.326   3.292 -0.4830  0.9441  0.7394
14315TIP3   OH264435   2.997   4.042   3.084 -0.0595 -0.3780 -0.1530
14315TIP3    H164436   3.027   3.951   3.078 -2.2430 -1.1345 -0.9291
14315TIP3    H264437   2.913   4.036   3.130 -1.5298  0.8280 -2.4542
14316TIP3   OH264438   1.839   6.770   3.381  0.0793 -0.1456 -0.1353
14316TIP3    H164439   1.889   6.701   3.425  0.6892  0.3264 -0.0706
14316TIP3    H264440   1.878   6.851   3.413  0.0941  0.2111 -1.0387
14317TIP3   OH264441   5.123   1.110   3.247 -0.1070  0.1796  0.3464
14317TIP3    H164442   5.122   1.183   3.309  0.6348  0.2373  0.2993
14317TIP3    H264443   5.195   1.054   3.277  0.2032  0.1629 -0.4068
14318TIP3   OH264444   5.043   3.318  11.744  0.7136 -0.0128 -0.1612
14318TIP3    H164445   4.987   3.371  11.801  0.1795 -2.6696  2.0443
14318TIP3    H264446   5.121   3.372  11.730 -0.6312  2.1329  0.1663
14319TIP3   OH264447   2.694   1.434  11.578  0.2228  0.1940  0.3588
14319TIP3    H164448   2.707   1.488  11.655 -0.4672 -0.0954  0.6829
14319TIP3    H264449   2.602   1.410  11.580  0.1137  0.4721 -0.7463
14320TIP3   OH264450   0.264   1.180   1.356  0.2307  0.0319 -0.0511
14320TIP3    H164451   0.295   1.211   1.271  1.4258  0.5376  0.5493
14320TIP3    H264452   0.268   1.084   1.349 -0.2835  0.0527 -0.7676
14321TIP3   OH264453   1.449   2.107   3.625 -0.1397 -0.0546  0.0886
14321TIP3    H164454   1.508   2.146   3.561  1.2878 -0.6559  0.9819
14321TIP3    H264455   1.368   2.156   3.616  0.7618  1.3848 -0.6063
14322TIP3   OH264456   0.739   2.017  16.703 -0.0379  0.4055 -0.4047
14322TIP3    H164457   0.779   2.029  16.616 -0.3395 -0.0435 -0.6036
14322TIP3    H264458   0.757   2.100  16.748 -1.1952  1.2678 -1.4239
14323TIP3   OH264459   4.408   6.134  10.853  0.1204  0.1190  0.5929
14323TIP3    H164460   4.368   6.117  10.938  0.8600  1.6353  1.2665
14323TIP3    H264461   4.346   6.192  10.808 -0.7717 -1.4865 -0.3632
14324TIP3   OH264462   3.584   3.853   0.824  0.1154  0.7032  0.1243
14324TIP3    H164463   3.668   3.885   0.857  0.3264  0.4219 -0.1259
14324TIP3    H264464   3.596   3.758   0.818 -0.5113  0.5697  0.8975
14325TIP3   OH264465   5.462   3.153  11.267 -0.0930  0.4685  0.5900
14325TIP3    H164466   5.383   3.103  11.251  1.2071 -1.6332  0.3572
14325TIP3    H264467   5.478   3.200  11.185  0.4850 -1.5023 -0.5084
14326TIP3   OH264468   4.605   4.761   3.339  0.5017 -0.5837  0.1063
14326TIP3    H164469   4.519   4.777   3.301  0.3426 -2.9159 -0.6785
14326TIP3    H264470   4.589   4.754   3.433  0.0876  0.3119  0.1172
14327TIP3   OH264471   6.507   3.878  13.948  0.2098  0.2332  0.0911
14327TIP3    H164472   6.493   3.838  13.862 -2.6700 -1.8438  1.3807
14327TIP3    H264473   6.553   3.811  13.998 -0.6886  0.2574  0.9765
14328TIP3   OH264474   6.187   3.512   4.405  0.6098 -0.0167  0.6863
14328TIP3    H164475   6.095   3.534   4.418  0.1293 -1.4000 -0.1006
14328TIP3    H264476   6.206   3.448   4.474  0.3980 -1.1702 -0.2766
14329TIP3   OH264477   5.445   3.932   3.006 -0.1887 -0.1343  0.3254
14329TIP3    H164478   5.497   3.901   2.932 -0.7939  0.4324 -0.3504
14329TIP3    H264479   5.365   3.966   2.967 -0.2245  0.8118  1.1671
14330TIP3   OH264480   2.124   5.117   5.803 -0.0945 -0.0396 -0.0986
14330TIP3    H164481   2.146   5.158   5.719 -1.6062 -0.3534 -0.6832
14330TIP3    H264482   2.101   5.027   5.781  0.8876 -0.5452  0.8646
14331TIP3   OH264483   3.688   4.605  16.744  0.0765 -0.5444 -0.4350
14331TIP3    H164484   3.731   4.658  16.812 -1.8689  0.1444  0.3203
14331TIP3    H264485   3.709   4.514  16.767 -1.2654 -0.3791  1.6524
14332TIP3   OH264486   3.593   5.329   3.138 -0.7818 -0.5185 -0.0070
14332TIP3    H164487   3.505   5.357   3.113 -0.6655 -0.7410 -0.6877
14332TIP3    H264488   3.620   5.269   3.069 -1.1543 -2.6090  1.5617
14333TIP3   OH264489   2.344   5.614   3.437 -0.3316 -0.1438  0.4212
14333TIP3    H164490   2.364   5.595   3.345 -2.1122 -0.4215  0.0377
14333TIP3    H264491   2.318   5.706   3.438 -0.2217 -0.1147  0.6623
14334TIP3   OH264492   5.313   3.307   0.309  0.0436 -0.1412  0.2668
14334TIP3    H164493   5.288   3.324   0.400 -1.3046 -0.5934  0.0054
14334TIP3    H264494   5.352   3.220   0.311  0.2339 -0.0555  0.4369
14335TIP3   OH264495   5.003   6.280  12.391 -0.4044 -0.3043  0.1109
14335TIP3    H164496   5.011   6.331  12.472 -2.3363 -1.5511  1.1593
14335TIP3    H264497   5.084   6.229  12.387 -0.1664 -0.0378  1.1287
14336TIP3   OH264498   3.525   2.128   3.846  0.1614  0.6776  0.2191
14336TIP3    H164499   3.476   2.132   3.764  0.9815 -0.0673 -0.3187
14336TIP3    H264500   3.534   2.220   3.873 -1.3667  0.8478  0.2489
14337TIP3   OH264501   3.099   6.069  13.279 -0.3549 -0.3122 -0.2021
14337TIP3    H164502   3.019   6.044  13.326 -0.7597 -1.2067 -1.3111
14337TIP3    H264503   3.075   6.149  13.233 -0.3847 -0.1896  0.0236
14338TIP3   OH264504   6.493   4.192   2.224 -0.0424 -0.0718  0.1037
14338TIP3    H164505   6.525   4.277   2.195  0.0265 -0.1836 -0.1518
14338TIP3    H264506   6.563   4.131   2.201 -0.5492 -0.3621 -0.6966
14339TIP3   OH264507   2.932   5.697  10.962  0.2655  0.3413  0.1895
14339TIP3    H164508   2.935   5.690  10.867  0.1097  2.8944 -0.0684
14339TIP3    H264509   3.017   5.663  10.991  1.0476  1.1363 -1.0359
14340TIP3   OH264510   5.980   5.739   4.349  0.4576  0.1577  0.1934
14340TIP3    H164511   5.979   5.738   4.253 -2.5451 -0.9210  0.1312
14340TIP3    H264512   6.041   5.810   4.371  1.4656  0.2439 -2.4752
14341TIP3   OH264513   1.073   1.491   4.812  0.3361 -0.0815  0.1350
14341TIP3    H164514   1.105   1.494   4.902 -1.2687  0.0329  0.7446
14341TIP3    H264515   1.066   1.398   4.791  1.1078 -0.1058 -0.0346
14342TIP3   OH264516   0.788   4.081   0.716 -0.2682  0.1292  0.0874
14342TIP3    H164517   0.727   4.008   0.727  0.6748 -0.4789  1.6729
14342TIP3    H264518   0.731   4.158   0.705 -1.4872 -0.0981  3.4761
14343TIP3   OH264519   6.617   5.060  14.230  0.3039 -0.0638  0.2691
14343TIP3    H164520   6.614   4.964  14.236  2.0190 -0.1575  0.0132
14343TIP3    H264521   6.656   5.088  14.313  1.2577  0.2881 -0.2805
14344TIP3   OH264522   3.991   6.602   4.241 -0.1144 -0.0608  0.1780
14344TIP3    H164523   4.003   6.646   4.325  0.3016  2.8673 -1.2728
14344TIP3    H264524   4.079   6.594   4.205 -0.3069 -1.1158 -0.1056
14345TIP3   OH264525   3.314   1.371   0.929 -0.2843 -0.1813 -0.3434
14345TIP3    H164526   3.326   1.277   0.937 -0.9300 -0.1627  1.4787
14345TIP3    H264527   3.263   1.383   0.849  0.4102 -1.3070 -0.9691
14346TIP3   OH264528   2.022   4.099  12.770 -0.1738 -0.5662  0.0753
14346TIP3    H164529   2.041   4.060  12.855  0.2006 -0.3641  0.0870
14346TIP3    H264530   1.939   4.060  12.743  0.7033 -2.2020 -0.4077
14347TIP3   OH264531   0.583   0.487  16.388 -0.9180  0.0907  0.0955
14347TIP3    H164532   0.642   0.435  16.334 -1.4801  1.2554 -1.7511
14347TIP3    H264533   0.640   0.538  16.445 -0.0274  1.6755 -2.0922
14348TIP3   OH264534   2.576   6.256   4.099  0.0907 -0.5731  0.0040
14348TIP3    H164535   2.481   6.264   4.097  0.1406 -0.0387 -0.8092
14348TIP3    H264536   2.593   6.188   4.164 -0.6841  1.7559  2.8219
14349TIP3   OH264537   2.838   2.879  12.054 -0.0031  0.1249 -0.2686
14349TIP3    H164538   2.795   2.959  12.023  0.0230 -0.3155 -1.4901
14349TIP3    H264539   2.767   2.827  12.092 -0.4109 -0.1946 -1.4328
14350TIP3   OH264540   0.406   1.334  15.372  0.2927  0.3781 -0.0759
14350TIP3    H164541   0.359   1.393  15.432 -1.6617 -1.6626  0.5619
14350TIP3    H264542   0.349   1.328  15.296  0.7583 -0.2157 -0.3814
14351TIP3   OH264543   0.140   3.111  15.293  0.3469  0.3307 -0.0222
14351TIP3    H164544   0.139   3.018  15.318 -1.8228  0.7381  1.7278
14351TIP3    H264545   0.221   3.145  15.332  0.1866 -0.4343  1.0264
14352TIP3   OH264546   5.539   0.811   4.772 -0.3032 -0.0245 -0.4073
14352TIP3    H164547   5.607   0.784   4.710  1.3802 -0.3795  1.4866
14352TIP3    H264548   5.580   0.882   4.822 -1.5816  0.1884  0.3621
14353TIP3   OH264549   5.336   3.894   5.869 -0.2510 -0.3179 -0.0639
14353TIP3    H164550   5.249   3.905   5.831 -0.5872  2.6507  1.2509
14353TIP3    H264551   5.323   3.909   5.963  1.5597 -0.6366  0.2826
14354TIP3   OH264552   0.221   1.905  11.239  0.6415  0.0968  0.6612
14354TIP3    H164553   0.139   1.945  11.210 -0.0258 -1.8360 -0.2972
14354TIP3    H264554   0.213   1.902  11.334  0.3607  1.4433  0.7011
14355TIP3   OH264555   0.837   4.924  12.408  0.1598 -0.2553  0.2247
14355TIP3    H164556   0.860   5.017  12.411  0.2795 -0.2836  0.1782
14355TIP3    H264557   0.794   4.914  12.323  0.9703 -0.4345 -0.1728
14356TIP3   OH264558   6.233   6.475   0.925  0.1622  0.3626  0.2527
14356TIP3    H164559   6.286   6.410   0.878  0.3115  0.6107  0.0791
14356TIP3    H264560   6.156   6.486   0.870  0.1191  0.3042  0.3014
14357TIP3   OH264561   6.101   6.400   1.818 -0.4031 -0.0973 -0.6640
14357TIP3    H164562   6.077   6.367   1.904  1.8388  0.6523  0.3048
14357TIP3    H264563   6.172   6.343   1.789  1.2949  1.7873 -0.3882
14358TIP3   OH264564   2.987   4.553   4.075  0.2325 -0.4490 -0.2025
14358TIP3    H164565   2.958   4.571   4.164  0.3798 -0.0778 -0.2281
14358TIP3    H264566   3.081   4.536   4.083  0.3843  0.2917 -0.3812
14359TIP3   OH264567   3.865   1.970   3.985 -0.7162 -0.2198  0.4226
14359TIP3    H164568   3.838   1.883   4.015 -4.2611 -0.2364 -2.2027
14359TIP3    H264569   3.823   2.031   4.045  2.5746 -0.0680  2.8904
14360TIP3   OH264570   1.026   1.831   4.033  0.0909  0.5090  0.8505
14360TIP3    H164571   0.952   1.883   4.064 -0.2057  2.0780 -2.0410
14360TIP3    H264572   1.087   1.897   3.998  0.9735 -0.9519 -0.4780
14361TIP3   OH264573   2.079   3.355   5.574  0.6100 -0.3563  0.6725
14361TIP3    H164574   2.136   3.305   5.515 -1.3165 -0.7273 -0.9750
14361TIP3    H264575   2.139   3.393   5.638  2.4895 -2.2317  0.1452
14362TIP3   OH264576   4.985   5.974   5.952  0.2464 -0.1551 -0.4862
14362TIP3    H164577   5.051   5.976   6.022  1.7084 -0.1020 -1.7931
14362TIP3    H264578   5.013   5.902   5.896 -1.4509 -0.8069 -0.5362
14363TIP3   OH264579   3.041   1.796  13.472 -0.1690  0.1789  0.1614
14363TIP3    H164580   3.120   1.749  13.445  0.8369  2.4484 -1.1339
14363TIP3    H264581   2.970   1.752  13.426  0.8113  0.2649 -1.5020
14364TIP3   OH264582   5.841   2.264   3.857 -0.3518 -0.3583  0.1673
14364TIP3    H164583   5.898   2.330   3.897 -0.9246 -0.7545  1.7073
14364TIP3    H264584   5.871   2.181   3.894 -0.3574 -0.8524 -0.8973
14365TIP3   OH264585   5.770   0.960   0.613  0.3544  0.5947 -0.1731
14365TIP3    H164586   5.818   1.013   0.550 -0.2498  1.4700  0.0694
14365TIP3    H264587   5.769   1.014   0.693  0.8739 -0.3683  0.5021
14366TIP3   OH264588   2.456   0.498   0.559  0.5427  0.0659  0.6067
14366TIP3    H164589   2.480   0.486   0.467  3.3475  2.0155  0.9637
14366TIP3    H264590   2.468   0.412   0.598  0.8039 -0.4565 -0.5731
14367TIP3   OH264591   3.861   0.749  14.868  0.0897  0.1555 -0.2997
14367TIP3    H164592   3.914   0.824  14.896  1.5120 -1.2047  0.7835
14367TIP3    H264593   3.782   0.754  14.921 -0.3585  1.4824 -1.0282
14368TIP3   OH264594   4.204   5.108  14.139 -0.1615 -0.0769 -0.4076
14368TIP3    H164595   4.237   5.064  14.218 -2.4494 -1.0789  0.0797
14368TIP3    H264596   4.165   5.189  14.172 -1.3426 -0.6159 -0.4484
14369TIP3   OH264597   1.147   2.925  12.712 -0.0241  0.2923 -0.6504
14369TIP3    H164598   1.208   2.895  12.645  0.8644 -0.0467  0.3036
14369TIP3    H264599   1.194   2.918  12.794 -0.5299  2.2297 -0.1254
14370TIP3   OH264600   4.595   0.336  16.918 -0.1010  0.2806  0.2196
14370TIP3    H164601   4.672   0.392  16.910 -0.3732  0.8053  0.9949
14370TIP3    H264602   4.567   0.319  16.828 -0.0417  1.4576 -0.0379
14371TIP3   OH264603   2.337   1.814   2.351  0.1256  0.2804 -0.0269
14371TIP3    H164604   2.289   1.736   2.323 -1.1440  1.1156 -0.2494
14371TIP3    H264605   2.363   1.795   2.441 -0.9974 -0.0282  0.2389
14372TIP3   OH264606   0.252   6.119   0.946  0.4471  0.3762 -0.0229
14372TIP3    H164607   0.222   6.043   0.896  0.3976  0.4259 -0.0706
14372TIP3    H264608   0.262   6.188   0.880  0.5935  0.3810  0.0047
14373TIP3   OH264609   4.905   6.710  12.969  0.1396 -0.2331 -0.1097
14373TIP3    H164610   4.896   6.736  13.060 -2.1083 -0.0454 -0.3408
14373TIP3    H264611   4.832   6.651  12.953 -0.2143  0.6537 -2.0758
14374TIP3   OH264612   3.506   0.149   2.279  0.2940 -0.0328  0.0852
14374TIP3    H164613   3.499   0.237   2.315  0.8421  0.4244 -0.8895
14374TIP3    H264614   3.474   0.091   2.349 -0.1813  0.9406  0.6857
14375TIP3   OH264615   6.663   0.831   2.119  0.6974  0.0446  0.3102
14375TIP3    H164616   6.689   0.854   2.209  1.6579 -0.8116  0.2702
14375TIP3    H264617   6.746   0.813   2.074  0.1697 -0.4489 -0.4892
14376TIP3   OH264618   2.680   6.455   2.982  0.0758  0.2747 -0.3707
14376TIP3    H164619   2.597   6.446   2.935  0.5459  0.2135 -1.2179
14376TIP3    H264620   2.662   6.423   3.070 -1.3147  2.0679  0.0589
14377TIP3   OH264621   3.331   3.083   6.348 -1.1399 -0.1801 -0.9032
14377TIP3    H164622   3.295   2.994   6.346 -1.5170 -0.0267 -1.9864
14377TIP3    H264623   3.332   3.110   6.256 -0.2487  0.6324 -0.6730
14378TIP3   OH264624   1.627   2.391   6.598 -0.3865  0.4079  0.8627
14378TIP3    H164625   1.668   2.325   6.655  0.8660 -0.6899 -1.1512
14378TIP3    H264626   1.690   2.464   6.598  0.7850 -0.5273 -0.7938
14379TIP3   OH264627   3.213   0.520  12.365  0.3493 -0.1217 -0.3388
14379TIP3    H164628   3.221   0.462  12.440  0.0316 -1.6675 -1.4599
14379TIP3    H264629   3.172   0.599  12.401  1.0541 -0.4321  1.2720
14380TIP3   OH264630   3.291   5.141  11.046  0.0842  0.6360  0.5688
14380TIP3    H164631   3.312   5.213  11.105 -1.5664 -0.3027  2.4307
14380TIP3    H264632   3.344   5.068  11.077  0.1441  0.4599  0.0644
14381TIP3   OH264633   4.238   2.965   5.645 -0.6939  0.3109  0.0584
14381TIP3    H164634   4.218   3.059   5.649  2.5680  1.1100  3.1788
14381TIP3    H264635   4.266   2.943   5.734  1.3589 -2.9140 -1.2065
14382TIP3   OH264636   5.052   2.593   1.773  0.0566  0.0637  0.3127
14382TIP3    H164637   4.963   2.627   1.785  0.6445  1.3092  1.4385
14382TIP3    H264638   5.090   2.651   1.707  0.2895  0.0503  0.4365
14383TIP3   OH264639   6.809   1.194   3.642  0.2897 -0.6481 -0.1725
14383TIP3    H164640   6.754   1.271   3.639  1.9024  0.5156 -1.7030
14383TIP3    H264641   6.795   1.150   3.558  1.6827 -0.3032 -0.6105
14384TIP3   OH264642   0.166   3.996   4.351 -0.7399 -0.1070  0.3994
14384TIP3    H164643   0.137   3.963   4.266  0.7332 -0.8592  0.1577
14384TIP3    H264644   0.101   3.962   4.413 -1.1988 -0.5099 -0.2903
14385TIP3   OH264645   1.335   6.632   0.500  0.1195  0.0756 -0.2556
14385TIP3    H164646   1.419   6.593   0.477 -0.1011 -0.2812 -0.4614
14385TIP3    H264647   1.320   6.698   0.432 -0.2692 -0.5946 -0.8300
14386TIP3   OH264648   3.884   2.264   5.058  0.3958 -0.5083  0.4150
14386TIP3    H164649   3.977   2.245   5.044 -0.0481 -2.4263 -0.1924
14386TIP3    H264650   3.875   2.356   5.030  1.7271 -0.8726 -1.4751
14387TIP3   OH264651   3.708   0.550  16.938 -0.1201 -0.1722  0.4650
14387TIP3    H164652   3.648   0.620  16.963 -0.0088  0.3821 -0.7285
14387TIP3    H264653   3.704   0.548  16.842  0.7729 -1.0053  0.4287
14388TIP3   OH264654   2.071   4.533  16.614  0.4029  0.2917 -0.3877
14388TIP3    H164655   2.043   4.476  16.686  2.2554  0.4029  0.4833
14388TIP3    H264656   2.139   4.588  16.652  1.4022  0.3961 -2.2159
14389TIP3   OH264657   5.378   0.722   4.316 -0.0048  0.2862  0.5304
14389TIP3    H164658   5.375   0.801   4.370  1.6634  0.9512 -0.2844
14389TIP3    H264659   5.459   0.730   4.266 -0.3109 -1.4644 -0.3221
14390TIP3   OH264660   4.681   4.644   0.275  0.6416 -0.2023 -0.5767
14390TIP3    H164661   4.620   4.578   0.242 -1.5525  0.6679  1.4368
14390TIP3    H264662   4.718   4.605   0.355  1.5626 -0.1085 -0.9477
14391TIP3   OH264663   4.186   2.237  11.190 -0.3041 -0.0856  0.6474
14391TIP3    H164664   4.261   2.219  11.247  0.4247  2.3671  0.5677
14391TIP3    H264665   4.202   2.183  11.113  0.1481 -1.3431  1.5761
14392TIP3   OH264666   3.038   0.001  14.422 -0.0574  0.0108  0.4140
14392TIP3    H164667   3.033  -0.094  14.432  2.0832 -0.2323 -0.3116
14392TIP3    H264668   3.044   0.034  14.511  0.0512 -0.6144  0.6439
14393TIP3   OH264669   2.801   3.429   1.497  0.4400 -0.2267 -0.0219
14393TIP3    H164670   2.808   3.462   1.587  0.0058  0.9128 -0.3840
14393TIP3    H264671   2.858   3.486   1.446  1.8375 -1.7857 -0.2746
14394TIP3   OH264672   0.251   0.658  11.026 -0.6160 -0.0098  0.1090
14394TIP3    H164673   0.216   0.711  10.955 -0.3627  0.2092  0.1450
14394TIP3    H264674   0.274   0.574  10.985 -1.0491 -0.1029  0.0579
14395TIP3   OH264675   6.547   5.994   5.057  0.4295  0.5455  0.0327
14395TIP3    H164676   6.594   5.911   5.042  0.9316  0.9617 -0.7653
14395TIP3    H264677   6.544   6.003   5.152 -1.2946 -1.3264  0.2166
14396TIP3   OH264678   1.114   3.402   1.928 -0.1482  0.0644 -0.2957
14396TIP3    H164679   1.078   3.487   1.956  1.4781  1.7577 -2.8779
14396TIP3    H264680   1.055   3.374   1.858  0.2010 -0.1193 -0.5181
14397TIP3   OH264681   0.638   0.354   5.639 -0.1262  0.4888 -0.7389
14397TIP3    H164682   0.670   0.406   5.712  0.0113  0.5135 -0.8161
14397TIP3    H264683   0.544   0.371   5.637 -0.5640 -1.3869  0.9364
14398TIP3   OH264684   5.656   2.302   0.303  0.1339 -0.2916  0.1652
14398TIP3    H164685   5.734   2.277   0.254 -0.3564 -0.9643 -0.2839
14398TIP3    H264686   5.594   2.332   0.237 -0.0929 -0.0317  0.4913
14399TIP3   OH264687   3.482   4.197  10.667  0.1543  0.2714 -0.0016
14399TIP3    H164688   3.569   4.237  10.673  0.1234  0.1523  1.5627
14399TIP3    H264689   3.499   4.105  10.647  0.4992 -0.0789  1.7148
14400TIP3   OH264690   5.290   0.774  14.994  0.6035  0.6070 -0.2347
14400TIP3    H164691   5.355   0.786  14.925 -0.0856  0.5555 -0.8949
14400TIP3    H264692   5.325   0.702  15.047  0.2631 -0.6066 -1.5954
14401TIP3   OH264693   3.797   6.811  17.078  0.3654  0.5723  0.3176
14401TIP3    H164694   3.760   6.726  17.053 -1.7409  1.0394  1.5526
14401TIP3    H264695   3.861   6.830  17.010 -0.7228 -0.9707 -1.2542
14402TIP3   OH264696   3.208   6.792   4.416 -0.2373 -0.2612  0.1494
14402TIP3    H164697   3.159   6.872   4.400  0.8393  0.4616  0.3636
14402TIP3    H264698   3.298   6.813   4.390  0.7594 -0.3536  3.1812
14403TIP3   OH264699   0.007   6.270   4.702 -0.4365 -0.1688 -0.1518
14403TIP3    H164700   0.091   6.261   4.658  0.3992 -0.5270  1.4569
14403TIP3    H264701  -0.057   6.278   4.630  0.8677 -0.6082 -1.4024
14404TIP3   OH264702   1.613   6.073  16.382  0.4291 -0.0495 -0.1439
14404TIP3    H164703   1.594   6.062  16.289 -0.2137  0.4494 -0.0836
14404TIP3    H264704   1.571   5.998  16.424 -0.1479  0.2544 -0.1642
14405TIP3   OH264705   0.796   6.551  14.791  0.1910  0.1586  0.1765
14405TIP3    H164706   0.791   6.461  14.823  0.1404  0.3419  0.7013
14405TIP3    H264707   0.837   6.544  14.705 -1.0869 -0.4929 -0.3923
14406TIP3   OH264708   2.055   2.500  16.812 -0.1807  0.4653  0.2641
14406TIP3    H164709   2.131   2.504  16.871  0.2655  0.0516 -0.2701
14406TIP3    H264710   2.094   2.500  16.724 -0.8436  1.3005 -0.0390
14407TIP3   OH264711   0.522   5.330  11.972 -0.3494  0.3205 -0.2628
14407TIP3    H164712   0.495   5.414  11.934 -1.4363 -1.1022 -2.8595
14407TIP3    H264713   0.595   5.353  12.030 -1.0440  3.1270 -0.3299
14408TIP3   OH264714   3.467   6.757  13.305  0.4796 -0.2886 -0.3251
14408TIP3    H164715   3.450   6.686  13.366  0.5228 -0.5701 -0.6420
14408TIP3    H264716   3.466   6.836  13.359  0.7504 -0.5591  0.0757
14409TIP3   OH264717   2.777   2.883   5.656 -0.2219 -0.4030  0.1561
14409TIP3    H164718   2.752   2.971   5.630 -0.7313 -0.5572  0.1025
14409TIP3    H264719   2.791   2.889   5.750 -0.0101 -0.2111  0.1128
14410TIP3   OH264720   2.831   2.169  11.982  0.7016 -0.1178  0.0930
14410TIP3    H164721   2.774   2.208  11.916 -0.2542 -0.4386  0.7103
14410TIP3    H264722   2.855   2.083  11.945 -0.9437 -0.8904  0.7206
14411TIP3   OH264723   3.656   5.291   4.409  0.8173  0.0374 -0.2398
14411TIP3    H164724   3.575   5.341   4.415  0.2066 -0.8706 -0.7282
14411TIP3    H264725   3.673   5.262   4.499 -0.0949 -0.8220 -0.3281
14412TIP3   OH264726   3.337   4.394  13.779  0.0521 -0.0505  0.6761
14412TIP3    H164727   3.411   4.451  13.757  0.5847 -0.2688  1.8503
14412TIP3    H264728   3.271   4.454  13.814  0.2267 -0.0398  0.9833
14413TIP3   OH264729   0.741   1.939  11.855 -0.7671 -0.6915  0.5913
14413TIP3    H164730   0.683   2.003  11.814 -0.7605 -0.4543  0.9455
14413TIP3    H264731   0.811   1.925  11.792 -0.9054 -0.5405  0.4041
14414TIP3   OH264732   6.367   5.023   1.475 -0.1018  0.0615  0.0671
14414TIP3    H164733   6.437   5.084   1.497  0.9324 -0.9954 -0.1395
14414TIP3    H264734   6.316   5.068   1.407 -0.3198  1.2956  1.0098
14415TIP3   OH264735   6.192   2.249  14.908 -0.1398  0.3157  0.6875
14415TIP3    H164736   6.170   2.165  14.867 -2.4499  1.0223  0.3816
14415TIP3    H264737   6.146   2.248  14.991 -1.6915  1.9883 -0.1075
14416TIP3   OH264738   1.604   5.859   2.745 -0.1189  0.4367  0.3731
14416TIP3    H164739   1.606   5.767   2.719  0.7808  0.4483  0.3921
14416TIP3    H264740   1.672   5.901   2.693 -1.7522  1.4821 -1.0099
14417TIP3   OH264741   5.003   6.298   5.536  0.0395  0.0803  0.3762
14417TIP3    H164742   5.067   6.303   5.607 -0.7309 -0.1338  1.0950
14417TIP3    H264743   4.932   6.357   5.563  0.8266  1.9974 -1.3818
14418TIP3   OH264744   0.737   1.673  11.329  0.2034 -0.2558  0.1691
14418TIP3    H164745   0.716   1.719  11.248 -0.8558 -2.6995 -1.0761
14418TIP3    H264746   0.771   1.588  11.300 -2.2639 -2.0998  2.1539
14419TIP3   OH264747   6.617   1.050   5.621 -0.0193  0.2746 -0.3336
14419TIP3    H164748   6.666   0.972   5.597 -0.4897 -1.0395  2.5442
14419TIP3    H264749   6.526   1.020   5.630 -0.5486  1.5827 -0.9101
14420TIP3   OH264750   6.782   4.520  14.359  0.1354 -0.3915 -0.4023
14420TIP3    H164751   6.863   4.529  14.409 -0.3430  2.7024  0.0312
14420TIP3    H264752   6.738   4.445  14.398  1.2376 -0.0217  1.7442
14421TIP3   OH264753   2.118   2.579  13.148  0.1770 -0.2463 -0.6922
14421TIP3    H164754   2.204   2.593  13.107  0.1823 -0.6436 -0.8244
14421TIP3    H264755   2.127   2.618  13.235  0.5543 -0.4465 -0.6367
14422TIP3   OH264756   2.400   3.635   5.173  0.2300 -0.0745  0.1431
14422TIP3    H164757   2.350   3.554   5.177  2.4400 -1.4906  0.5933
14422TIP3    H264758   2.444   3.633   5.088  1.4545 -0.1069  0.7542
14423TIP3   OH264759   0.479   1.969   0.609  0.3624  0.0241 -0.5716
14423TIP3    H164760   0.458   1.988   0.701 -0.8636 -1.4570 -0.5088
14423TIP3    H264761   0.415   2.020   0.559 -0.0526 -0.4498 -0.5352
14424TIP3   OH264762   6.601   3.423  16.181 -0.0600 -0.1765 -0.0289
14424TIP3    H164763   6.562   3.489  16.238  1.9828  0.5395  0.5999
14424TIP3    H264764   6.664   3.378  16.236  2.0213  0.5756 -1.6665
14425TIP3   OH264765   0.330   3.842   0.312  0.2183  0.1074 -0.0418
14425TIP3    H164766   0.367   3.861   0.399 -0.9150 -0.0296  0.4818
14425TIP3    H264767   0.298   3.752   0.319 -0.0681  0.1707 -0.5348
14426TIP3   OH264768   3.496   5.685   1.016  0.1936  0.1861  0.3545
14426TIP3    H164769   3.525   5.671   0.926  2.9414 -0.3136  1.2040
14426TIP3    H264770   3.470   5.777   1.019  0.3673  0.2904 -0.8678
14427TIP3   OH264771   4.903   1.067   4.012  0.4940  0.1869 -0.7426
14427TIP3    H164772   4.907   0.992   4.072 -1.1679 -0.2183 -1.0723
14427TIP3    H264773   4.814   1.102   4.024  0.3981  0.5732 -2.3868
14428TIP3   OH264774   0.970   0.260   5.697 -0.7670 -0.3147 -0.0807
14428TIP3    H164775   0.884   0.252   5.655 -0.5671 -3.5257 -0.1561
14428TIP3    H264776   0.969   0.192   5.764  1.5073 -0.0313  0.2940
14429TIP3   OH264777   0.896   1.376  11.632  0.1768  0.2119 -0.1213
14429TIP3    H164778   0.981   1.403  11.597 -0.2797  0.6448 -0.9320
14429TIP3    H264779   0.858   1.456  11.667 -0.1719  0.1517 -0.3586
14430TIP3   OH264780   0.430   3.578   2.881  0.2616  0.0872 -0.3812
14430TIP3    H164781   0.426   3.656   2.825  0.8990  0.5005  0.1429
14430TIP3    H264782   0.523   3.568   2.901  0.1915 -0.8480 -0.4893
14431TIP3   OH264783   3.519   4.456   6.168  0.3370 -0.2743  0.0720
14431TIP3    H164784   3.527   4.542   6.209  2.4018 -0.5084  0.2758
14431TIP3    H264785   3.470   4.473   6.087  1.0889  1.1955 -0.1158
14432TIP3   OH264786   1.776   5.198   2.655 -0.0359  0.4608  0.0727
14432TIP3    H164787   1.811   5.204   2.566 -0.8503 -2.6130 -0.5730
14432TIP3    H264788   1.792   5.284   2.693  1.2296  1.5678 -2.7048
14433TIP3   OH264789   5.046   1.622  16.081 -0.0566 -0.3864 -0.0854
14433TIP3    H164790   5.103   1.549  16.105 -0.8210 -0.4663  1.5862
14433TIP3    H264791   5.091   1.700  16.113 -0.8749 -0.4535  1.2870
14434TIP3   OH264792   0.484   4.158  16.382 -0.0203 -0.0916 -0.2594
14434TIP3    H164793   0.428   4.197  16.449 -1.0914 -0.6868 -0.7814
14434TIP3    H264794   0.557   4.219  16.372 -0.1745  0.3212  0.9844
14435TIP3   OH264795   6.257   1.052  15.922 -0.0777  0.5637  0.0374
14435TIP3    H164796   6.307   1.031  15.844 -0.0782  1.0700 -0.1076
14435TIP3    H264797   6.166   1.030  15.899  0.3344 -2.7854  1.1834
14436TIP3   OH264798   6.411   4.814  15.082  0.3742 -0.2558  0.3376
14436TIP3    H164799   6.334   4.760  15.066 -1.2519  1.3586  2.2009
14436TIP3    H264800   6.457   4.770  15.154  1.2765 -1.2389 -0.8001
14437TIP3   OH264801   3.741   4.331  15.601 -0.2386 -0.5127  0.1470
14437TIP3    H164802   3.779   4.335  15.689  0.8555  3.7748 -0.3157
14437TIP3    H264803   3.676   4.400  15.599 -1.7435 -1.8784 -1.8629
14438TIP3   OH264804   1.082   3.418  15.916 -0.1433 -0.4227  0.0054
14438TIP3    H164805   0.990   3.405  15.897 -0.1074 -0.8261  0.0951
14438TIP3    H264806   1.096   3.513  15.907 -0.0836 -0.5993 -2.0893
14439TIP3   OH264807   4.338   2.757  12.718 -0.1404 -0.1416  0.2078
14439TIP3    H164808   4.244   2.775  12.716 -0.6686 -2.6236  0.0803
14439TIP3    H264809   4.376   2.817  12.653 -1.7214  0.3253 -0.3096
14440TIP3   OH264810   1.012   3.542   3.643 -0.5779 -0.2070  0.2900
14440TIP3    H164811   0.979   3.574   3.559 -0.0283 -0.8916 -0.1876
14440TIP3    H264812   0.947   3.477   3.671 -1.2346  0.6652  0.8411
14441TIP3   OH264813   1.914   4.273   2.762 -0.1078 -0.2653  0.8221
14441TIP3    H164814   1.838   4.328   2.744 -0.6928 -1.0839  0.7412
14441TIP3    H264815   1.960   4.267   2.678  0.8978  1.4655  1.2102
14442TIP3   OH264816   2.864   6.351  16.228 -0.4805  0.2882  0.1984
14442TIP3    H164817   2.937   6.383  16.176 -0.3455  0.8937  0.7411
14442TIP3    H264818   2.800   6.321  16.164 -0.2265  0.8083 -0.3126
14443TIP3   OH264819   0.501   0.953  15.943 -0.1020 -0.0641 -0.1789
14443TIP3    H164820   0.552   0.923  16.018 -1.0541 -0.8345  0.1874
14443TIP3    H264821   0.565   0.993  15.884  0.8036 -0.3593  0.5868
14444TIP3   OH264822   3.955   5.451   1.324  0.3759 -0.0873 -0.3663
14444TIP3    H164823   3.860   5.454   1.324  0.4108  1.2001 -0.0941
14444TIP3    H264824   3.976   5.360   1.348 -0.7641  0.2087  1.9905
14445TIP3   OH264825   0.605   5.450  13.215 -0.0033 -0.0812 -0.0421
14445TIP3    H164826   0.668   5.459  13.286 -0.9337 -0.5676  0.8766
14445TIP3    H264827   0.541   5.520  13.231  0.6559  0.8492 -1.3600
14446TIP3   OH264828   3.919   1.027  11.968  0.7524 -0.3070  0.5683
14446TIP3    H164829   3.955   1.054  12.052 -1.4957 -1.7609  2.1022
14446TIP3    H264830   3.828   1.005  11.986 -0.3222  0.8955 -2.6123
14447TIP3   OH264831   1.567   6.455   1.268 -0.0679  0.3271 -0.6609
14447TIP3    H164832   1.540   6.532   1.218 -0.2109  1.4729  1.0954
14447TIP3    H264833   1.615   6.491   1.343  0.2960 -1.3287 -0.0627
14448TIP3   OH264834   4.764   3.860  17.019  0.3767 -0.1406 -0.4668
14448TIP3    H164835   4.832   3.920  16.988 -0.9581  1.9813  0.4510
14448TIP3    H264836   4.797   3.827  17.102  0.5056  0.4995 -0.2632
14449TIP3   OH264837   0.066   6.061  16.999 -0.2878  0.2708 -0.8105
14449TIP3    H164838   0.072   6.082  17.092 -1.8269  0.7049 -0.7746
14449TIP3    H264839   0.153   6.078  16.964 -0.1103  1.6808  0.2363
14450TIP3   OH264840   1.971   1.412   2.339  0.1534  0.6049  0.1862
14450TIP3    H164841   1.965   1.507   2.348  2.6978  0.9102 -0.6061
14450TIP3    H264842   1.996   1.397   2.248  0.2247 -0.7807  0.4058
14451TIP3   OH264843   6.111   2.045  15.410 -0.3436  0.5529  0.0346
14451TIP3    H164844   6.072   1.966  15.372 -0.5766  0.9628 -0.5994
14451TIP3    H264845   6.039   2.090  15.453 -0.6526  1.4501 -1.3730
14452TIP3   OH264846   4.542   1.492  13.229  0.2502 -0.0129 -0.2344
14452TIP3    H164847   4.523   1.534  13.145  0.9989  3.4691  1.1733
14452TIP3    H264848   4.637   1.484  13.232  0.3317  1.0944  0.7642
14453TIP3   OH264849   5.174   1.295  14.958 -0.4185  0.1067 -0.1511
14453TIP3    H164850   5.209   1.218  15.002  1.4421  1.2574  0.4740
14453TIP3    H264851   5.249   1.336  14.915 -1.5776  0.9259 -1.5208
14454TIP3   OH264852   3.393   1.825  12.575 -0.2804  0.1102  0.0242
14454TIP3    H164853   3.441   1.775  12.509  0.0545  0.6313 -0.1343
14454TIP3    H264854   3.460   1.854  12.637 -0.7343 -1.3778  1.2740
14455TIP3   OH264855   2.592   4.765   6.277 -0.3372  0.1494  0.3497
14455TIP3    H164856   2.529   4.695   6.290 -2.1988  1.5224 -0.7174
14455TIP3    H264857   2.628   4.749   6.189 -1.3521  0.9082 -0.2298
14456TIP3   OH264858   2.124   1.712  13.813  0.1541  0.0556 -0.1431
14456TIP3    H164859   2.094   1.622  13.826  2.1179 -0.7480 -0.7673
14456TIP3    H264860   2.073   1.745  13.740  0.0545 -0.8945 -0.5122
14457TIP3   OH264861   3.960   5.681   4.904 -0.3938  0.2294 -0.2823
14457TIP3    H164862   4.000   5.635   4.978  0.9831  0.1345 -1.0455
14457TIP3    H264863   3.920   5.758   4.942  0.0794  0.0469  0.6007
14458TIP3   OH264864   0.009   0.104   3.292  0.5585  0.1865 -0.3514
14458TIP3    H164865   0.008   0.044   3.217 -1.2321  0.9739 -1.0268
14458TIP3    H264866   0.088   0.156   3.280  0.4570  0.0968 -1.5686
14459TIP3   OH264867   2.495   0.739  14.457 -0.1048 -0.0040 -0.7109
14459TIP3    H164868   2.541   0.657  14.475 -0.4737 -0.4382 -1.6598
14459TIP3    H264869   2.486   0.741  14.361  0.8211  1.6661 -0.7895
14460TIP3   OH264870   4.398   2.249   0.855  0.3597 -0.3864  0.0515
14460TIP3    H164871   4.467   2.311   0.831 -1.0945  1.2561 -0.1548
14460TIP3    H264872   4.317   2.299   0.843 -0.7719 -1.5442  2.2509
14461TIP3   OH264873   5.954   3.762  13.360 -0.1823 -0.3752  0.3908
14461TIP3    H164874   5.933   3.847  13.398  0.4618 -0.3643  0.7298
14461TIP3    H264875   6.018   3.781  13.292 -0.7367 -0.4884 -0.1747
14462TIP3   OH264876   6.468   1.658  15.962  0.1719 -0.0771  0.3274
14462TIP3    H164877   6.474   1.614  15.877  1.7321 -2.0795  1.3968
14462TIP3    H264878   6.557   1.688  15.980 -0.7972  3.7188 -0.3343
14463TIP3   OH264879   1.403   4.155  14.760 -0.4650  0.3775  0.1450
14463TIP3    H164880   1.472   4.109  14.711 -1.8155  0.4878 -2.0030
14463TIP3    H264881   1.410   4.120  14.849  0.6915 -1.5423 -0.6249
14464TIP3   OH264882   3.558   5.132   2.877  0.2934 -0.9248 -0.2410
14464TIP3    H164883   3.650   5.156   2.868  1.3503 -3.8031  1.2473
14464TIP3    H264884   3.555   5.039   2.852 -2.2429 -0.8938 -0.3481
14465TIP3   OH264885   0.008   3.334  11.754 -0.8746  0.6536  0.3697
14465TIP3    H164886   0.067   3.399  11.791  0.2511 -0.7807  1.2040
14465TIP3    H264887  -0.044   3.303  11.828 -0.2300 -0.5624  0.3482
14466TIP3   OH264888   2.445   3.594   0.786  0.1568 -0.1501  0.1843
14466TIP3    H164889   2.420   3.685   0.804 -0.5922 -0.2836 -0.1289
14466TIP3    H264890   2.495   3.567   0.863 -1.5537 -0.1905  1.3202
14467TIP3   OH264891   2.219   3.214  13.400  0.2574 -0.2087 -0.0607
14467TIP3    H164892   2.241   3.295  13.447 -2.2027  0.0953  0.6984
14467TIP3    H264893   2.291   3.202  13.339  1.2734  1.9183  0.6129
14468TIP3   OH264894   2.039   5.982  17.143 -0.4750 -0.4325  0.1065
14468TIP3    H164895   2.050   5.888  17.158 -1.7797 -1.4251 -3.9185
14468TIP3    H264896   1.956   6.004  17.185 -1.5580 -1.8149 -1.2151
14469TIP3   OH264897   4.108   2.600  12.919 -0.4005 -0.2098  0.4896
14469TIP3    H164898   4.142   2.688  12.929 -0.0074 -0.4399  1.2844
14469TIP3    H264899   4.119   2.579  12.826 -0.8631  0.7137  0.2168
14470TIP3   OH264900   0.257   3.550  16.192 -0.6650  0.5062  0.0536
14470TIP3    H164901   0.267   3.471  16.244 -2.4772  0.2542  0.1052
14470TIP3    H264902   0.174   3.538  16.146 -2.3419  3.3748  1.9893
14471TIP3   OH264903   5.862   0.815   0.333  0.0597  0.2100  0.5910
14471TIP3    H164904   5.880   0.796   0.241 -0.2050 -1.0299  0.7759
14471TIP3    H264905   5.855   0.910   0.337  1.2294  0.3731 -0.4592
14472TIP3   OH264906   5.476   2.254   1.960 -0.3437  0.1715  0.2875
14472TIP3    H164907   5.471   2.232   2.053  0.4518 -0.2376  0.2449
14472TIP3    H264908   5.412   2.325   1.948 -2.0697 -1.2557  0.6795
14473TIP3   OH264909   3.842   0.162   1.246  0.2923 -0.2564 -0.2927
14473TIP3    H164910   3.761   0.208   1.223  0.1865 -0.0656  0.4175
14473TIP3    H264911   3.890   0.224   1.300  0.0070 -1.0689  0.9502
14474TIP3   OH264912   5.724   2.868   3.800 -0.2226 -0.1930  0.1366
14474TIP3    H164913   5.791   2.921   3.845 -1.6780  1.4689  0.4690
14474TIP3    H264914   5.730   2.782   3.841 -0.2438  0.7489  2.2662
14475TIP3   OH264915   5.726   5.275  12.556  1.1338 -0.4460 -0.4057
14475TIP3    H164916   5.713   5.181  12.561 -1.0291 -0.2093 -0.8441
14475TIP3    H264917   5.665   5.312  12.619  1.2165  0.6987 -0.9644
14476TIP3   OH264918   6.607   0.678  14.927  0.6964  0.1626 -0.1839
14476TIP3    H164919   6.540   0.746  14.934  0.5763  0.3626 -2.6508
14476TIP3    H264920   6.667   0.697  14.999  0.9892  3.2923 -1.1150
14477TIP3   OH264921   1.760   1.022   4.509  0.3539 -0.2699  0.0899
14477TIP3    H164922   1.803   1.027   4.594  1.3654 -0.3576 -0.4069
14477TIP3    H264923   1.816   1.073   4.450 -0.4397 -0.0332 -0.4822
14478TIP3   OH264924   0.644   4.628   5.387 -0.0528 -0.1547 -0.3603
14478TIP3    H164925   0.664   4.551   5.333  0.0375 -1.6718  1.7458
14478TIP3    H264926   0.552   4.619   5.408  0.3768 -0.7196  1.4041
14479TIP3   OH264927   2.709   1.909  11.960 -0.2777  0.5533  0.6724
14479TIP3    H164928   2.645   1.839  11.969 -1.1888  1.0868 -1.2171
14479TIP3    H264929   2.771   1.893  12.031 -0.7235 -1.8621  0.6251
14480TIP3   OH264930   6.464   2.243   5.717 -0.0568 -0.2275 -0.7098
14480TIP3    H164931   6.473   2.300   5.641  0.8115 -1.2261 -1.3845
14480TIP3    H264932   6.551   2.241   5.756 -0.8318  1.5291  1.2865
14481TIP3   OH264933   6.310   6.638   0.579  0.4354 -0.2422 -0.2954
14481TIP3    H164934   6.316   6.545   0.557  0.3016 -0.3028 -0.0842
14481TIP3    H264935   6.321   6.684   0.496  2.2309 -0.3887 -0.1813
14482TIP3   OH264936   0.378   0.039   5.379  0.1274  0.0832 -0.1554
14482TIP3    H164937   0.425  -0.039   5.408 -0.1124 -0.8309 -2.0721
14482TIP3    H264938   0.440   0.111   5.392  0.9988 -0.6748  0.0140
14483TIP3   OH264939   0.093   2.532   2.455 -0.4195 -0.4551  0.2317
14483TIP3    H164940   0.167   2.479   2.482 -0.7088 -1.0349 -0.0986
14483TIP3    H264941   0.131   2.601   2.401  0.1166  0.4499  1.6871
14484TIP3   OH264942   0.588   3.821  14.900  0.2437  0.5940 -1.1666
14484TIP3    H164943   0.664   3.773  14.867 -0.2523 -0.1198 -1.2933
14484TIP3    H264944   0.519   3.802  14.837 -0.5754 -0.3721 -0.0279
14485TIP3   OH264945   2.223   6.701   1.121 -0.2485  0.0824  0.2365
14485TIP3    H164946   2.205   6.609   1.139  1.3673 -0.2522  0.2787
14485TIP3    H264947   2.139   6.737   1.092 -1.5093 -0.8047  2.5542
14486TIP3   OH264948   1.390   4.895  15.261  0.0764 -0.4653  0.6915
14486TIP3    H164949   1.316   4.852  15.305  0.6448 -2.1712  0.0676
14486TIP3    H264950   1.356   4.920  15.175  0.1014 -0.9189  0.5450
14487TIP3   OH264951   2.862   2.975   4.686 -0.2891  0.2262 -0.4482
14487TIP3    H164952   2.824   3.034   4.751  0.9475  1.4257 -0.7532
14487TIP3    H264953   2.793   2.911   4.668 -1.1391  0.6769  1.0155
14488TIP3   OH264954   0.567   5.920  16.728 -0.2816  0.2658  0.0091
14488TIP3    H164955   0.632   5.956  16.668  1.6867 -1.5633  0.9303
14488TIP3    H264956   0.514   5.996  16.753 -0.3464  1.3332 -2.9032
14489TIP3   OH264957   3.078   6.055  14.197 -0.3680  0.0459  0.4419
14489TIP3    H164958   3.014   5.986  14.177  0.6533 -0.2810 -1.9851
14489TIP3    H264959   3.136   6.015  14.262  1.0282 -2.0328 -1.8958
14490TIP3   OH264960   5.072   5.191  12.033 -0.3398 -0.3393 -0.1645
14490TIP3    H164961   5.096   5.182  12.125 -1.9602  0.0942  0.3177
14490TIP3    H264962   5.071   5.102  12.000 -0.0355 -0.5228  0.3007
14491TIP3   OH264963   3.597   6.482   2.238 -0.5618  0.2188 -0.2615
14491TIP3    H164964   3.635   6.533   2.167  0.7791 -0.0387  0.2489
14491TIP3    H264965   3.562   6.404   2.195  1.5749 -0.6753 -0.5196
14492TIP3   OH264966   4.321   3.653   6.999  0.3272 -0.2957 -0.3273
14492TIP3    H164967   4.292   3.563   6.988  0.4294 -0.6685  1.9854
14492TIP3    H264968   4.299   3.696   6.916 -2.5973 -1.6849 -0.4124
14493TIP3   OH264969   4.337   2.057  14.324 -0.1116 -0.0063  0.5048
14493TIP3    H164970   4.248   2.091  14.316 -0.4483 -1.1480 -1.1413
14493TIP3    H264971   4.386   2.101  14.254 -0.1227 -1.4585 -0.4723
14494TIP3   OH264972   0.079   1.339   0.514  0.1270  0.4302  0.1127
14494TIP3    H164973   0.074   1.383   0.599  0.6368 -0.2047  0.4799
14494TIP3    H264974   0.040   1.253   0.530 -0.4351  0.5728 -0.4816
14495TIP3   OH264975   4.039   4.207  11.128  0.5174 -0.2042  0.1395
14495TIP3    H164976   4.112   4.255  11.089  0.2969  0.8386  0.9742
14495TIP3    H264977   3.962   4.237  11.080  0.3375  0.5384  0.8840
14496TIP3   OH264978   3.380   5.367  12.712  0.3953  0.2510  0.0281
14496TIP3    H164979   3.294   5.355  12.753  0.1053 -0.9288 -0.8809
14496TIP3    H264980   3.394   5.462  12.714 -0.9282  0.4664  0.2068
14497TIP3   OH264981   3.303   3.688  15.821 -0.3183 -0.3665  0.5304
14497TIP3    H164982   3.365   3.693  15.893 -2.1946  0.0436  2.1941
14497TIP3    H264983   3.280   3.595  15.814  2.0689 -0.9022 -1.5994
14498TIP3   OH264984   3.492   4.072   1.183 -0.1525 -0.3264  0.1819
14498TIP3    H164985   3.587   4.087   1.178 -0.1555  0.3064  1.5927
14498TIP3    H264986   3.455   4.140   1.126  0.2392 -0.7570 -0.6048
14499TIP3   OH264987   2.144   2.165  14.682  0.7646  0.1130  0.3130
14499TIP3    H164988   2.132   2.080  14.639  0.9280 -0.0865  0.6592
14499TIP3    H264989   2.238   2.175  14.689  0.7732 -0.9654  2.7539
14500TIP3   OH264990   5.953   2.318   3.546 -0.5956  0.1109 -0.2773
14500TIP3    H164991   5.920   2.243   3.596 -4.1485  0.4815 -1.7748
14500TIP3    H264992   5.949   2.289   3.454 -1.9889  2.0086 -0.8824
14501TIP3   OH264993   0.579   2.745  11.291 -0.3099 -0.0551 -0.5744
14501TIP3    H164994   0.620   2.687  11.355 -1.1453  0.9056  0.8916
14501TIP3    H264995   0.637   2.821  11.285  0.4088 -0.6860 -1.9368
14502TIP3   OH264996   5.879   0.698  14.146 -0.0226  0.5120  0.3898
14502TIP3    H164997   5.806   0.714  14.206 -0.6629 -0.8604  0.0229
14502TIP3    H264998   5.955   0.686  14.203 -0.7143 -1.2766  1.0023
14503TIP3   OH264999   4.905   2.174  14.175  0.3842  0.2290 -0.3960
14503TIP3    H165000   4.878   2.107  14.111  0.5943 -1.1994  0.9501
14503TIP3    H265001   4.996   2.153  14.195  0.5583  1.1428 -0.2078
14504TIP3   OH265002   1.889   5.628   5.105  0.0778 -0.9516 -0.4184
14504TIP3    H165003   1.909   5.557   5.167 -1.7372 -1.9535 -0.8840
14504TIP3    H265004   1.798   5.610   5.078 -0.2460  1.2736 -0.9609
14505TIP3   OH265005   3.778   5.719   6.736  0.1794 -0.1840  0.2451
14505TIP3    H165006   3.704   5.720   6.674 -0.8656  0.3260  1.4595
14505TIP3    H265007   3.802   5.627   6.744  0.6633 -0.2215 -1.2692
14506TIP3   OH265008   1.969   4.813   5.115 -0.0160 -0.0214  1.0784
14506TIP3    H165009   1.937   4.723   5.107 -2.1169  0.7929 -0.4153
14506TIP3    H265010   1.979   4.827   5.209  2.6913 -2.5081  1.3234
14507TIP3   OH265011   3.964   6.649   1.645  0.1269 -0.3109 -0.3862
14507TIP3    H165012   3.891   6.677   1.591  1.4693 -0.2790 -2.3182
14507TIP3    H265013   3.979   6.721   1.707 -1.5829 -0.4408  0.2156
14508TIP3   OH265014   4.985   4.932   1.923  0.4802  0.6919 -0.7270
14508TIP3    H165015   5.034   4.935   2.005 -0.2891  1.5629 -0.2822
14508TIP3    H265016   5.042   4.885   1.863  0.8814 -0.3473  0.4229
14509TIP3   OH265017   2.386   1.933   3.309 -0.1031  0.2168 -0.5711
14509TIP3    H165018   2.444   1.998   3.270  1.0023 -0.4796 -0.1487
14509TIP3    H265019   2.303   1.943   3.262 -0.1221  2.2428 -0.1781
14510TIP3   OH265020   6.255   5.907  13.757  0.5309 -0.1280  0.0244
14510TIP3    H165021   6.191   5.977  13.772  1.2217  0.5604 -0.1581
14510TIP3    H265022   6.244   5.849  13.832 -0.0136  0.2085  0.2153
14511TIP3   OH265023   2.774   3.603   5.859 -0.0800  0.7414 -0.0013
14511TIP3    H165024   2.842   3.584   5.923  0.4383  0.9256 -0.4833
14511TIP3    H265025   2.808   3.678   5.810 -0.2561  0.3223 -0.7811
14512TIP3   OH265026   0.929   3.668   3.233 -0.3876  0.2093 -0.6421
14512TIP3    H165027   0.978   3.650   3.153  0.4502 -1.4198  0.1949
14512TIP3    H265028   0.871   3.592   3.243 -2.5671  1.7123 -1.1753
14513TIP3   OH265029   0.030   0.376   1.433  0.3432 -0.3746 -0.0238
14513TIP3    H165030  -0.020   0.312   1.482  0.7346 -0.5971  0.0929
14513TIP3    H265031  -0.010   0.377   1.346 -1.0748  0.8551  0.6128
14514TIP3   OH265032   0.251   1.360   5.225  0.3743 -0.4235 -0.0666
14514TIP3    H165033   0.283   1.381   5.313 -0.6548  0.3526  0.1448
14514TIP3    H265034   0.321   1.308   5.186  0.6427 -1.2281  1.3934
14515TIP3   OH265035   3.488   6.068   5.944  0.2811  0.0026  0.0591
14515TIP3    H165036   3.456   6.068   6.034  0.6099 -0.2971  0.1798
14515TIP3    H265037   3.468   6.155   5.911  0.7456  0.3322  0.6329
14516TIP3   OH265038   3.682   0.233   3.359  0.8272  0.2599  0.2766
14516TIP3    H165039   3.597   0.193   3.340  0.7850  0.5093 -0.0740
14516TIP3    H265040   3.663   0.327   3.368  1.3638  0.6604 -1.9974
14517TIP3   OH265041   6.731   4.804  15.163 -0.4236  0.0537 -0.5272
14517TIP3    H165042   6.809   4.756  15.190 -0.8231  0.1635  0.8963
14517TIP3    H265043   6.684   4.823  15.245 -1.4687  0.8064 -1.2642
14518TIP3   OH265044   3.865   0.128  14.166  0.3056 -0.5872  0.0434
14518TIP3    H165045   3.929   0.120  14.237 -0.9294  0.5737  1.3428
14518TIP3    H265046   3.794   0.179  14.204 -1.8659 -2.6329 -1.0187
14519TIP3   OH265047   1.887   1.340  13.628 -0.2288 -0.2343  0.5515
14519TIP3    H165048   1.952   1.382  13.572 -1.8517  0.6592 -0.7528
14519TIP3    H265049   1.871   1.256  13.587 -1.7079  0.5809 -0.6275
14520TIP3   OH265050   5.601   6.777  11.788  0.0454 -0.4761 -0.5255
14520TIP3    H165051   5.624   6.760  11.879 -2.0156 -0.5495  0.0293
14520TIP3    H265052   5.511   6.746  11.780  0.3578 -1.0037 -2.7529
14521TIP3   OH265053   4.178   1.534  12.187  0.0920  0.2626 -0.2433
14521TIP3    H165054   4.260   1.573  12.157  0.5921 -2.2112 -2.5651
14521TIP3    H265055   4.205   1.454  12.233 -0.9823  0.1558  0.2324
14522TIP3   OH265056   5.688   5.430   2.409  0.8903  0.0394 -0.3771
14522TIP3    H165057   5.752   5.495   2.437 -0.8449  1.3671  0.6756
14522TIP3    H265058   5.611   5.447   2.462 -0.2624 -1.7219 -1.3706
14523TIP3   OH265059   2.891   2.929   2.281 -0.1910  0.1220 -0.2500
14523TIP3    H165060   2.823   2.912   2.216 -1.7927  2.4423  0.6407
14523TIP3    H265061   2.913   2.844   2.318 -2.8758 -0.7132 -0.3954
14524TIP3   OH265062   1.810   5.596  10.784  0.2456 -0.0377  0.0217
14524TIP3    H165063   1.875   5.651  10.829  1.8527 -1.2051 -0.7648
14524TIP3    H265064   1.852   5.571  10.702 -1.3449 -0.5908 -0.6663
14525TIP3   OH265065   4.990   2.805  11.991  0.5385  0.4268 -0.2247
14525TIP3    H165066   5.055   2.853  12.044  1.2617 -0.2854 -0.4456
14525TIP3    H265067   4.960   2.870  11.926  0.1907  1.0878  0.5766
14526TIP3   OH265068   4.182   1.979  13.437  0.1280 -0.4940  0.2181
14526TIP3    H165069   4.143   1.901  13.397 -0.5530  0.1694 -0.4301
14526TIP3    H265070   4.192   2.041  13.365  0.4969  0.0959  0.7624
14527TIP3   OH265071   2.968   2.600  15.293 -0.1994 -0.3305 -0.1886
14527TIP3    H165072   2.982   2.665  15.224  1.1935  0.0750  0.4462
14527TIP3    H265073   2.975   2.650  15.374  4.7378 -1.7174  0.5551
14528TIP3   OH265074   5.919   3.906  16.172 -0.2379 -0.1904 -0.0107
14528TIP3    H165075   6.011   3.934  16.164 -0.0814 -0.5983  0.3614
14528TIP3    H265076   5.896   3.927  16.262  0.0131 -1.6371  0.4136
14529TIP3   OH265077   4.103   3.006  17.052 -0.3677 -0.7894  0.2320
14529TIP3    H165078   4.154   2.926  17.038  0.4114 -0.2271 -0.2516
14529TIP3    H265079   4.100   3.047  16.966  0.6523  0.5177  0.8014
14530TIP3   OH265080   6.190   3.393   4.730  0.6059  0.1630  0.6041
14530TIP3    H165081   6.147   3.406   4.815 -1.5409 -0.1576 -0.3595
14530TIP3    H265082   6.165   3.304   4.705 -0.5962  0.9686 -1.2849
14531TIP3   OH265083   1.384   5.933   5.137 -0.2180 -0.6359  0.5633
14531TIP3    H165084   1.321   5.999   5.165 -0.4068 -0.0613 -1.0762
14531TIP3    H265085   1.463   5.952   5.188 -0.9814 -0.6215  1.7791
14532TIP3   OH265086   6.129   1.133  16.145 -0.4594  0.3704  0.4151
14532TIP3    H165087   6.197   1.151  16.080 -0.5659  1.1378  0.5070
14532TIP3    H265088   6.167   1.160  16.228 -0.3318 -0.5911  0.6807
14533TIP3   OH265089   2.663   2.990   2.084  0.4999  0.1534 -0.1875
14533TIP3    H165090   2.642   3.056   2.018  0.8469  1.1001  0.6184
14533TIP3    H265091   2.595   2.924   2.074  0.2610  0.5263 -1.1539
14534TIP3   OH265092   2.772   0.697   1.942 -0.2753  0.3990  0.3635
14534TIP3    H165093   2.677   0.700   1.930 -0.1847  0.6775 -0.3063
14534TIP3    H265094   2.799   0.789   1.939  0.2107  0.2257 -1.0605
14535TIP3   OH265095   4.571   6.738   1.754  0.1131 -0.1438  0.2106
14535TIP3    H165096   4.584   6.689   1.835  0.9773  1.3001  0.9965
14535TIP3    H265097   4.583   6.829   1.779 -0.6053  0.4256 -1.3627
14536TIP3   OH265098   1.262   3.966  15.288  0.6185  0.5867  0.2212
14536TIP3    H165099   1.217   4.050  15.281 -0.2164  0.0113 -2.6240
14536TIP3    H265100   1.310   3.958  15.206 -1.0656 -2.6191 -0.6294
14537TIP3   OH265101   0.710   0.818  11.557  0.6707  0.5327  0.0677
14537TIP3    H165102   0.678   0.896  11.511  0.9869  1.1071  0.7916
14537TIP3    H265103   0.636   0.792  11.612  0.4247  0.0761 -0.4778
14538TIP3   OH265104   1.683   6.288   2.944 -0.6334 -0.2407  0.2654
14538TIP3    H165105   1.616   6.316   2.882  0.2710 -1.6732 -1.4548
14538TIP3    H265106   1.716   6.370   2.982 -2.5655  0.5422  0.3561
14539TIP3   OH265107   4.780   4.846   5.462 -0.6510  0.4760 -0.2874
14539TIP3    H165108   4.693   4.826   5.499  0.1050  0.8741  1.8670
14539TIP3    H265109   4.823   4.899   5.530  1.8318 -0.9982 -0.5949
14540TIP3   OH265110   1.079   6.645   0.812  0.0962 -0.3865 -0.3216
14540TIP3    H165111   1.114   6.577   0.869  0.8504 -1.4673 -1.9969
14540TIP3    H265112   1.050   6.714   0.871  2.3038 -0.7587  1.3000
14541TIP3   OH265113   2.732   4.357   4.193 -0.1325  0.0143 -0.0040
14541TIP3    H165114   2.645   4.396   4.205 -0.3942 -0.7982  0.8751
14541TIP3    H265115   2.752   4.372   4.100  0.2057  3.0147  0.4572
14542TIP3   OH265116   1.913   5.622  13.907 -0.3350  0.2499  0.2297
14542TIP3    H165117   1.840   5.567  13.938 -1.1638  1.9763  1.4769
14542TIP3    H265118   1.982   5.559  13.886 -1.9677 -1.4214 -0.5159
14543TIP3   OH265119   6.385   2.936   0.499 -0.1340 -0.3984  0.8477
14543TIP3    H165120   6.424   2.851   0.521 -0.4531  0.0099  3.3320
14543TIP3    H265121   6.458   2.988   0.465  0.0982 -1.5837 -0.5339
14544TIP3   OH265122   0.419   5.196   4.859  0.3410  0.3038 -0.4244
14544TIP3    H165123   0.488   5.142   4.821 -0.0872 -1.2220  0.8577
14544TIP3    H265124   0.353   5.133   4.889 -1.1309  1.6590 -0.6687
14545TIP3   OH265125   5.199   2.377   1.841 -0.2147  0.2255 -0.0789
14545TIP3    H165126   5.146   2.456   1.830 -0.5009 -0.1269 -1.5471
14545TIP3    H265127   5.265   2.383   1.772 -0.1563 -0.7386 -0.1207
14546TIP3   OH265128   3.100   5.593  13.438 -1.0553  0.0691 -0.1832
14546TIP3    H165129   3.058   5.633  13.362  2.0583 -0.4431 -2.3349
14546TIP3    H265130   3.143   5.666  13.483  0.4968 -0.1237 -1.2956
14547TIP3   OH265131   0.821   5.621   2.070  0.3676 -0.2174  0.0654
14547TIP3    H165132   0.890   5.562   2.100 -0.3174 -1.4443 -0.6734
14547TIP3    H265133   0.760   5.626   2.143 -0.2813 -1.5907 -0.3405
14548TIP3   OH265134   3.131   1.120   0.410  0.0065 -0.5115 -0.0370
14548TIP3    H165135   3.105   1.204   0.373  0.7953  1.0659  2.6886
14548TIP3    H265136   3.181   1.077   0.340 -2.8562 -0.1073 -2.5284
14549TIP3   OH265137   5.039   6.192  16.116  0.1480  0.1861 -0.1204
14549TIP3    H165138   5.062   6.169  16.026 -0.1474  2.1795 -0.7759
14549TIP3    H265139   4.955   6.148  16.132  0.5203 -0.7055 -0.5756
14550TIP3   OH265140   4.303   1.855   2.501  0.6918  0.3494 -0.0018
14550TIP3    H165141   4.298   1.917   2.574 -0.2217  0.2969 -0.0089
14550TIP3    H265142   4.396   1.853   2.477  0.7664  1.5640  0.1282
14551TIP3   OH265143   6.207   5.865  14.414 -0.4349 -0.0986  0.4916
14551TIP3    H165144   6.220   5.923  14.488  1.3471 -0.1245  0.2301
14551TIP3    H265145   6.153   5.916  14.353 -0.0449  0.7595  0.8508
14552TIP3   OH265146   3.109   4.677  11.656  0.0074  0.3251 -0.5007
14552TIP3    H165147   3.074   4.708  11.739 -0.3310  1.6061 -1.0926
14552TIP3    H265148   3.184   4.734  11.639 -1.0001  1.2945 -1.9196
14553TIP3   OH265149   1.830   4.953  15.856  0.0801 -0.2541 -0.6154
14553TIP3    H165150   1.854   5.019  15.791  0.7977  0.3351  0.2314
14553TIP3    H265151   1.750   4.985  15.896  0.9016  0.5847  0.4166
14554TIP3   OH265152   3.334   2.627   6.021 -0.7002 -0.3205  0.3622
14554TIP3    H165153   3.392   2.686   6.069 -0.6227  0.1541 -0.3120
14554TIP3    H265154   3.261   2.610   6.082 -1.7609  2.0770 -0.1433
14555TIP3   OH265155   6.733   2.848   5.684 -0.5796  0.6166 -0.4654
14555TIP3    H165156   6.658   2.798   5.650  0.0180 -0.4676 -0.2300
14555TIP3    H265157   6.700   2.887   5.765 -0.4440 -1.2627  0.5658
14556TIP3   OH265158   5.657   5.472   0.576 -0.5006 -0.3723 -0.5471
14556TIP3    H165159   5.572   5.468   0.620  0.2574 -0.6784  0.9818
14556TIP3    H265160   5.643   5.430   0.492 -1.8735 -0.3625 -0.3402
14557TIP3   OH265161   3.266   3.731   3.702  0.3319 -0.3352  0.1602
14557TIP3    H165162   3.339   3.699   3.755 -0.2271 -0.0966  1.1061
14557TIP3    H265163   3.245   3.817   3.739 -1.1174 -0.8568  0.6285
14558TIP3   OH265164   5.269   3.110   3.288 -0.4243 -0.6283  0.2137
14558TIP3    H165165   5.178   3.127   3.313 -0.7332 -0.4324 -0.9865
14558TIP3    H265166   5.291   3.182   3.228 -0.2207 -1.8767 -1.2699
14559TIP3   OH265167   2.541   4.016  12.512  0.1049 -0.3091  0.0729
14559TIP3    H165168   2.572   3.996  12.423  0.3308 -0.2342  0.1332
14559TIP3    H265169   2.602   3.969  12.569  0.3830  0.2041  0.2053
14560TIP3   OH265170   0.236   5.442  13.920 -0.3637 -0.4180  0.1463
14560TIP3    H165171   0.255   5.509  13.855 -1.0325 -0.2903  0.0862
14560TIP3    H265172   0.319   5.393  13.928  0.0817  0.3151  0.0898
14561TIP3   OH265173   1.870   4.020   2.266 -0.5130  0.1522 -0.2785
14561TIP3    H165174   1.780   3.985   2.268 -0.0804 -1.0255 -0.2488
14561TIP3    H265175   1.924   3.943   2.251  0.4455  0.9665 -1.0983
14562TIP3   OH265176   5.012   2.639  16.386 -0.1949 -0.0891  0.8966
14562TIP3    H165177   5.018   2.554  16.343  0.8350  0.7423 -0.6728
14562TIP3    H265178   4.930   2.677  16.355  0.2635  0.2617  0.0743
14563TIP3   OH265179   4.417   1.887  12.213 -0.1739 -0.1262 -0.4800
14563TIP3    H165180   4.464   1.876  12.296  2.3283 -0.1085 -1.8167
14563TIP3    H265181   4.345   1.946  12.235 -1.5944 -2.5839  2.3406
14564TIP3   OH265182   6.493   1.950   1.942 -0.4853  0.3596  0.0349
14564TIP3    H165183   6.518   1.991   1.859  0.1156 -0.7828 -0.3698
14564TIP3    H265184   6.533   1.863   1.939 -0.7844  0.1538  1.3576
14565TIP3   OH265185   1.940   4.967  17.183  0.5473 -0.1404 -0.1399
14565TIP3    H165186   2.017   4.955  17.238  0.7060 -1.1767 -0.5743
14565TIP3    H265187   1.880   4.897  17.209  0.3101 -0.1701 -0.7385
14566TIP3   OH265188   1.794   6.612   3.786  0.2995 -0.6639 -0.3362
14566TIP3    H165189   1.755   6.525   3.781  1.7272 -1.4630  1.2845
14566TIP3    H265190   1.888   6.596   3.791  0.6024  0.9838 -0.1640
14567TIP3   OH265191   0.969   1.590  13.652 -0.3051  0.3966  0.0396
14567TIP3    H165192   0.990   1.530  13.580  0.4883  0.7866 -0.0723
14567TIP3    H265193   0.892   1.551  13.694  1.4960 -2.0430  1.4196
14568TIP3   OH265194   4.489   3.211  13.427 -0.2118 -0.1675 -0.1493
14568TIP3    H165195   4.436   3.267  13.370  0.4742  0.2413 -0.4047
14568TIP3    H265196   4.569   3.262  13.442 -0.2665 -0.3848  0.9639
14569TIP3   OH265197   2.226   6.101  16.004 -0.3986 -0.2143 -0.3558
14569TIP3    H165198   2.152   6.040  15.998 -0.2354 -0.5008  0.3603
14569TIP3    H265199   2.298   6.047  16.037 -0.7866  0.7654  2.3558
14570TIP3   OH265200   5.375   3.736  10.674 -0.5105  0.5650 -0.4117
14570TIP3    H165201   5.362   3.829  10.656 -1.2508  0.4036 -0.7286
14570TIP3    H265202   5.469   3.728  10.692 -0.6297  1.5592  0.7543
14571TIP3   OH265203   0.430   1.909   6.043  0.1390  0.0001 -0.0247
14571TIP3    H165204   0.396   1.887   5.957  0.3739  2.3085 -0.7717
14571TIP3    H265205   0.520   1.937   6.028 -0.0193  1.0762  0.8380
14572TIP3   OH265206   4.654   0.570  16.036  0.4548 -0.1065 -0.3186
14572TIP3    H165207   4.610   0.498  15.991  0.9941  0.2642 -1.4861
14572TIP3    H265208   4.747   0.547  16.032  0.4500 -0.5505  1.5125
14573TIP3   OH265209   5.289   3.350   5.626 -0.4748 -0.5460  0.0996
14573TIP3    H165210   5.210   3.337   5.678  0.0463  0.4816  1.1844
14573TIP3    H265211   5.257   3.372   5.539 -1.3637 -2.0747  0.0093
14574TIP3   OH265212   4.068   5.549  13.213  0.1474 -0.2142 -0.7160
14574TIP3    H165213   4.076   5.625  13.270  0.2808 -1.1076  0.5024
14574TIP3    H265214   4.125   5.569  13.138  0.2753  0.8163 -0.3629
14575TIP3   OH265215   2.899   3.399  11.847  0.0403 -0.0208  0.1338
14575TIP3    H165216   2.924   3.310  11.820 -1.5938 -1.6042  3.2577
14575TIP3    H265217   2.806   3.392  11.867 -0.1873  2.5273  0.1884
14576TIP3   OH265218   3.329   2.106  11.930  0.1168 -0.4034 -0.3530
14576TIP3    H165219   3.421   2.121  11.910 -0.2302 -0.6796 -2.4486
14576TIP3    H265220   3.290   2.084  11.845 -1.4476 -2.5472  0.8231
14577TIP3   OH265221   3.891   6.574   5.066 -0.3866  0.2926 -0.0434
14577TIP3    H165222   3.855   6.639   5.127 -1.3169 -1.3337  1.2147
14577TIP3    H265223   3.947   6.518   5.120  0.1152 -0.1886 -1.0325
14578TIP3   OH265224   5.624   0.374  11.762  0.1712 -0.2009 -0.4381
14578TIP3    H165225   5.612   0.419  11.678  1.3713  0.9919 -0.0165
14578TIP3    H265226   5.633   0.445  11.825 -0.8199 -1.0801  0.7439
14579TIP3   OH265227   0.691   4.853   5.629 -0.2234  0.4633  0.3300
14579TIP3    H165228   0.759   4.853   5.696 -1.2915  0.2623  1.4450
14579TIP3    H265229   0.738   4.866   5.547  1.2606 -0.5990  0.9698
14580TIP3   OH265230   3.065   4.297  15.204 -0.0590 -0.0388 -0.0148
14580TIP3    H165231   2.991   4.246  15.171 -0.5396  0.9767 -0.5496
14580TIP3    H265232   3.047   4.308  15.297  0.2976 -1.2389  0.2133
14581TIP3   OH265233   4.186   6.199  15.327  0.0130  0.0358  0.0832
14581TIP3    H165234   4.108   6.174  15.278  0.8781 -1.4068 -0.6306
14581TIP3    H265235   4.215   6.281  15.288 -0.3568 -0.1584 -0.6074
14582TIP3   OH265236   5.935   0.537  12.860  0.0048 -0.3282 -0.3301
14582TIP3    H165237   6.020   0.493  12.867  0.1608  0.1895  1.3937
14582TIP3    H265238   5.956   0.622  12.820  0.0632 -0.7735 -1.2801
14583TIP3   OH265239   0.697   4.319  16.484  0.2662  0.5227  0.0227
14583TIP3    H165240   0.786   4.342  16.456 -0.1223  1.0997 -0.7748
14583TIP3    H265241   0.641   4.384  16.443 -0.8312 -1.5161 -1.9654
14584TIP3   OH265242   5.750   2.182  11.806  0.3340  0.6108 -0.0679
14584TIP3    H165243   5.699   2.109  11.772 -0.4252  0.3666  1.5159
14584TIP3    H265244   5.735   2.253  11.743  0.1729 -0.2375 -1.0138
14585TIP3   OH265245   4.579   5.125   1.464  0.9056 -0.3205  0.4131
14585TIP3    H165246   4.533   5.185   1.522  0.6863  0.0643 -0.1519
14585TIP3    H265247   4.669   5.158   1.462  0.9839 -0.5017  0.7471
14586TIP3   OH265248   4.601   4.166   3.231  0.4104  0.1498  0.2461
14586TIP3    H165249   4.663   4.197   3.164 -0.1934  0.2225 -0.2850
14586TIP3    H265250   4.644   4.090   3.270  0.4356 -0.3823 -0.7774
14587TIP3   OH265251   3.864   2.122   5.951 -0.1830  0.4615 -0.4007
14587TIP3    H165252   3.898   2.101   6.038 -0.5431  1.1582 -0.0871
14587TIP3    H265253   3.822   2.207   5.961  0.8652  1.1421 -1.5597
14588TIP3   OH265254   6.389   5.160  13.932 -0.5845  0.2457  0.1784
14588TIP3    H165255   6.465   5.204  13.971  0.4280 -0.8324 -0.4805
14588TIP3    H265256   6.385   5.075  13.976 -0.3519 -0.3769 -0.9373
14589TIP3   OH265257   4.727   1.490   3.413  0.3083 -0.4008  0.4803
14589TIP3    H165258   4.770   1.508   3.496  1.5606  0.2451 -0.2745
14589TIP3    H265259   4.644   1.537   3.418 -0.3050 -1.5664  1.9203
14590TIP3   OH265260   0.328   1.636  15.378  0.1737  0.3373 -0.5624
14590TIP3    H165261   0.376   1.626  15.296  0.0212  0.9088 -0.7245
14590TIP3    H265262   0.367   1.713  15.419 -0.9360  1.1095 -0.9246
14591TIP3   OH265263   2.129   4.195  13.023  0.4226 -0.0927 -0.1268
14591TIP3    H165264   2.188   4.122  13.005  1.2716  0.5653 -0.0692
14591TIP3    H265265   2.146   4.258  12.954  0.8404  0.7276  0.7010
14592TIP3   OH265266   4.577   0.113   3.660  0.3500  0.0295  0.4047
14592TIP3    H165267   4.535   0.028   3.673  1.5149 -0.3045  2.6636
14592TIP3    H265268   4.661   0.105   3.705  1.0909  1.9530 -0.4998
14593TIP3   OH265269   1.386   0.714  14.273 -0.1382  0.4170  0.2652
14593TIP3    H165270   1.468   0.725  14.226  0.3504 -0.7312  0.8095
14593TIP3    H265271   1.408   0.659  14.348 -1.8238 -1.9301 -0.8377
14594TIP3   OH265272   3.937   2.406  14.436  0.0057  0.2543 -0.6932
14594TIP3    H165273   3.982   2.382  14.518 -0.1745  0.8299 -0.4192
14594TIP3    H265274   3.853   2.361  14.441  0.2819 -0.2931 -0.8993
14595TIP3   OH265275   2.185   2.728   3.710  0.0278 -0.4635  0.6215
14595TIP3    H165276   2.242   2.710   3.785 -0.0437 -0.9909  0.5575
14595TIP3    H265277   2.114   2.782   3.746  0.4762  0.0529  0.7343
14596TIP3   OH265278   4.663   2.263  14.283  0.0628  0.4058  0.1971
14596TIP3    H165279   4.749   2.232  14.255  0.5835  1.0527  1.0434
14596TIP3    H265280   4.677   2.297  14.371 -1.2200 -0.1648  0.6501
14597TIP3   OH265281   4.322   6.267   3.585  0.1365 -0.4391  0.3666
14597TIP3    H165282   4.322   6.309   3.499 -0.9824  1.3143  1.1718
14597TIP3    H265283   4.232   6.278   3.617  0.6199 -0.7627  1.9119
14598TIP3   OH265284   5.364   6.052  15.560 -0.5607 -0.4611 -0.1776
14598TIP3    H165285   5.294   5.995  15.592 -2.1596 -0.5176 -3.4045
14598TIP3    H265286   5.354   6.133  15.610 -1.1330 -1.4246  1.3358
14599TIP3   OH265287   1.079   5.987  14.074 -0.5578 -0.5757  0.4492
14599TIP3    H165288   1.049   6.049  14.007  0.8784  0.3408  0.6126
14599TIP3    H265289   1.166   6.020  14.100 -0.4018 -1.8267  1.6085
14600TIP3   OH265290   2.770   4.092   4.986  0.2369  0.3002 -0.3740
14600TIP3    H165291   2.773   4.025   5.054  0.7611  0.8477  0.1563
14600TIP3    H265292   2.862   4.105   4.961  0.3559  2.1666  0.8847
14601TIP3   OH265293   2.364   5.323   4.308 -0.4091 -0.2733  0.2472
14601TIP3    H165294   2.281   5.281   4.331 -0.7832  0.2836 -0.0833
14601TIP3    H265295   2.407   5.260   4.251 -0.4817 -0.6799  0.6316
14602TIP3   OH265296   4.170   2.152  13.185  0.4824  0.2739  0.4863
14602TIP3    H165297   4.160   2.107  13.101 -2.6526 -0.6923  1.2532
14602TIP3    H265298   4.256   2.124  13.217 -0.2442 -3.2389 -0.2635
14603TIP3   OH265299   2.639   0.266  16.135  0.7020 -0.1006  0.1426
14603TIP3    H165300   2.691   0.189  16.111 -1.7266 -0.9527 -3.0318
14603TIP3    H265301   2.609   0.248  16.224 -0.7993 -3.5772 -0.8883
14604TIP3   OH265302   2.041   5.686  11.783  0.4099  0.0565 -0.3439
14604TIP3    H165303   2.082   5.756  11.732  0.1541  0.2081 -0.3424
14604TIP3    H265304   2.115   5.634  11.816  0.5629 -0.3504 -1.2990
14605TIP3   OH265305   6.281   5.381  13.275 -0.1751  0.1597  0.1906
14605TIP3    H165306   6.205   5.417  13.229  0.6053  0.5431 -0.8488
14605TIP3    H265307   6.333   5.458  13.299  0.5173 -0.1623 -0.2548
14606TIP3   OH265308   3.279   4.980  14.277 -0.2559 -0.2697  0.3828
14606TIP3    H165309   3.312   5.027  14.201 -2.2481 -0.1204 -0.4571
14606TIP3    H265310   3.250   5.049  14.338 -2.0526 -0.3439 -0.3323
14607TIP3   OH265311   5.630   0.771  14.382 -0.0296  0.6696  0.4066
14607TIP3    H165312   5.640   0.750  14.475  2.3002 -0.2175  0.0404
14607TIP3    H265313   5.682   0.850  14.369 -1.3264  1.4903  0.0542
14608TIP3   OH265314   3.625   1.284   5.385 -0.1957 -0.5343 -0.3449
14608TIP3    H165315   3.531   1.269   5.399 -0.2769  0.5510  0.4790
14608TIP3    H265316   3.658   1.201   5.351 -1.6718 -0.5851 -1.8134
14609TIP3   OH265317   6.203   0.317   5.378 -0.5820 -0.3300  0.7995
14609TIP3    H165318   6.110   0.319   5.403 -0.9421  0.8595 -0.5139
14609TIP3    H265319   6.250   0.329   5.461 -1.5850 -1.0449  1.4975
14610TIP3   OH265320   2.884   6.521   2.799  0.3328  0.5154 -0.4132
14610TIP3    H165321   2.810   6.502   2.858  0.3984  2.6302  0.4401
14610TIP3    H265322   2.874   6.458   2.728 -0.7487 -1.0061  0.9874
14611TIP3   OH265323   4.153   4.829  13.618  0.1782 -0.4216  0.0097
14611TIP3    H165324   4.248   4.839  13.618  0.1698 -0.0348  2.1423
14611TIP3    H265325   4.121   4.902  13.565  1.0737 -1.2673 -1.7971
14612TIP3   OH265326   1.970   2.486   5.484  0.1545 -0.0831  0.0738
14612TIP3    H165327   1.883   2.448   5.468  0.5165 -1.7905  1.8042
14612TIP3    H265328   1.974   2.561   5.425 -1.2856 -1.7603 -2.3434
14613TIP3   OH265329   2.610   6.718   2.002  0.0646 -0.3450  0.0748
14613TIP3    H165330   2.642   6.698   1.914 -0.4075  0.5729 -0.3272
14613TIP3    H265331   2.683   6.762   2.045 -0.7127  2.1602 -0.9929
14614TIP3   OH265332   1.614   0.835  17.166 -0.2398  0.6203 -0.0542
14614TIP3    H165333   1.562   0.870  17.094  0.1501  0.1052 -0.6011
14614TIP3    H265334   1.622   0.741  17.146 -1.2417  0.2058  1.3669
14615TIP3   OH265335   0.171   3.865   1.762  0.2628 -0.1862  0.1037
14615TIP3    H165336   0.109   3.833   1.697  1.1412 -0.1238 -0.7804
14615TIP3    H265337   0.220   3.935   1.718  1.4022 -0.6617  0.5554
14616TIP3   OH265338   0.980   3.732   0.966  0.4985  0.1385 -0.0679
14616TIP3    H165339   1.041   3.799   0.937 -0.1462  0.3883 -0.8918
14616TIP3    H265340   0.937   3.770   1.043  0.0731  0.7149 -0.5835
14617TIP3   OH265341   2.470   2.738  16.404 -0.0263  0.1807 -0.3285
14617TIP3    H165342   2.482   2.752  16.311 -1.6553 -1.0717 -0.7774
14617TIP3    H265343   2.422   2.815  16.434  1.8345  1.3328 -0.1565
14618TIP3   OH265344   0.428   4.974  11.777 -0.3090  0.8153 -0.5284
14618TIP3    H165345   0.393   4.990  11.864  0.8796  1.6722 -0.1870
14618TIP3    H265346   0.379   5.033  11.720 -0.7888  0.5636 -0.3847
14619TIP3   OH265347   1.922   6.105   6.899 -0.7563  0.4938 -0.0289
14619TIP3    H165348   1.855   6.085   6.965  0.2765 -0.1080  0.8751
14619TIP3    H265349   2.004   6.072   6.937 -0.2474 -0.7079 -1.9901
14620TIP3   OH265350   5.273   5.114  12.277 -0.1254  0.1102  0.8170
14620TIP3    H165351   5.330   5.171  12.330  0.8615 -0.1748  0.1008
14620TIP3    H265352   5.311   5.118  12.189 -2.1322  1.1316 -0.0720
14621TIP3   OH265353   2.945   0.240  12.863  0.5122  0.0767  0.1413
14621TIP3    H165354   2.976   0.306  12.926  2.4075 -1.5901  1.0539
14621TIP3    H265355   2.899   0.175  12.916 -3.2618  1.5494 -0.9869
14622TIP3   OH265356   6.621   4.271   1.196 -0.6295 -0.0132  0.3659
14622TIP3    H165357   6.630   4.197   1.257  0.4279  0.0754  0.3334
14622TIP3    H265358   6.532   4.264   1.163 -1.4035  0.1949  2.2739
14623TIP3   OH265359   3.288   4.875   3.639  0.0800 -0.3893 -0.4122
14623TIP3    H165360   3.342   4.912   3.569  1.1021 -0.7082  0.1887
14623TIP3    H265361   3.226   4.944   3.661  0.4771  0.1199 -0.8773
14624TIP3   OH265362   6.220   1.481   2.117  0.2260  0.0661  0.3470
14624TIP3    H165363   6.313   1.484   2.140  1.1928  0.2076 -3.0942
14624TIP3    H265364   6.195   1.390   2.128  0.4937  0.1601  2.0402
14625TIP3   OH265365   2.255   4.864   1.924  0.1793  0.1288 -0.2968
14625TIP3    H165366   2.229   4.778   1.956 -0.6524  0.8504  1.0847
14625TIP3    H265367   2.349   4.868   1.938  0.3048 -0.7484 -0.8649
14626TIP3   OH265368   6.101   0.446  12.567  0.2336 -0.2904 -0.0109
14626TIP3    H165369   6.180   0.395  12.587  0.0653 -0.4090  0.3687
14626TIP3    H265370   6.079   0.422  12.477  0.2639 -0.7465  0.1027
14627TIP3   OH265371   2.339   6.291  15.622  0.0456 -0.0209 -0.4381
14627TIP3    H165372   2.394   6.251  15.554 -0.8740 -0.0395 -1.1932
14627TIP3    H265373   2.279   6.221  15.649 -1.5198  0.7601 -1.7106
14628TIP3   OH265374   4.132   2.937   5.306 -0.0416  0.6826  0.0090
14628TIP3    H165375   4.216   2.923   5.261  0.1607  0.8144  0.3433
14628TIP3    H265376   4.142   2.891   5.389  0.1800  1.7677  0.6048
14629TIP3   OH265377   1.666   5.726  13.216  0.2545 -0.3266 -0.5237
14629TIP3    H165378   1.585   5.730  13.166 -0.9479 -0.7668  1.3065
14629TIP3    H265379   1.676   5.634  13.239  0.8398 -0.1500 -0.0357
14630TIP3   OH265380   0.587   0.172   1.156  0.3741  0.4422  0.0811
14630TIP3    H165381   0.550   0.091   1.192  1.5614  0.2030  0.8245
14630TIP3    H265382   0.515   0.211   1.107 -0.0042 -1.4740 -1.0155
14631TIP3   OH265383   5.246   3.026   4.547  1.0671 -0.0864  0.2164
14631TIP3    H165384   5.289   2.944   4.568 -0.1083 -1.3992 -2.1376
14631TIP3    H265385   5.163   3.001   4.506  0.9917  2.2240 -1.2849
14632TIP3   OH265386   0.785   3.313   6.094 -0.1423  0.1122 -0.1472
14632TIP3    H165387   0.783   3.231   6.044  0.2744 -0.4835  0.7859
14632TIP3    H265388   0.707   3.310   6.149  0.8152 -0.5649  1.2427
14633TIP3   OH265389   5.172   0.470   3.773 -0.7635 -0.3910 -0.1736
14633TIP3    H165390   5.117   0.548   3.772  0.1120  0.3366  1.7544
14633TIP3    H265391   5.179   0.448   3.866  2.8040  0.0668 -0.1776
14634TIP3   OH265392   3.023   5.946  10.796  0.0261  0.1661  0.0957
14634TIP3    H165393   2.997   6.003  10.868  0.3684  0.7726 -0.2563
14634TIP3    H265394   2.941   5.920  10.755 -0.2843 -1.3417  1.5532
14635TIP3   OH265395   5.686   6.144  17.142  0.3332  0.1645  0.7261
14635TIP3    H165396   5.735   6.226  17.142 -2.2736  1.9143 -1.6973
14635TIP3    H265397   5.631   6.149  17.220  0.2145  0.7257  0.6142
14636TIP3   OH265398   2.852   3.574  17.209  0.2385 -0.3313  0.0538
14636TIP3    H165399   2.943   3.587  17.180  0.2752 -2.5069 -0.9954
14636TIP3    H265400   2.805   3.650  17.173  1.2919 -0.1924 -1.1317
14637TIP3   OH265401   3.296   4.679  12.332  0.1231  0.6182  0.3030
14637TIP3    H165402   3.256   4.705  12.415  0.5718 -1.1381  1.1324
14637TIP3    H265403   3.370   4.623  12.358  1.9283  2.1411 -1.2153
14638TIP3   OH265404   1.478   5.280  12.967  0.6870 -0.5238  0.0812
14638TIP3    H165405   1.425   5.282  12.886 -1.8282 -1.6868  1.5749
14638TIP3    H265406   1.442   5.352  13.020  2.1308  0.0545  0.3177
14639TIP3   OH265407   0.521   4.602  17.161 -0.3636  0.8604 -0.4990
14639TIP3    H165408   0.483   4.591  17.247  1.3298 -0.2353  0.1663
14639TIP3    H265409   0.519   4.515  17.122  0.4868  0.9814 -0.8437
14640TIP3   OH265410   5.599   0.675  11.336 -0.3887 -0.0990  0.0579
14640TIP3    H165411   5.581   0.653  11.427 -0.1058  2.4644  0.8096
14640TIP3    H265412   5.694   0.667  11.328 -0.1483  1.7446  0.6534
14641TIP3   OH265413   2.175   5.789   2.236 -0.0154 -0.2207  0.3489
14641TIP3    H165414   2.187   5.707   2.284  1.5551  0.3959  1.0490
14641TIP3    H265415   2.245   5.790   2.172 -1.4074 -0.4814 -1.2473
14642TIP3   OH265416   1.050   2.959   0.952  0.2375  0.2142  0.3496
14642TIP3    H165417   0.955   2.948   0.950  0.1580  0.7921  0.8032
14642TIP3    H265418   1.076   2.935   1.041  0.6108 -0.6157  0.0309
14643TIP3   OH265419   3.660   1.073   1.642 -0.3297  0.2163 -0.1469
14643TIP3    H165420   3.752   1.050   1.637 -0.4791 -0.2612 -0.9277
14643TIP3    H265421   3.653   1.155   1.594 -0.2891  0.3112  0.0109
14644TIP3   OH265422   4.073   1.841  13.239  0.5036 -0.1864  0.6367
14644TIP3    H165423   3.998   1.824  13.182 -0.3079  0.9358  1.3320
14644TIP3    H265424   4.148   1.806  13.191 -0.3702 -0.7448 -0.3674
14645TIP3   OH265425   4.746   2.592  13.762 -0.0386 -0.0811 -0.4991
14645TIP3    H165426   4.829   2.562  13.726 -0.2744 -0.9394 -0.3313
14645TIP3    H265427   4.757   2.583  13.857 -0.5301 -0.7512 -0.5017
14646TIP3   OH265428   0.967   2.019   0.843  0.4422 -0.4396 -0.3871
14646TIP3    H165429   0.874   1.998   0.835  0.6215 -0.7434 -2.0736
14646TIP3    H265430   0.997   2.032   0.752  2.4272 -2.1043 -0.0472
14647TIP3   OH265431   0.646   3.848   0.741 -0.3310  0.8630 -0.4575
14647TIP3    H165432   0.603   3.831   0.826 -0.8189  0.6787 -0.7369
14647TIP3    H265433   0.728   3.799   0.746 -0.2344  1.0691  0.0160
14648TIP3   OH265434   3.339   3.370   4.990  0.2688  0.1906 -0.1224
14648TIP3    H165435   3.286   3.413   5.057  0.6129  0.3263  0.0642
14648TIP3    H265436   3.278   3.309   4.946  0.1230 -0.1396  0.5290
14649TIP3   OH265437   3.241   6.486   0.978  0.5898 -0.4090  0.3739
14649TIP3    H165438   3.160   6.448   1.013 -0.4333  1.3686  0.0760
14649TIP3    H265439   3.248   6.450   0.890 -0.3411  0.0100  0.1107
14650TIP3   OH265440   0.779   5.707  16.743  0.2724 -0.5834  0.2915
14650TIP3    H165441   0.755   5.682  16.654 -0.5484 -0.7674  0.5488
14650TIP3    H265442   0.711   5.666  16.798 -0.3971  1.1626  0.8360
14651TIP3   OH265443   4.444   5.114  12.115  0.0282 -0.1405 -0.3093
14651TIP3    H165444   4.515   5.049  12.120  1.2509  1.2379  2.7160
14651TIP3    H265445   4.371   5.073  12.161 -0.7725 -0.9976 -2.2150
14652TIP3   OH265446   2.918   5.137  15.946 -0.2078  0.2379 -0.3213
14652TIP3    H165447   2.845   5.153  16.006 -0.5257  1.0005 -0.8951
14652TIP3    H265448   2.915   5.210  15.885  0.2736 -0.3830 -1.1071
14653TIP3   OH265449   1.014   5.054  11.747 -0.5386 -0.0523  0.7163
14653TIP3    H165450   0.947   5.115  11.716 -0.6403 -0.5326 -0.0318
14653TIP3    H265451   1.029   4.995  11.673  0.3388 -0.2702  1.0570
14654TIP3   OH265452   3.366   2.980  14.299 -0.3664  0.3823 -0.3375
14654TIP3    H165453   3.337   3.067  14.272  1.7647  1.3947  0.3665
14654TIP3    H265454   3.399   2.992  14.388 -2.8715 -1.8517  1.0427
14655TIP3   OH265455   4.792   3.833   4.528  0.3766  0.2565 -0.2922
14655TIP3    H165456   4.802   3.885   4.448  0.5327  0.7196  0.0267
14655TIP3    H265457   4.861   3.767   4.523  1.2753  1.1354  0.1148
14656TIP3   OH265458   0.317   3.467  15.448 -0.1741  0.1536  0.0569
14656TIP3    H165459   0.371   3.392  15.421  0.1222  0.2147  0.4807
14656TIP3    H265460   0.270   3.492  15.368 -0.2988 -0.5017 -0.0832
14657TIP3   OH265461   0.817   4.251   4.994 -0.2466  0.3609 -0.7140
14657TIP3    H165462   0.897   4.278   5.039 -0.0013  1.2538 -1.6464
14657TIP3    H265463   0.773   4.194   5.057  1.5356 -0.8852 -0.5100
14658TIP3   OH265464   1.252   6.189  17.299 -0.0603  0.4162  0.1092
14658TIP3    H165465   1.156   6.184  17.304 -0.0256  0.0700  0.4029
14658TIP3    H265466   1.269   6.219  17.210 -0.4312  0.0577 -0.0874
14659TIP3   OH265467   6.218   2.593  12.307  0.3983  0.2098  0.5069
14659TIP3    H165468   6.199   2.604  12.400  0.9257 -3.1512  1.1416
14659TIP3    H265469   6.135   2.564  12.269  0.1852  1.5646 -0.1421
14660TIP3   OH265470   1.019   4.390  12.497 -1.1559  0.1582  0.4592
14660TIP3    H165471   1.019   4.486  12.490  2.0092  0.1043 -2.8777
14660TIP3    H265472   0.945   4.363  12.443 -0.5593  0.7354 -0.6931
14661TIP3   OH265473   1.575   1.230  13.402 -0.1637  1.6754  0.2498
14661TIP3    H165474   1.560   1.295  13.470 -0.4339  3.8577 -1.7820
14661TIP3    H265475   1.636   1.168  13.442 -1.8084  1.7205  3.1105
14662TIP3   OH265476   3.526   4.311  14.247 -0.1490 -0.2106  0.0603
14662TIP3    H165477   3.551   4.262  14.325  2.8382  2.7355  1.1981
14662TIP3    H265478   3.468   4.380  14.279 -0.5657 -0.1830 -0.7151
14663TIP3   OH265479   1.231   3.430  11.367  0.0681 -0.4817  0.0983
14663TIP3    H165480   1.305   3.390  11.412 -0.1417 -0.9740  0.0060
14663TIP3    H265481   1.265   3.449  11.279  0.3349  0.0539  0.3110
14664TIP3   OH265482   4.692   6.254  11.311  0.2569  0.1130  0.7698
14664TIP3    H165483   4.607   6.244  11.269  1.5056  0.9517 -2.2917
14664TIP3    H265484   4.683   6.210  11.395 -2.9447 -0.4508  0.2687
14665TIP3   OH265485   5.658   2.835   4.665 -0.5601  0.2938 -0.1161
14665TIP3    H165486   5.699   2.887   4.733 -0.1997  1.2030 -1.0043
14665TIP3    H265487   5.599   2.776   4.712  0.1696  0.4377  1.0153
14666TIP3   OH265488   4.030   6.264   3.290 -0.1415  0.5818 -0.2562
14666TIP3    H165489   4.016   6.223   3.204 -0.6590  1.0869 -0.4254
14666TIP3    H265490   4.065   6.351   3.269  0.2811  0.4902  0.0680
14667TIP3   OH265491   3.213   2.077   2.519  0.6771 -0.2970 -0.0097
14667TIP3    H165492   3.307   2.064   2.505  0.7311 -1.2860  1.0803
14667TIP3    H265493   3.207   2.110   2.609 -0.1327 -2.7391  0.9276
14668TIP3   OH265494   4.447   4.939  15.367  0.2525  0.2828 -0.6766
14668TIP3    H165495   4.504   4.862  15.364  0.2670  0.1283  1.7720
14668TIP3    H265496   4.454   4.971  15.457 -4.6477 -0.6596  0.3118
14669TIP3   OH265497   4.395   6.017   4.396 -0.0935 -0.2763  0.3404
14669TIP3    H165498   4.480   5.976   4.414  1.0637  1.1686 -1.4914
14669TIP3    H265499   4.365   6.049   4.481 -0.1244 -3.0870  1.5032
14670TIP3   OH265500   4.779   5.999   5.555  0.1812  0.0408 -0.0641
14670TIP3    H165501   4.841   5.952   5.611 -0.9231 -0.1282  1.0541
14670TIP3    H265502   4.816   5.991   5.467  2.4706  1.1490  0.7308
14671TIP3   OH265503   2.852   3.636   5.137 -0.2963  0.1012  0.9860
14671TIP3    H165504   2.789   3.569   5.161  0.6974 -0.6218  1.6649
14671TIP3    H265505   2.920   3.631   5.204  0.4411  0.9214  0.3342
14672TIP3   OH265506   0.113   5.325   4.904 -0.4064  0.4501  0.3408
14672TIP3    H165507   0.074   5.307   4.818 -2.7754 -0.4738  1.5349
14672TIP3    H265508   0.158   5.244   4.927  3.1261  1.7192 -1.3266
14673TIP3   OH265509   6.566   5.243  12.985  0.2327  0.2671  0.0683
14673TIP3    H165510   6.607   5.238  13.071 -0.7624  0.1406  0.5451
14673TIP3    H265511   6.520   5.328  12.985  0.6956  0.5229 -0.5504
14674TIP3   OH265512   5.680   0.692   5.449  0.6302 -0.1192  0.4469
14674TIP3    H165513   5.648   0.782   5.442 -1.1568 -0.6965  0.7208
14674TIP3    H265514   5.720   0.674   5.364 -1.3653  0.0986 -0.5988
14675TIP3   OH265515   5.562   6.446   0.602 -0.5963 -0.2499 -0.7599
14675TIP3    H165516   5.524   6.414   0.684 -1.9027  1.7227 -0.5540
14675TIP3    H265517   5.642   6.492   0.629 -1.1216  0.5566 -0.5518
14676TIP3   OH265518   5.184   4.309   5.694  0.9334 -0.9202 -0.5034
14676TIP3    H165519   5.093   4.338   5.698  0.8431 -1.2389 -0.1886
14676TIP3    H265520   5.233   4.387   5.666  0.6599 -0.5389  0.0610
14677TIP3   OH265521   6.624   0.727   0.740  0.3351 -0.1087  0.0378
14677TIP3    H165522   6.687   0.658   0.720 -1.7362 -2.0986 -0.0414
14677TIP3    H265523   6.539   0.682   0.743 -0.7739  1.8355  3.1138
14678TIP3   OH265524   3.733   5.359   6.560  0.0094  0.0683  0.0195
14678TIP3    H165525   3.808   5.361   6.619  1.0930  0.9044 -1.3307
14678TIP3    H265526   3.694   5.272   6.575  1.1074 -0.3027  0.8984
14679TIP3   OH265527   6.116   2.913  11.678 -0.7077 -0.4028  0.3651
14679TIP3    H165528   6.149   2.833  11.720 -0.0052 -0.8616 -0.9926
14679TIP3    H265529   6.174   2.982  11.711  0.1484 -0.8346 -0.1710
14680TIP3   OH265530   5.590   6.392  13.810 -0.7045 -0.1290  0.6696
14680TIP3    H165531   5.658   6.328  13.786 -1.8527 -2.0349  2.1565
14680TIP3    H265532   5.565   6.433  13.727 -0.0851 -1.8170 -0.4073
14681TIP3   OH265533   4.681   1.422  10.637  0.1334  0.4053 -0.2279
14681TIP3    H165534   4.743   1.377  10.580 -0.8448  0.7342 -1.6149
14681TIP3    H265535   4.641   1.489  10.581  0.6555  2.2096  1.4147
14682TIP3   OH265536   3.526   6.067  16.932 -0.2637  0.3228  0.2757
14682TIP3    H165537   3.489   6.025  16.855 -2.2730  0.7476  0.9576
14682TIP3    H265538   3.619   6.078  16.911 -0.6861  0.0858 -1.9090
14683TIP3   OH265539   5.641   5.891   1.390  0.2526 -0.3459  0.0505
14683TIP3    H165540   5.684   5.946   1.456  0.5986  2.1690 -2.1319
14683TIP3    H265541   5.549   5.914   1.396  0.3330  0.1601 -0.5490
14684TIP3   OH265542   3.653   1.013   5.662  0.3424  0.2035 -0.8731
14684TIP3    H165543   3.611   0.977   5.584 -0.2162  0.2714 -0.6096
14684TIP3    H265544   3.616   0.962   5.734  1.8563 -0.7985 -0.7343
14685TIP3   OH265545   3.055   2.291   1.948 -0.0534 -0.3541  0.2949
14685TIP3    H165546   3.131   2.301   1.892 -0.0921  1.7375  0.5163
14685TIP3    H265547   3.047   2.376   1.993 -2.6175 -0.4116  0.1151
14686TIP3   OH265548   0.570   2.988  12.788 -0.2441  0.2046  0.5999
14686TIP3    H165549   0.653   3.034  12.792 -0.6902  1.4358 -2.0901
14686TIP3    H265550   0.590   2.906  12.743 -0.7583  1.6124 -2.4695
14687TIP3   OH265551   4.687   2.581  14.739  0.4572  0.0317 -0.0239
14687TIP3    H165552   4.639   2.646  14.789 -1.4587 -0.4714 -1.0904
14687TIP3    H265553   4.670   2.498  14.785  0.5731 -0.1131 -0.2396
14688TIP3   OH265554   4.820   6.533   0.621 -0.3026 -0.0533 -0.3145
14688TIP3    H165555   4.881   6.462   0.640  0.3176  0.4543 -0.3794
14688TIP3    H265556   4.802   6.524   0.527 -1.5517 -1.1405 -0.0024
14689TIP3   OH265557   5.424   6.122  12.423  0.2493  0.0192 -0.2058
14689TIP3    H165558   5.381   6.177  12.358 -0.1194 -1.0492 -0.8870
14689TIP3    H265559   5.389   6.152  12.507 -0.6783  0.1680 -0.6351
14690TIP3   OH265560   1.194   5.529  16.666  0.3963  0.1187  0.6655
14690TIP3    H165561   1.277   5.514  16.621 -0.7044 -0.8930 -1.1594
14690TIP3    H265562   1.183   5.624  16.667  1.7050  0.2806  1.2298
14691TIP3   OH265563   3.208   0.513  16.424 -0.6480  0.3236  0.5348
14691TIP3    H165564   3.205   0.418  16.434  0.2431  0.2245 -0.0153
14691TIP3    H265565   3.200   0.547  16.513  0.9167 -0.3331  0.9550
14692TIP3   OH265566   4.596   0.651   0.252  0.5767 -0.1217 -0.4428
14692TIP3    H165567   4.685   0.685   0.245  0.7576 -0.9312 -2.8006
14692TIP3    H265568   4.555   0.672   0.168 -1.0754 -0.8339  0.1445
14693TIP3   OH265569   4.254   3.103  15.482 -0.1243 -0.2699  0.0243
14693TIP3    H165570   4.272   3.197  15.491  0.6359 -0.3942 -0.0779
14693TIP3    H265571   4.243   3.072  15.571  0.3650 -0.2159  0.1058
14694TIP3   OH265572   0.031   0.455  11.537  0.3773  0.5318  0.5936
14694TIP3    H165573   0.007   0.363  11.543  1.6001  0.2207  0.9548
14694TIP3    H265574   0.094   0.459  11.465 -0.3151  1.2448 -0.0045
14695TIP3   OH265575   0.808   5.545  16.472  0.0376 -0.3736  0.6941
14695TIP3    H165576   0.737   5.599  16.506  0.1485  0.4303 -0.3218
14695TIP3    H265577   0.768   5.491  16.404  0.1803 -0.7237  0.8803
14696TIP3   OH265578   0.591   4.269   0.636 -0.0168  0.2268 -0.0682
14696TIP3    H165579   0.587   4.328   0.712 -0.0102  2.2082 -1.5198
14696TIP3    H265580   0.511   4.289   0.587 -0.2000 -1.2804 -0.4252
14697TIP3   OH265581   3.810   5.129  15.985 -0.1995 -0.3305  0.5120
14697TIP3    H165582   3.777   5.083  16.062 -1.4034 -0.3641 -0.0045
14697TIP3    H265583   3.882   5.075  15.953  0.1238 -0.4649  1.4383
14698TIP3   OH265584   0.779   2.710   0.585  0.6924 -0.6035 -0.1069
14698TIP3    H165585   0.864   2.754   0.588  0.4583  0.0691 -2.2792
14698TIP3    H265586   0.792   2.639   0.522 -0.3603 -0.5053 -0.4391
14699TIP3   OH265587   6.134   5.691   4.810  0.1128  0.3402 -0.1456
14699TIP3    H165588   6.042   5.705   4.833 -0.0675 -1.6368  0.5667
14699TIP3    H265589   6.138   5.600   4.780  1.6392  0.7463 -1.3301
14700TIP3   OH265590   5.983   4.730  11.230  0.5000  0.2645  0.6316
14700TIP3    H165591   5.902   4.730  11.179  1.1162  0.2062 -0.3750
14700TIP3    H265592   6.031   4.653  11.197  1.2429  0.6749  0.7482
14701TIP3   OH265593   1.771   1.826  15.344 -0.5348 -0.0456 -0.1090
14701TIP3    H165594   1.815   1.803  15.262  0.5590  1.9886 -0.1631
14701TIP3    H265595   1.721   1.748  15.367  0.5784 -1.3225 -1.7486
14702TIP3   OH265596   5.188   0.964   4.988 -0.2211  0.2280  0.3376
14702TIP3    H165597   5.187   0.960   5.084 -1.2561 -0.3987  0.3216
14702TIP3    H265598   5.206   1.055   4.968 -0.4319  0.4576  1.1399
14703TIP3   OH265599   0.922   4.996   4.638  0.2338 -0.0640  0.1105
14703TIP3    H165600   0.872   5.059   4.586  0.2193  0.3375  0.5947
14703TIP3    H265601   0.874   4.992   4.721  1.6001  1.1952  1.0201
14704TIP3   OH265602   5.191   5.129  16.083 -0.2119 -0.0841  0.6131
14704TIP3    H165603   5.172   5.037  16.067 -0.3232 -0.4732  2.6575
14704TIP3    H265604   5.109   5.174  16.065 -0.3766 -0.4832  0.3470
14705TIP3   OH265605   5.169   1.791  12.135  0.8047  0.5278 -0.0435
14705TIP3    H165606   5.177   1.870  12.081  2.1415  0.0631 -0.5890
14705TIP3    H265607   5.130   1.727  12.076  2.6230 -0.0934 -0.6541
14706TIP3   OH265608   4.149   3.824   1.008  0.1053 -0.5674 -0.3240
14706TIP3    H165609   4.233   3.847   1.047  0.4168  0.1674 -1.3690
14706TIP3    H265610   4.103   3.908   1.000 -0.8258 -0.9865  0.4224
14707TIP3   OH265611   0.047   0.317  15.514 -0.2104  0.2226  0.6743
14707TIP3    H165612  -0.043   0.346  15.501 -0.3757 -0.9969 -1.2456
14707TIP3    H265613   0.074   0.282  15.429  1.7025 -0.4926  1.5100
14708TIP3   OH265614   6.022   5.279  12.824 -0.0794  0.1232  0.4531
14708TIP3    H165615   5.995   5.367  12.799 -1.5289 -0.2964  0.4691
14708TIP3    H265616   6.056   5.289  12.913 -0.1492  0.6818  0.4193
14709TIP3   OH265617   4.321   5.346   3.757  0.4181  0.1219 -0.5725
14709TIP3    H165618   4.412   5.314   3.757  0.1976 -0.6443  1.5623
14709TIP3    H265619   4.269   5.268   3.739  0.0320 -0.1930  1.7107
14710TIP3   OH265620   1.128   5.732   3.598  0.1343 -0.2410 -0.2441
14710TIP3    H165621   1.129   5.660   3.661  2.0513 -1.7526 -1.8689
14710TIP3    H265622   1.070   5.702   3.528  0.2564  0.1741 -0.5296
14711TIP3   OH265623   4.718   6.227  12.404  0.0095 -0.0280  0.5988
14711TIP3    H165624   4.729   6.252  12.496 -0.4473 -2.7589  1.4948
14711TIP3    H265625   4.807   6.218  12.370  0.1810  0.7281  0.8206
14712TIP3   OH265626   2.375   4.565   2.572  0.2797  0.0223  0.0150
14712TIP3    H165627   2.324   4.646   2.574  0.3405  0.0739 -0.5104
14712TIP3    H265628   2.401   4.555   2.481  0.1656 -0.6608  0.0532
14713TIP3   OH265629   5.658   4.498   5.282 -0.3090 -0.2607 -0.0765
14713TIP3    H165630   5.610   4.415   5.285 -0.9749  0.0663 -1.2419
14713TIP3    H265631   5.622   4.548   5.356 -1.7547 -0.0518 -0.8793
14714TIP3   OH265632   0.395   4.476   2.362 -0.3326 -0.0064 -0.2581
14714TIP3    H165633   0.401   4.381   2.377  0.7265  0.0830 -0.0900
14714TIP3    H265634   0.368   4.511   2.447 -1.6725 -0.2380 -0.5669
14715TIP3   OH265635   4.747   3.606   1.023 -0.2871 -0.2005  0.2350
14715TIP3    H165636   4.655   3.629   1.035 -0.1181  0.4989  0.2430
14715TIP3    H265637   4.757   3.592   0.929 -0.5798 -1.0942  0.3285
14716TIP3   OH265638   2.563   2.200   6.506  0.8657 -0.5097 -0.0480
14716TIP3    H165639   2.548   2.282   6.553  0.3833 -1.1186  0.9002
14716TIP3    H265640   2.556   2.223   6.414  0.1845  0.4140  0.2220
14717TIP3   OH265641   0.467   6.246  10.718  0.2460 -0.2277 -0.0552
14717TIP3    H165642   0.452   6.338  10.700  1.0308  0.0489  0.6483
14717TIP3    H265643   0.386   6.203  10.692 -0.0495  0.6257 -0.5905
14718TIP3   OH265644   3.760   1.943   6.708 -0.2424  0.7903  0.0992
14718TIP3    H165645   3.731   1.925   6.619 -0.0391 -0.2251  0.2274
14718TIP3    H265646   3.809   1.865   6.734 -0.7909  0.8164  1.3102
14719TIP3   OH265647   2.108   4.907   0.066 -0.0752  0.2709  0.3276
14719TIP3    H165648   2.134   4.816   0.049 -2.0355 -0.3564  0.3926
14719TIP3    H265649   2.187   4.949   0.099  0.8708 -1.4316  0.3529
14720TIP3   OH265650   5.526   4.189  15.963  0.1733  0.4139 -0.8560
14720TIP3    H165651   5.436   4.191  15.931  0.2888  1.0453 -1.1612
14720TIP3    H265652   5.524   4.241  16.044  0.4952  1.4898 -1.5167
14721TIP3   OH265653   2.968   1.467   1.660 -0.0929 -0.2509 -0.2085
14721TIP3    H165654   2.964   1.520   1.580 -1.9653 -0.3543 -0.2283
14721TIP3    H265655   2.983   1.378   1.629  1.5250  0.0067 -0.2647
14722TIP3   OH265656   0.672   3.832  15.591  0.1842 -0.3387  0.3442
14722TIP3    H165657   0.583   3.797  15.591  0.3817 -0.8833 -1.0077
14722TIP3    H265658   0.681   3.875  15.506  1.7449 -1.7455 -0.2453
14723TIP3   OH265659   1.851   1.344   3.507  0.3859 -0.3781 -0.3925
14723TIP3    H165660   1.832   1.251   3.494 -0.9936 -0.6352  2.6366
14723TIP3    H265661   1.777   1.376   3.559  2.3287  1.6724  1.2721
14724TIP3   OH265662   6.368   1.221   0.399  0.2576 -1.2075  0.1496
14724TIP3    H165663   6.311   1.218   0.476  1.0440 -1.4448  0.7318
14724TIP3    H265664   6.362   1.134   0.361 -1.4070 -0.6353 -1.0298
14725TIP3   OH265665   3.114   5.376   0.216 -0.3195  0.0863  0.3523
14725TIP3    H165666   3.172   5.449   0.238 -0.5685  0.1247  0.8957
14725TIP3    H265667   3.026   5.410   0.234 -0.5674  0.2676 -1.1197
14726TIP3   OH265668   0.109   0.003   2.797  1.0079  0.1934  0.1749
14726TIP3    H165669   0.094   0.058   2.719  0.8520 -0.1941 -0.0695
14726TIP3    H265670   0.093  -0.086   2.767  0.1490  0.1071  0.8657
14727TIP3   OH265671   4.055   6.755   4.443  0.3841 -0.2186 -0.4715
14727TIP3    H165672   4.145   6.738   4.469  0.3041  0.3405  0.2097
14727TIP3    H265673   4.054   6.847   4.417  0.3042 -0.5788 -1.8245
14728TIP3   OH265674   5.210   3.836   6.536  0.7794  0.6212  0.0765
14728TIP3    H165675   5.260   3.918   6.534 -0.3591  1.3760  1.0569
14728TIP3    H265676   5.200   3.817   6.629  0.4136 -0.2498 -0.1378
14729TIP3   OH265677   2.080   2.340   3.368 -0.0327  0.7576  0.2814
14729TIP3    H165678   1.993   2.379   3.370  0.3956  1.7109  0.7805
14729TIP3    H265679   2.122   2.378   3.291 -0.1507  0.0643 -0.1363
14730TIP3   OH265680   6.499   0.962   1.815 -0.3788  0.3993 -0.1255
14730TIP3    H165681   6.521   0.873   1.787 -3.7469 -0.5108 -0.3023
14730TIP3    H265682   6.558   1.018   1.763  0.5459 -1.6317 -1.4216
14731TIP3   OH265683   3.937   1.460   5.711 -0.0726  0.0589  0.1597
14731TIP3    H165684   3.892   1.541   5.686 -0.9476  0.5965  3.1405
14731TIP3    H265685   3.886   1.391   5.668  0.0172  0.9915 -1.5204
14732TIP3   OH265686   6.261   0.445  11.161 -0.3515  0.4162 -0.4670
14732TIP3    H165687   6.174   0.472  11.130  0.1586  2.0996 -0.5008
14732TIP3    H265688   6.322   0.506  11.119  1.0901 -1.8585 -1.9500
14733TIP3   OH265689   3.159   2.948  11.838  0.0319 -0.1258  0.0664
14733TIP3    H165690   3.125   2.931  11.926 -1.3692  2.7021  0.1845
14733TIP3    H265691   3.238   2.999  11.853  0.3423 -0.4861 -0.3268
14734TIP3   OH265692   1.487   4.545   0.801  0.0035  0.3145 -0.2766
14734TIP3    H165693   1.431   4.471   0.776 -2.6720  1.5603  1.5046
14734TIP3    H265694   1.550   4.509   0.863 -0.0015 -0.8139 -0.9060
14735TIP3   OH265695   3.835   3.722  14.197  0.2387 -0.3475  0.3623
14735TIP3    H165696   3.763   3.755  14.143 -0.9079 -1.7176  1.0108
14735TIP3    H265697   3.796   3.703  14.282  1.6290 -0.0001  1.1175
14736TIP3   OH265698   2.871   5.544  14.148  0.0470  0.1542  0.4672
14736TIP3    H165699   2.925   5.575  14.074 -2.2370  1.3389 -0.8059
14736TIP3    H265700   2.847   5.454  14.124  0.6619 -0.0458  0.5853
14737TIP3   OH265701   2.994   4.514  14.969  0.7065  0.4009 -0.2945
14737TIP3    H165702   3.044   4.553  15.041  0.0770  2.8171 -1.0831
14737TIP3    H265703   2.940   4.586  14.935 -3.3167 -1.9113  0.4420
14738TIP3   OH265704   5.845   2.726  17.214  0.0709  0.5955 -0.2840
14738TIP3    H165705   5.940   2.731  17.204  0.0816  0.4526 -0.2535
14738TIP3    H265706   5.814   2.815  17.195  0.3077  0.9123  0.7841
14739TIP3   OH265707   0.255   3.975  17.072 -0.3081  0.2105 -0.0445
14739TIP3    H165708   0.272   3.997  16.980 -0.3774  1.7665  0.2930
14739TIP3    H265709   0.332   3.926  17.100 -0.9834 -1.7200 -1.3522
14740TIP3   OH265710   3.434   6.221  17.155  0.3493 -0.1550 -0.3837
14740TIP3    H165711   3.435   6.169  17.235  0.8674  0.1744 -0.1663
14740TIP3    H265712   3.411   6.159  17.085  1.1722 -0.7175 -0.1636
14741TIP3   OH265713   3.638   3.802   4.328  0.1826 -0.8978 -0.0853
14741TIP3    H165714   3.710   3.849   4.285  1.4818 -0.5189  2.3143
14741TIP3    H265715   3.679   3.721   4.361 -1.3318 -2.3344 -1.5906
14742TIP3   OH265716   6.357   2.526  15.948  0.4268 -0.4679  0.0884
14742TIP3    H165717   6.392   2.442  15.920  2.0413  0.3211 -0.4203
14742TIP3    H265718   6.366   2.525  16.044  0.8796 -0.7106  0.0487
14743TIP3   OH265719   2.170   2.485  14.992 -0.0352 -0.4798 -0.4021
14743TIP3    H165720   2.232   2.431  15.041 -0.6027  0.6759  1.6926
14743TIP3    H265721   2.220   2.564  14.970 -0.6196  0.3286  1.0412
14744TIP3   OH265722   6.054   6.750   0.683  0.0576 -0.0437 -0.4480
14744TIP3    H165723   6.136   6.719   0.644  0.6371  1.4556 -0.5061
14744TIP3    H265724   6.078   6.833   0.725 -1.6716  1.0157 -1.4550
14745TIP3   OH265725   0.560   3.937   5.529  0.2216 -0.2779  0.4580
14745TIP3    H165726   0.472   3.955   5.563 -1.0336  1.9810 -3.3563
14745TIP3    H265727   0.548   3.861   5.472  0.4333  0.6402 -0.8594
14746TIP3   OH265728   4.067   3.944  11.225  0.2888  0.4544  0.1510
14746TIP3    H165729   4.077   4.033  11.193 -0.5356  0.4988  0.0009
14746TIP3    H265730   4.104   3.946  11.313  2.1827  0.4312 -0.5987
14747TIP3   OH265731   0.060   2.985  15.687 -0.6619 -0.1345 -0.0933
14747TIP3    H165732   0.033   2.961  15.775 -2.6252  0.2276 -0.5471
14747TIP3    H265733   0.007   3.062  15.665 -0.1075 -0.1185 -1.5271
14748TIP3   OH265734   0.284   4.596   5.773 -0.0089  0.1761 -0.5049
14748TIP3    H165735   0.251   4.511   5.802 -0.4659  0.6490  0.4556
14748TIP3    H265736   0.372   4.602   5.809  0.1213 -0.0024 -0.7976
14749TIP3   OH265737   4.529   1.655  13.009  0.0730  0.1323 -0.1126
14749TIP3    H165738   4.608   1.708  13.022  0.7564 -0.9388  0.2704
14749TIP3    H265739   4.490   1.690  12.929  2.3247 -0.9081 -1.7721
14750TIP3   OH265740   3.263   4.914  11.650  0.1274 -0.2718 -0.2563
14750TIP3    H165741   3.198   4.962  11.599 -0.6095 -2.5858 -1.6938
14750TIP3    H265742   3.222   4.898  11.734  0.2823  1.3087  0.1376
14751TIP3   OH265743   0.514   4.774  11.260  0.5823  0.4574 -0.7183
14751TIP3    H165744   0.487   4.752  11.171  1.2800 -1.9036 -0.4208
14751TIP3    H265745   0.482   4.700  11.313 -0.6407  2.2333  1.1690
14752TIP3   OH265746   2.781   2.310   3.914  0.3097 -0.2046 -0.1623
14752TIP3    H165747   2.800   2.293   3.822 -1.2393  0.7930 -0.7066
14752TIP3    H265748   2.723   2.238   3.940  0.0161  0.0070 -0.2304
14753TIP3   OH265749   5.356   2.183  12.742 -0.3360  0.3634 -0.3168
14753TIP3    H165750   5.425   2.250  12.748 -0.8431  0.7878  1.2876
14753TIP3    H265751   5.282   2.228  12.702 -0.3055  0.4526 -0.2733
14754TIP3   OH265752   5.410   4.233   0.770  0.3737  0.7735 -0.0673
14754TIP3    H165753   5.387   4.282   0.849 -0.9860 -0.4535  0.3506
14754TIP3    H265754   5.458   4.157   0.803  0.6391  0.7485 -0.5056
14755TIP3   OH265755   0.739   2.557  12.018  0.1929  0.6095  1.1161
14755TIP3    H165756   0.821   2.576  11.971 -1.4361  0.4124 -2.1151
14755TIP3    H265757   0.692   2.640  12.017 -0.6644  0.1327  0.6345
14756TIP3   OH265758   6.476   2.664  17.206  0.2603 -0.1715  0.0381
14756TIP3    H165759   6.475   2.759  17.202 -2.8651 -0.0652  0.5136
14756TIP3    H265760   6.417   2.636  17.135  0.4082 -1.6825  0.4626
14757TIP3   OH265761   0.916   5.751  15.159  0.0355 -0.2162  0.5110
14757TIP3    H165762   1.008   5.724  15.161 -0.2744 -1.5322 -1.2328
14757TIP3    H265763   0.870   5.678  15.118 -2.3820 -1.0947  4.2798
14758TIP3   OH265764   1.404   3.211   5.124  0.0487 -0.1345  0.0557
14758TIP3    H165765   1.428   3.300   5.150  0.1378  0.1320 -0.8947
14758TIP3    H265766   1.310   3.215   5.109  0.1172 -0.0855 -0.3866
14759TIP3   OH265767   4.599   3.981  11.942  0.0640 -0.2667 -0.1409
14759TIP3    H165768   4.602   3.970  11.847 -1.1334  2.8081 -0.6323
14759TIP3    H265769   4.650   4.060  11.959 -2.2044  0.9871  1.3629
14760TIP3   OH265770   2.138   5.943   5.510  0.0200  0.2458 -0.1049
14760TIP3    H165771   2.083   5.867   5.491 -0.3409  0.0250  1.6142
14760TIP3    H265772   2.224   5.907   5.528 -0.5066 -0.0090  2.2944
14761TIP3   OH265773   5.126   5.536   0.385 -0.1504 -0.1451  0.1497
14761TIP3    H165774   5.175   5.570   0.310  0.9550  0.7629  1.2505
14761TIP3    H265775   5.046   5.588   0.387  0.4445  0.7806  0.4016
14762TIP3   OH265776   1.111   5.248   4.950  0.2290  0.0094 -0.1870
14762TIP3    H165777   1.142   5.176   5.006  1.5202  0.1113 -0.7331
14762TIP3    H265778   1.018   5.230   4.936  0.8051 -2.3641 -1.4690
14763TIP3   OH265779   5.218   2.139  16.746  0.3350  0.0583 -0.5545
14763TIP3    H165780   5.276   2.095  16.683  0.2069  0.3260 -0.8608
14763TIP3    H265781   5.239   2.098  16.830  0.3584 -0.4533 -0.8020
14764TIP3   OH265782   6.213   1.672   6.135 -0.2835  0.2987  0.2447
14764TIP3    H165783   6.222   1.604   6.202  1.6641  1.7310  1.5453
14764TIP3    H265784   6.121   1.696   6.138 -1.1548 -2.5643 -0.6203
14765TIP3   OH265785   5.851   5.672  15.444  0.1888 -0.0345  0.2899
14765TIP3    H165786   5.853   5.583  15.408  0.2429  0.2619 -0.4541
14765TIP3    H265787   5.846   5.659  15.539 -0.3997 -0.8329  0.1664
14766TIP3   OH265788   1.775   2.305   0.903  0.0293 -0.4615  0.1373
14766TIP3    H165789   1.717   2.317   0.978  0.6176 -0.1351  0.5473
14766TIP3    H265790   1.764   2.385   0.852 -2.4403 -1.7781 -1.6103
14767TIP3   OH265791   0.556   0.833  14.328  0.3173  0.6697 -0.1503
14767TIP3    H165792   0.490   0.902  14.317  0.5288  1.0263  0.6922
14767TIP3    H265793   0.525   0.761  14.273  0.1358  1.4641 -1.1016
14768TIP3   OH265794   6.351   0.780  10.258 -0.0271  0.4693 -0.5940
14768TIP3    H165795   6.292   0.832  10.312 -1.9240 -0.9452 -1.1925
14768TIP3    H265796   6.376   0.706  10.315 -1.2079 -0.4731 -1.2493
14769TIP3   OH265797   4.444   4.662  14.792 -0.0070 -0.3272 -0.4449
14769TIP3    H165798   4.478   4.599  14.856 -0.5430 -1.0523 -0.8535
14769TIP3    H265799   4.382   4.611  14.739 -1.4970  0.8893  0.0734
14770TIP3   OH265800   3.689   3.868  15.114  0.1604 -0.4757 -0.1364
14770TIP3    H165801   3.613   3.890  15.059 -2.4694 -3.5365  1.9063
14770TIP3    H265802   3.712   3.950  15.157 -1.4485  0.7473 -1.4580
14771TIP3   OH265803   6.702   1.750   2.312  0.1708  0.1156 -0.3459
14771TIP3    H165804   6.668   1.795   2.389 -1.1458 -2.0970  0.4748
14771TIP3    H265805   6.624   1.714   2.269  1.1235 -1.8169 -0.5830
14772TIP3   OH265806   0.888   3.129  16.031  0.4822 -0.3300 -0.4951
14772TIP3    H165807   0.846   3.105  16.114  1.7122 -1.3192 -0.1265
14772TIP3    H265808   0.829   3.192  15.991 -0.2734 -0.0547  1.0097
14773TIP3   OH265809   0.089   4.954  14.225  0.2622 -0.1358  0.7680
14773TIP3    H165810   0.141   4.921  14.298 -1.2990 -0.5681  1.7432
14773TIP3    H265811   0.010   4.899  14.226  0.1943 -0.1542 -1.2560
14774TIP3   OH265812   1.716   5.786  17.162  0.1163 -0.7454  0.1714
14774TIP3    H165813   1.745   5.699  17.135  0.6158 -0.8679  1.0678
14774TIP3    H265814   1.631   5.771  17.205  0.8538 -1.0091  1.6097
14775TIP3   OH265815   6.573   0.030   2.209  0.1962 -0.0745  0.1941
14775TIP3    H165816   6.516   0.106   2.206  0.9383  0.5187  0.7953
14775TIP3    H265817   6.526  -0.033   2.264  0.1133  0.4180  0.7037
14776TIP3   OH265818   3.893   0.059   4.630 -0.7678  0.0396  0.2728
14776TIP3    H165819   3.934  -0.016   4.587  2.3683  1.8294 -0.2282
14776TIP3    H265820   3.891   0.035   4.723 -1.6956 -1.4121 -0.1006
14777TIP3   OH265821   1.098   1.813  14.562 -0.4124  0.6568 -0.4541
14777TIP3    H165822   1.077   1.750  14.631  2.0610 -1.7204 -1.6343
14777TIP3    H265823   1.166   1.868  14.600  2.0599 -1.6185 -1.2505
14778TIP3   OH265824   6.135   5.083   2.055  0.6921 -0.7076  0.3188
14778TIP3    H165825   6.047   5.117   2.073  1.3170  0.6623  0.9171
14778TIP3    H265826   6.132   4.992   2.084  0.1229 -0.0439  2.5360
14779TIP3   OH265827   2.570   6.595  15.399 -0.1722  0.0964 -0.2358
14779TIP3    H165828   2.535   6.508  15.381  1.2441 -0.6825  0.6414
14779TIP3    H265829   2.575   6.600  15.494 -0.4593  1.2448 -0.2640
14780TIP3   OH265830   2.599   4.952  14.610  0.1152 -0.2241 -0.1611
14780TIP3    H165831   2.566   4.867  14.639  0.2317 -0.2692 -0.1584
14780TIP3    H265832   2.524   4.994  14.567 -0.0251 -0.2033  0.1047
14781TIP3   OH265833   0.783   4.641   4.236 -0.0896  0.5398  0.0946
14781TIP3    H165834   0.834   4.565   4.263 -0.0949  0.3250 -0.4926
14781TIP3    H265835   0.827   4.715   4.279  1.7279  0.5610 -1.6839
14782TIP3   OH265836   0.751   5.671  13.991 -0.1218 -0.6041  0.5798
14782TIP3    H165837   0.759   5.604  13.923 -0.4484 -0.0615 -0.0076
14782TIP3    H265838   0.678   5.726  13.962 -1.1113 -1.1033  2.0114
14783TIP3   OH265839   0.993   2.462   5.099  0.0429 -0.3126  0.3562
14783TIP3    H165840   1.007   2.499   5.186  0.6421  0.4732 -0.0544
14783TIP3    H265841   0.898   2.463   5.087 -0.0135  0.0070  0.8191
14784TIP3   OH265842   4.626   0.550   5.470 -0.2996  0.4702 -0.4685
14784TIP3    H165843   4.595   0.559   5.560 -0.1241 -1.2034 -0.2009
14784TIP3    H265844   4.691   0.619   5.460  1.0675 -0.4622  1.3466
14785TIP3   OH265845   3.860   1.669   4.037  0.2803 -0.2454  0.5637
14785TIP3    H165846   3.914   1.640   3.965 -2.1647 -0.0559 -1.4958
14785TIP3    H265847   3.883   1.611   4.110  1.0301 -2.1943 -1.1342
14786TIP3   OH265848   6.398   5.968   2.669 -0.0120  0.2569 -0.2097
14786TIP3    H165849   6.481   5.995   2.631 -0.3456  1.6527  0.0109
14786TIP3    H265850   6.421   5.896   2.728  0.8329 -0.3109 -1.1920
14787TIP3   OH265851   4.987   1.498   2.142  0.2543 -0.6673  0.9448
14787TIP3    H165852   5.074   1.494   2.102 -0.7376  1.2976 -1.7221
14787TIP3    H265853   4.930   1.448   2.083 -1.2599  2.2918 -0.3369
14788TIP3   OH265854   1.555   3.478  13.866 -0.4254 -0.5029 -0.6727
14788TIP3    H165855   1.531   3.551  13.809  0.7823 -0.8854 -1.7037
14788TIP3    H265856   1.539   3.400  13.814 -0.4838 -0.9237 -0.0389
14789TIP3   OH265857   5.099   0.188  15.148 -0.7994  0.2419  0.8253
14789TIP3    H165858   5.164   0.258  15.146 -0.5093 -0.0196 -0.6502
14789TIP3    H265859   5.016   0.231  15.130 -0.8262  0.3906  1.3039
14790TIP3   OH265860   6.602   1.262  13.001 -0.1419  0.8877  0.5244
14790TIP3    H165861   6.528   1.210  12.970  0.6349 -0.0086  0.1272
14790TIP3    H265862   6.624   1.224  13.086  2.6412 -1.9042 -1.2149
14791TIP3   OH265863   4.635   5.602   1.818  0.1423 -0.0324  0.3027
14791TIP3    H165864   4.554   5.638   1.782  1.5113 -0.7530 -3.9626
14791TIP3    H265865   4.680   5.678   1.856 -1.1065  0.9873 -0.2111
14792TIP3   OH265866   1.377   4.108  14.116  0.3944 -0.1121 -0.0968
14792TIP3    H165867   1.325   4.094  14.195  1.3803  1.7391  0.9482
14792TIP3    H265868   1.462   4.069  14.136  0.5527  0.1037 -0.3408
14793TIP3   OH265869   6.514   1.562  15.483 -0.1809  0.4964 -0.4770
14793TIP3    H165870   6.509   1.469  15.463  1.8000  0.2785 -0.2202
14793TIP3    H265871   6.490   1.606  15.402 -2.5590 -0.1726 -0.2026
14794TIP3   OH265872   4.639   5.381   1.990 -0.5775 -0.0154 -0.4968
14794TIP3    H165873   4.629   5.451   1.925 -2.1242  1.3119  1.0729
14794TIP3    H265874   4.689   5.420   2.061 -1.3174 -0.5482  0.3378
14795TIP3   OH265875   5.466   5.119   1.285  0.3153  0.2015 -0.3793
14795TIP3    H165876   5.405   5.069   1.230 -0.0115 -0.6218  0.6974
14795TIP3    H265877   5.427   5.206   1.290 -0.5035 -0.1590 -0.1733
14796TIP3   OH265878   3.821   2.750   6.225  0.1066  0.1113 -0.3225
14796TIP3    H165879   3.807   2.840   6.252  0.2115  0.1263 -0.3197
14796TIP3    H265880   3.813   2.699   6.305  1.3369  0.2449 -0.1022
14797TIP3   OH265881   4.837   4.240   3.072  0.5204  0.3388 -0.0638
14797TIP3    H165882   4.848   4.251   2.977  1.9826  2.7800  0.3026
14797TIP3    H265883   4.912   4.187   3.099  0.0167 -0.4926 -0.2810
14798TIP3   OH265884   6.221   0.936   4.960  0.8409  0.3225  0.6249
14798TIP3    H165885   6.303   0.982   4.976  0.2531  1.5432  0.2726
14798TIP3    H265886   6.171   0.995   4.903  0.0393 -0.7439  0.1954
14799TIP3   OH265887   5.384   0.743  15.432  0.4239 -0.2509  0.0268
14799TIP3    H165888   5.470   0.719  15.468  0.4892  0.1112  0.1153
14799TIP3    H265889   5.358   0.667  15.381  0.2355 -0.8548  1.0075
14800TIP3   OH265890   0.205   0.338   6.444 -0.0911 -0.3417  0.1153
14800TIP3    H165891   0.112   0.334   6.423  0.1469 -0.5407 -0.9880
14800TIP3    H265892   0.213   0.414   6.501 -0.6359  1.0894 -1.5978
14801TIP3   OH265893   4.638   0.151  13.182  0.6156 -0.3438 -0.0725
14801TIP3    H165894   4.733   0.158  13.169  0.6185  0.7180  0.4125
14801TIP3    H265895   4.603   0.234  13.150 -0.3035 -1.1660 -1.3496
14802TIP3   OH265896   1.362   2.727  15.009 -0.1649 -0.0592 -0.2603
14802TIP3    H165897   1.406   2.808  15.033  0.9976 -0.3536 -1.2996
14802TIP3    H265898   1.270   2.752  14.996  0.4711  1.4602 -2.2609
14803TIP3   OH265899   5.376   4.892   5.957 -0.0776 -0.1833 -0.0300
14803TIP3    H165900   5.386   4.798   5.948 -0.0344  0.0125 -3.3464
14803TIP3    H265901   5.313   4.916   5.890  1.7987  2.4064 -1.0646
14804TIP3   OH265902   3.147   3.507   3.146  0.6352 -0.3718  0.4613
14804TIP3    H165903   3.162   3.414   3.133 -1.1958 -0.4519 -1.6254
14804TIP3    H265904   3.206   3.550   3.084  0.4708 -0.1900  0.4312
14805TIP3   OH265905   1.470   2.224  11.751  0.3830  0.6307  0.0717
14805TIP3    H165906   1.450   2.283  11.824  0.9045  0.4914  0.3396
14805TIP3    H265907   1.449   2.137  11.784  1.5813  0.4593  0.4374
14806TIP3   OH265908   2.508   2.327  13.367  1.3413 -0.4896 -0.0558
14806TIP3    H165909   2.412   2.331  13.364  1.3692  1.9625  0.0146
14806TIP3    H265910   2.535   2.372  13.287  2.4426 -0.4114  0.3551
14807TIP3   OH265911   0.684   4.495  15.488  0.1680  0.1624 -0.2392
14807TIP3    H165912   0.761   4.442  15.510  0.9554  1.6047  0.6495
14807TIP3    H265913   0.610   4.444  15.520  0.8152 -0.8699 -0.3337
14808TIP3   OH265914   4.531   5.329   5.463 -0.3935 -0.0653  0.2571
14808TIP3    H165915   4.598   5.304   5.399  0.9187 -0.2556  1.6491
14808TIP3    H265916   4.562   5.413   5.497 -0.7975 -0.2205  1.0209
14809TIP3   OH265917   6.562   1.688  13.350 -0.0713 -0.3666  0.1054
14809TIP3    H165918   6.643   1.726  13.383  0.8078 -1.9134 -0.1723
14809TIP3    H265919   6.588   1.641  13.271 -1.3916 -0.1936 -0.4549
14810TIP3   OH265920   3.383   3.923  10.555 -0.4125  0.4342  0.1714
14810TIP3    H165921   3.397   3.890  10.644 -0.4847 -0.2918 -0.0792
14810TIP3    H265922   3.296   3.963  10.558 -0.2710  0.7273  0.5143
14811TIP3   OH265923   0.708   6.265   2.166  0.1507  0.0999 -0.4863
14811TIP3    H165924   0.787   6.315   2.146  0.5879 -0.6204 -0.6210
14811TIP3    H265925   0.690   6.283   2.258  1.4410 -0.9952  0.0272
14812TIP3   OH265926   3.139   1.452   5.717  0.0828  0.0528  0.4874
14812TIP3    H165927   3.216   1.395   5.717 -0.5055 -0.8575  2.4932
14812TIP3    H265928   3.101   1.440   5.805 -1.0644  2.2111  0.3460
14813TIP3   OH265929   6.086   1.429  17.247 -0.2503 -0.7040 -0.0125
14813TIP3    H165930   6.008   1.392  17.205  1.1586 -2.1160 -1.5323
14813TIP3    H265931   6.051   1.489  17.313 -2.6043 -0.5828 -1.2565
14814TIP3   OH265932   2.217   1.441   2.887 -0.3262  0.3042 -0.2866
14814TIP3    H165933   2.218   1.386   2.966 -1.4061  0.8687  0.1366
14814TIP3    H265934   2.290   1.408   2.835 -0.1134 -0.6410  0.5644
14815TIP3   OH265935   0.431   0.210   4.027 -0.2324 -0.2192 -0.0466
14815TIP3    H165936   0.501   0.208   3.962 -2.1515  2.0940 -2.3761
14815TIP3    H265937   0.371   0.141   3.999 -1.1757  0.9314 -0.9231
14816TIP3   OH265938   2.227   6.064  11.475  0.1909  0.3425 -0.0077
14816TIP3    H165939   2.237   6.084  11.381  0.5480  0.9109  0.1462
14816TIP3    H265940   2.298   6.112  11.517 -0.5872  0.9321  0.6688
14817TIP3   OH265941   3.022   3.128   3.357  0.1466 -0.6367 -0.3537
14817TIP3    H165942   3.048   3.128   3.449 -1.4398 -0.2070  0.1133
14817TIP3    H265943   3.085   3.187   3.315 -1.6244  2.6815  1.2546
14818TIP3   OH265944   1.580   5.260   1.199  0.3551 -0.2518  0.0765
14818TIP3    H165945   1.600   5.340   1.150  1.4299 -1.2628 -1.2022
14818TIP3    H265946   1.660   5.208   1.195 -0.4335 -1.5658  0.5614
14819TIP3   OH265947   3.166   3.822   5.746  0.5358  0.6671  0.0043
14819TIP3    H165948   3.241   3.822   5.804 -0.2339 -1.1421  1.0864
14819TIP3    H265949   3.090   3.825   5.805 -0.2564  0.4512 -0.9729
14820TIP3   OH265950   0.064   3.006   4.688 -0.5033  0.3472 -0.6118
14820TIP3    H165951   0.051   2.998   4.783 -2.1057 -0.4477 -0.8590
14820TIP3    H265952   0.126   2.937   4.666 -1.2863 -0.4567 -0.3378
14821TIP3   OH265953   4.869   6.165   2.327  0.4780 -0.0529  0.0533
14821TIP3    H165954   4.797   6.224   2.351  0.4862 -0.6108  1.5602
14821TIP3    H265955   4.866   6.160   2.231 -1.5503 -0.1313  0.0836
14822TIP3   OH265956   2.121   5.542   2.343 -0.3241  0.5453 -0.4301
14822TIP3    H165957   2.101   5.580   2.428 -1.0799 -0.9115  0.0876
14822TIP3    H265958   2.140   5.450   2.362  0.1450  0.3501 -1.7608
14823TIP3   OH265959   5.104   0.057  11.822 -0.2080  0.1671  0.2954
14823TIP3    H165960   5.158   0.126  11.785  2.0481 -0.3071  2.3809
14823TIP3    H265961   5.067   0.012  11.747  0.2307  2.1179 -1.1666
14824TIP3   OH265962   2.935   1.840   2.095 -0.0896  0.2798  0.3421
14824TIP3    H165963   2.962   1.770   2.154 -2.8320 -0.5626  0.7300
14824TIP3    H265964   3.015   1.890   2.080  1.4403 -1.4759  2.0197
14825TIP3   OH265965   0.718   5.469  12.171  0.0331 -0.3789  0.1338
14825TIP3    H165966   0.712   5.520  12.252  2.6665 -1.3876  1.0760
14825TIP3    H265967   0.717   5.534  12.102  0.2967  0.7281  1.1389
14826TIP3   OH265968   4.362   6.408  15.949 -0.6288  0.4355  0.5879
14826TIP3    H165969   4.421   6.358  16.005  1.0985  1.4708 -0.2020
14826TIP3    H265970   4.338   6.348  15.879 -0.9018 -0.1335  1.1590
14827TIP3   OH265971   6.756   6.819   3.036 -0.3212  0.5501  0.6845
14827TIP3    H165972   6.828   6.837   2.975 -0.0848 -0.5399  0.6229
14827TIP3    H265973   6.677   6.837   2.986 -0.1172  0.2405  0.2394
14828TIP3   OH265974   2.810   1.779   2.443 -0.3708  0.1156  0.0046
14828TIP3    H165975   2.852   1.696   2.464 -1.8345 -0.6588  0.0082
14828TIP3    H265976   2.882   1.840   2.429  0.7574 -1.4578 -1.2841
14829TIP3   OH265977   0.560   0.539  13.124  0.0306 -0.6297  0.1413
14829TIP3    H165978   0.625   0.470  13.141 -0.8901 -1.7317 -0.5991
14829TIP3    H265979   0.484   0.513  13.176  0.4419  1.1214  1.7058
14830TIP3   OH265980   3.401   1.577   3.921 -0.1578 -0.0806  0.6107
14830TIP3    H165981   3.333   1.610   3.863  0.8214  2.0573  0.5840
14830TIP3    H265982   3.393   1.631   4.000  0.6083 -0.7649  1.1805
14831TIP3   OH265983   5.383   2.772   1.131  0.1527 -0.1992 -0.3729
14831TIP3    H165984   5.443   2.710   1.089 -0.3288 -0.3059 -0.9151
14831TIP3    H265985   5.332   2.719   1.192  1.0389  0.0017  0.5785
14832TIP3   OH265986   6.796   0.255  14.510 -0.4116 -0.3852  0.0980
14832TIP3    H165987   6.844   0.173  14.522 -0.7453 -0.3939  1.5252
14832TIP3    H265988   6.765   0.278  14.597 -0.2787  1.2953 -0.2613
14833TIP3   OH265989   3.840   1.545  15.643  0.7197 -0.5037  0.3560
14833TIP3    H165990   3.893   1.467  15.659  0.7009 -0.8013 -0.9210
14833TIP3    H265991   3.803   1.567  15.729  0.7535 -1.8780  0.7443
14834TIP3   OH265992   5.792   0.883  15.570  0.2799 -0.2241 -0.4126
14834TIP3    H165993   5.883   0.890  15.541  0.2971 -1.7845 -0.8309
14834TIP3    H265994   5.764   0.796  15.540 -1.0133 -0.2039  0.6507
14835TIP3   OH265995   1.069   6.771  11.908 -0.2310  0.1804  0.4423
14835TIP3    H165996   1.118   6.691  11.926 -1.2200 -0.9261 -1.4490
14835TIP3    H265997   1.134   6.842  11.918  0.8818 -0.9136  1.2591
14836TIP3   OH265998   3.428   3.709  12.277 -0.2251 -0.3687  0.6427
14836TIP3    H165999   3.369   3.765  12.226 -1.0181 -2.4305 -0.8567
14836TIP3    H266000   3.424   3.744  12.366 -3.3781 -0.1217  0.5048
14837TIP3   OH266001   4.481   6.161   1.729  0.4083 -0.2874 -0.8650
14837TIP3    H166002   4.451   6.148   1.820  3.0392  0.0896  0.1374
14837TIP3    H266003   4.481   6.256   1.718 -1.8702 -0.3650 -2.0456
14838TIP3   OH266004   6.776   3.641  12.635 -0.5843  0.1545 -0.7167
14838TIP3    H166005   6.717   3.686  12.574 -1.1880  0.6271  0.2000
14838TIP3    H266006   6.751   3.674  12.721  2.4603  2.0663 -0.4248
14839TIP3   OH266007   5.772   3.695  15.538 -0.8593  0.2017  0.4881
14839TIP3    H166008   5.690   3.648  15.548 -0.5534 -0.3343  0.5303
14839TIP3    H266009   5.808   3.663  15.455  0.7762 -1.9005  1.9092
14840TIP3   OH266010   4.333   1.864   1.379 -0.6869  0.2704  0.0247
14840TIP3    H166011   4.257   1.824   1.337 -1.7188  1.9676  0.2060
14840TIP3    H266012   4.343   1.949   1.335  0.5654  0.4454  0.6086
14841TIP3   OH266013   6.375   5.171   3.836 -0.2148  0.8125  0.5170
14841TIP3    H166014   6.317   5.152   3.762  0.1680  0.6935  0.2436
14841TIP3    H266015   6.317   5.201   3.905 -0.9302 -1.6643  1.0882
14842TIP3   OH266016   4.278   1.252  16.353  0.0559 -0.3219  0.5846
14842TIP3    H166017   4.231   1.184  16.304  0.9838 -0.7323  0.2437
14842TIP3    H266018   4.288   1.215  16.441  1.1913 -0.9558  0.2085
14843TIP3   OH266019   5.211   4.007   0.895  0.3384  0.9032  0.5320
14843TIP3    H166020   5.210   3.928   0.950 -0.7513  2.0375  2.2349
14843TIP3    H266021   5.282   3.991   0.833  0.3851 -1.2621  1.0510
14844TIP3   OH266022   3.960   1.098   4.285  0.3267 -0.3293  0.0373
14844TIP3    H166023   3.871   1.077   4.259 -0.1675  0.2580  1.1893
14844TIP3    H266024   3.975   1.187   4.252  0.4500 -0.3992 -0.0933
14845TIP3   OH266025   3.511   3.475   6.395 -0.4422 -0.6109  0.4208
14845TIP3    H166026   3.546   3.531   6.464  0.9646 -0.8282 -0.0952
14845TIP3    H266027   3.416   3.476   6.410 -0.5929  2.5221 -0.0235
14846TIP3   OH266028   4.798   3.019   1.671 -0.1692  0.4527 -0.1058
14846TIP3    H166029   4.868   2.961   1.641 -0.5279  0.2256 -0.5453
14846TIP3    H266030   4.786   2.998   1.763 -0.4903 -0.4063 -0.3275
14847TIP3   OH266031   3.537   2.961   5.561  0.2394  0.5364 -0.1849
14847TIP3    H166032   3.466   2.928   5.505 -0.3302  0.6455  0.4688
14847TIP3    H266033   3.505   3.045   5.594  0.5550  0.4442  0.3568
14848TIP3   OH266034   0.206   5.149  15.626 -0.0453 -0.3522 -0.6572
14848TIP3    H166035   0.259   5.077  15.592  1.2109  0.4396 -0.4016
14848TIP3    H266036   0.118   5.111  15.632  0.2852 -1.4274 -1.9010
14849TIP3   OH266037   6.801   0.701  11.932  0.0546 -0.0767 -0.1653
14849TIP3    H166038   6.758   0.696  11.846  0.8944  0.6648 -0.6518
14849TIP3    H266039   6.729   0.702  11.995 -0.5713 -1.0277 -0.8314
14850TIP3   OH266040   6.142   1.834   5.400 -0.2326 -0.0826 -0.1018
14850TIP3    H166041   6.130   1.753   5.451  0.0717  0.5454  1.0128
14850TIP3    H266042   6.232   1.831   5.369 -0.4877 -0.5762 -0.8200
14851TIP3   OH266043   0.973   5.311  13.527 -0.1468  0.1157  0.3777
14851TIP3    H166044   1.007   5.223  13.537  0.5721  0.2966 -0.3579
14851TIP3    H266045   1.043   5.368  13.557  0.4855  0.5121 -1.6850
14852TIP3   OH266046   6.023   4.739  10.855  0.0526 -0.3611  0.1745
14852TIP3    H166047   6.032   4.646  10.873 -0.5904 -0.4815 -0.0895
14852TIP3    H266048   6.113   4.773  10.854  0.2347 -0.7233  1.5878
14853TIP3   OH266049   0.191   0.729   5.666  0.4112 -0.3269 -0.8874
14853TIP3    H166050   0.232   0.812   5.643 -0.3061  0.3316  0.1382
14853TIP3    H266051   0.208   0.718   5.760 -0.4471 -0.7858 -0.7726
14854TIP3   OH266052   5.778   4.704   4.234 -0.1223 -0.7604 -0.0665
14854TIP3    H166053   5.737   4.785   4.203 -0.7106 -0.5276  1.2591
14854TIP3    H266054   5.782   4.713   4.329 -1.8684 -2.9978  0.3300
14855TIP3   OH266055   2.615   1.050  11.725  0.1112 -0.2645 -0.3931
14855TIP3    H166056   2.682   1.007  11.777  1.7183 -0.2485 -2.3111
14855TIP3    H266057   2.664   1.110  11.669 -1.8779  2.7881  0.8956
14856TIP3   OH266058   0.155   4.716  10.900 -0.1944  0.6248  0.3830
14856TIP3    H166059   0.077   4.675  10.864 -0.3009  1.4948 -0.3836
14856TIP3    H266060   0.222   4.648  10.894 -0.4195  0.4813 -0.7061
14857TIP3   OH266061   5.913   0.287  14.027 -0.4830 -0.5840  0.2055
14857TIP3    H166062   5.821   0.295  14.053 -0.6436 -0.3220 -0.4165
14857TIP3    H266063   5.912   0.220  13.958 -0.5054  0.7311 -1.1346
14858TIP3   OH266064   2.116   5.731  17.165 -0.0727  0.1741  0.4129
14858TIP3    H166065   2.094   5.733  17.072 -0.7340  2.5332  0.5643
14858TIP3    H266066   2.041   5.688  17.207  0.3872 -1.2226 -0.1402
14859TIP3   OH266067   1.675   0.445  15.768  0.0948  0.2083 -0.0211
14859TIP3    H166068   1.691   0.369  15.824  1.7389 -0.3563 -1.1684
14859TIP3    H266069   1.761   0.486  15.757 -0.8684  2.8694  1.3446
14860TIP3   OH266070   2.408   1.590  15.106  0.4406 -0.3795  0.0053
14860TIP3    H166071   2.341   1.550  15.051 -0.4603  0.8543  0.1492
14860TIP3    H266072   2.472   1.626  15.045  0.3418 -0.5062 -0.1721
14861TIP3   OH266073   3.303   1.900   1.966 -0.5044  0.2760  0.2047
14861TIP3    H166074   3.258   1.852   1.896 -3.0511  0.9453  1.2661
14861TIP3    H266075   3.244   1.972   1.988  0.8436  0.8829  2.1316
14862TIP3   OH266076   0.782   4.567  13.250  0.2006 -0.2161 -0.5209
14862TIP3    H166077   0.832   4.574  13.332 -1.9441  0.0007  0.8588
14862TIP3    H266078   0.755   4.656  13.231  0.0303 -0.3780 -1.0332
14863TIP3   OH266079   6.580   3.155   5.155 -0.3516 -0.7807  0.3057
14863TIP3    H166080   6.539   3.201   5.081 -0.1045 -0.3131  0.4512
14863TIP3    H266081   6.626   3.224   5.203  1.7792 -1.4557 -0.6259
14864TIP3   OH266082   4.802   2.017   4.350 -0.4264  0.4423  0.1653
14864TIP3    H166083   4.774   2.092   4.402 -0.0809  0.1523  0.7841
14864TIP3    H266084   4.720   1.978   4.318 -0.7786 -0.3292  1.8522
14865TIP3   OH266085   4.908   1.250  15.662 -0.3547 -0.3475 -0.3114
14865TIP3    H166086   4.972   1.179  15.670 -0.6722 -0.5447  0.5771
14865TIP3    H266087   4.924   1.305  15.739  0.7674  1.2882 -1.6483
14866TIP3   OH266088   2.381   2.757   0.650  0.2342 -0.7772 -0.6531
14866TIP3    H166089   2.328   2.816   0.595 -0.3152 -0.1526  0.4874
14866TIP3    H266090   2.316   2.711   0.703  0.7864 -0.5875  0.2064
14867TIP3   OH266091   5.196   1.243   4.922 -0.6344 -0.1674 -0.1854
14867TIP3    H166092   5.136   1.223   4.850 -1.7791 -0.7543  0.9015
14867TIP3    H266093   5.243   1.321   4.892 -1.7333  0.1441 -1.1878
14868TIP3   OH266094   5.550   0.074   1.503 -0.0295 -0.5497 -0.1229
14868TIP3    H166095   5.574   0.023   1.580  0.1801  0.1987  0.3181
14868TIP3    H266096   5.519   0.009   1.439  0.7974 -1.2773  0.2034
14869TIP3   OH266097   4.133   1.730   2.011 -0.0793  0.1298  0.0245
14869TIP3    H166098   4.157   1.683   1.932 -2.8344 -3.3433  1.0128
14869TIP3    H266099   4.127   1.822   1.984  3.3422 -0.2144 -2.6014
14870TIP3   OH266100   0.769   4.300  14.253  0.0829  0.2399 -1.2114
14870TIP3    H166101   0.755   4.382  14.205  2.4537  1.4592  0.0289
14870TIP3    H266102   0.851   4.266  14.218  0.7135  0.0252  0.3850
14871TIP3   OH266103   0.323   6.775   2.997  0.4248 -0.1713 -0.0098
14871TIP3    H166104   0.375   6.711   2.949  0.0607 -0.9462  0.5891
14871TIP3    H266105   0.249   6.794   2.939 -0.0429 -1.1409  0.2388
14872TIP3   OH266106   2.784   0.268   2.597  0.1773 -0.5088 -0.5321
14872TIP3    H166107   2.838   0.201   2.556 -0.8862 -1.6115 -0.1771
14872TIP3    H266108   2.703   0.269   2.546 -0.0461  0.1092 -0.1835
14873TIP3   OH266109   0.037   1.953  12.721  0.1656  0.0156  0.3495
14873TIP3    H166110   0.023   1.859  12.721  0.0769 -0.0118 -1.2132
14873TIP3    H266111   0.127   1.965  12.753 -0.7062 -0.3623  3.1328
14874TIP3   OH266112   0.504   2.888   2.282 -0.5389 -0.0273  0.3786
14874TIP3    H166113   0.492   2.939   2.203  0.9577 -0.7180 -0.3331
14874TIP3    H266114   0.532   2.951   2.348  0.9237  0.1658 -0.3888
14875TIP3   OH266115   1.309   4.222   0.291 -0.1250  0.3963 -0.2320
14875TIP3    H166116   1.372   4.292   0.275  1.7891 -0.3416  3.2140
14875TIP3    H266117   1.251   4.256   0.358 -1.3787 -0.1571 -0.9952
14876TIP3   OH266118   3.226   5.621   4.733 -0.5397  0.0789  0.5348
14876TIP3    H166119   3.257   5.542   4.778 -2.2616 -0.4646  0.8258
14876TIP3    H266120   3.211   5.685   4.804  0.5474  0.5933  0.3280
14877TIP3   OH266121   6.591   2.570   2.793 -0.1405  0.4375  0.4102
14877TIP3    H166122   6.651   2.560   2.720 -0.3218  0.5861  0.2402
14877TIP3    H266123   6.564   2.481   2.815  1.9557  0.1197  2.0298
14878TIP3   OH266124   2.213   5.665  13.916  0.0632 -0.2438 -0.2996
14878TIP3    H166125   2.151   5.616  13.861  1.5354 -0.5131 -1.7779
14878TIP3    H266126   2.168   5.749  13.933 -0.1915  0.1088 -2.4633
14879TIP3   OH266127   4.730   2.278   0.526 -0.6146 -0.1537 -0.0136
14879TIP3    H166128   4.687   2.193   0.538  0.0100 -0.3682  0.7307
14879TIP3    H266129   4.701   2.331   0.600 -0.7555  0.1869 -0.3082
14880TIP3   OH266130   6.743   5.453  11.914 -0.4418  0.2480  0.2242
14880TIP3    H166131   6.660   5.489  11.945  0.2198  1.6887  0.4130
14880TIP3    H266132   6.767   5.387  11.979 -0.6313  1.0015  1.0744
14881TIP3   OH266133   5.973   5.045  13.961 -0.3000 -0.2755  0.8203
14881TIP3    H166134   5.984   5.134  13.928 -0.5143 -0.4910  0.1368
14881TIP3    H266135   5.941   5.055  14.050 -1.3954  0.3370  0.3736
14882TIP3   OH266136   1.990   5.653   3.135  0.2660 -0.3874 -0.2400
14882TIP3    H166137   1.895   5.659   3.126  0.3290 -1.0033 -1.5833
14882TIP3    H266138   2.004   5.593   3.207 -0.4104 -2.2276 -1.5655
14883TIP3   OH266139   2.329   6.773   2.387  0.3871  0.0680  0.0645
14883TIP3    H166140   2.345   6.820   2.305 -0.2295 -0.8708 -0.6239
14883TIP3    H266141   2.407   6.787   2.439  0.4052  1.4742 -0.2928
14884TIP3   OH266142   6.485   2.383   6.109 -0.0558  0.0546 -0.0266
14884TIP3    H166143   6.401   2.422   6.084 -0.1295 -0.9711 -1.4671
14884TIP3    H266144   6.550   2.426   6.054  0.2553  0.1566  0.4090
14885TIP3   OH266145   4.555   0.815   3.306 -0.2792  0.0985 -0.6145
14885TIP3    H166146   4.482   0.812   3.244  0.1473  0.3601 -1.1428
14885TIP3    H266147   4.585   0.724   3.312 -0.1033  0.1221 -1.0706
14886TIP3   OH266148   2.842   3.291   0.106 -0.8977 -0.6518  0.0961
14886TIP3    H166149   2.871   3.205   0.077  0.4228 -0.6395  1.2564
14886TIP3    H266150   2.923   3.341   0.120 -1.6161  1.6161 -2.7797
14887TIP3   OH266151   5.520   4.478   4.422  0.5020 -0.1727 -0.4109
14887TIP3    H166152   5.541   4.570   4.439 -1.4007  0.6234 -1.9918
14887TIP3    H266153   5.484   4.446   4.505 -1.6008  1.4328 -0.6104
14888TIP3   OH266154   5.167   6.800   6.335  0.1074  1.0890  0.2859
14888TIP3    H166155   5.261   6.821   6.336  0.0102  1.5998 -0.3739
14888TIP3    H266156   5.125   6.878   6.372 -0.0170  0.5877  1.2217
14889TIP3   OH266157   3.040   4.660   1.202  0.1218  0.1183 -0.4596
14889TIP3    H166158   2.981   4.700   1.139  0.7831  1.3720 -0.3234
14889TIP3    H266159   3.106   4.728   1.219  0.2431 -0.3714  1.1827
14890TIP3   OH266160   2.427   2.183   2.543  0.5033  0.2043 -0.4751
14890TIP3    H166161   2.371   2.136   2.605  0.0883  0.5374 -0.5912
14890TIP3    H266162   2.419   2.134   2.461 -1.0467  1.2509 -0.9900
14891TIP3   OH266163   5.907   4.940   3.944 -0.3501 -0.0483 -0.5583
14891TIP3    H166164   5.988   4.890   3.935 -0.8867 -0.7310 -1.7312
14891TIP3    H266165   5.925   5.023   3.901  0.3270  0.5572  0.8285
14892TIP3   OH266166   0.531   5.868  15.469  0.2209 -0.1408  0.5990
14892TIP3    H166167   0.566   5.852  15.382 -0.4295 -0.8877  0.4661
14892TIP3    H266168   0.449   5.819  15.472  0.8241 -1.1521  2.0496
14893TIP3   OH266169   0.111   1.215  14.643  0.1128  0.0917  0.3110
14893TIP3    H166170   0.113   1.304  14.607 -0.1160 -0.5365 -1.3349
14893TIP3    H266171   0.019   1.190  14.639  0.2460 -0.4084  0.3192
14894TIP3   OH266172   1.071   0.119  15.867  0.5646  0.2314  0.0778
14894TIP3    H166173   1.130   0.109  15.792  0.4700  0.6042 -0.0469
14894TIP3    H266174   1.030   0.204  15.854  1.7574  1.0549  1.3985
14895TIP3   OH266175   0.763   5.041   3.897 -0.3047  0.2887  0.5135
14895TIP3    H166176   0.802   5.000   3.974 -0.7258 -0.0276  0.5598
14895TIP3    H266177   0.736   4.968   3.842 -3.1656  0.3740  1.6230
14896TIP3   OH266178   0.553   5.283  11.245 -0.1086 -0.4450 -0.1921
14896TIP3    H166179   0.467   5.310  11.278  0.2342  0.5440 -0.0584
14896TIP3    H266180   0.538   5.266  11.152 -0.3818  0.0826 -0.2511
14897TIP3   OH266181   4.233   3.794   0.385  0.1324 -0.1302 -0.0161
14897TIP3    H166182   4.184   3.876   0.396 -0.9406 -0.4823 -1.7417
14897TIP3    H266183   4.283   3.807   0.304  1.3974 -0.5304  0.6725
14898TIP3   OH266184   6.376   6.730  13.027  0.4065 -0.0422  0.0020
14898TIP3    H166185   6.453   6.674  13.017  0.2893 -0.1315 -0.4118
14898TIP3    H266186   6.308   6.686  12.976  0.0476 -0.0222  0.4566
14899TIP3   OH266187   2.592   6.022  16.853 -0.3227  0.3113 -0.1980
14899TIP3    H166188   2.651   6.030  16.929  0.2047 -0.0062 -0.5687
14899TIP3    H266189   2.606   6.103  16.804  0.1462  0.0410 -0.5188
14900TIP3   OH266190   3.332   5.623  15.805  0.1845  0.2820 -0.6952
14900TIP3    H166191   3.304   5.710  15.836  1.0966  1.1445 -2.1736
14900TIP3    H266192   3.427   5.624  15.814  0.2680 -0.2557 -1.4594
14901TIP3   OH266193   4.873   5.151   6.553  0.5246  0.2251 -0.2332
14901TIP3    H166194   4.786   5.177   6.582 -0.1017  0.8856 -2.4883
14901TIP3    H266195   4.924   5.231   6.553  1.3402 -0.2489  1.5848
14902TIP3   OH266196   5.793   3.290  11.427 -0.0915 -0.5056 -0.6038
14902TIP3    H166197   5.845   3.326  11.498 -1.6204 -1.1066  0.8740
14902TIP3    H266198   5.732   3.360  11.403 -0.7212 -0.8870 -0.1360
14903TIP3   OH266199   0.883   6.568   0.439 -0.0655 -0.5107 -0.5850
14903TIP3    H166200   0.884   6.661   0.461 -1.5778 -0.5628 -0.2151
14903TIP3    H266201   0.951   6.530   0.495 -1.6646 -0.1254  1.7784
14904TIP3   OH266202   3.324   3.253  13.421 -0.5340 -0.1503 -0.2699
14904TIP3    H166203   3.379   3.243  13.498  0.0215 -0.7391 -0.7224
14904TIP3    H266204   3.317   3.347  13.407 -0.5285 -0.0482  0.4175
14905TIP3   OH266205   6.093   2.730   3.942 -0.5397 -0.2113 -0.3244
14905TIP3    H166206   6.020   2.669   3.952 -1.3001  0.9393  1.8877
14905TIP3    H266207   6.101   2.743   3.848 -2.4846 -1.2178 -0.6756
14906TIP3   OH266208   1.509   5.669  13.562  0.1963  0.4126 -0.1955
14906TIP3    H166209   1.436   5.653  13.502  0.5980 -0.1237 -0.5511
14906TIP3    H266210   1.477   5.640  13.647 -0.1179  0.4807 -0.2890
14907TIP3   OH266211   5.739   2.023  12.207 -0.2698 -0.6317 -0.2000
14907TIP3    H166212   5.676   1.985  12.268 -0.0628 -1.0800 -0.2641
14907TIP3    H266213   5.691   2.094  12.164  0.3064  1.4520  2.3249
14908TIP3   OH266214   2.873   6.261   6.001  0.0411  0.0846 -0.1661
14908TIP3    H166215   2.874   6.279   6.095  0.0996  1.1774 -0.3641
14908TIP3    H266216   2.812   6.325   5.965 -0.2834 -0.5819 -0.8360
14909TIP3   OH266217   6.122   1.723  10.593  0.3046  0.3780 -0.3042
14909TIP3    H166218   6.046   1.738  10.537 -0.9074  1.5061  1.5373
14909TIP3    H266219   6.187   1.787  10.565 -0.8529  1.9610  0.5046
14910TIP3   OH266220   6.793   4.576  12.922  0.4013  0.2245 -0.3291
14910TIP3    H166221   6.815   4.615  13.007  0.6438 -0.9181  0.1425
14910TIP3    H266222   6.698   4.570  12.922  0.2440  2.0219 -0.9665
14911TIP3   OH266223   3.409   4.620   5.078  0.4019  0.1976  0.1703
14911TIP3    H166224   3.345   4.611   5.007 -0.4087  2.2521  0.5726
14911TIP3    H266225   3.383   4.700   5.123  1.7165 -0.3414  1.9711
14912TIP3   OH266226   6.012   3.286   5.643 -0.0127  0.1794 -0.0841
14912TIP3    H166227   6.027   3.212   5.701 -1.5975 -0.0504  0.0878
14912TIP3    H266228   6.041   3.362   5.693 -2.3405  0.1169  1.5558
14913TIP3   OH266229   6.385   1.656   4.937  0.4267  0.3673  0.2710
14913TIP3    H166230   6.305   1.670   4.887 -0.8315 -3.1848  1.0154
14913TIP3    H266231   6.359   1.667   5.028  0.7333 -0.8619  0.5250
14914TIP3   OH266232   5.039   1.061  13.456  0.1092 -0.1756  0.1732
14914TIP3    H166233   5.123   1.108  13.448  1.0405 -1.7278  0.4085
14914TIP3    H266234   5.038   1.002  13.381 -0.6969 -0.3099  0.2861
14915TIP3   OH266235   1.807   2.232  12.982 -0.3155  0.2368 -0.0603
14915TIP3    H166236   1.901   2.245  12.989 -0.1016  0.3535 -2.3011
14915TIP3    H266237   1.776   2.309  12.934 -1.3334 -0.4143 -0.4940
14916TIP3   OH266238   5.677   1.692  12.127  0.2393 -0.3510 -0.5626
14916TIP3    H166239   5.657   1.767  12.071  2.8355 -0.8634 -2.3332
14916TIP3    H266240   5.639   1.715  12.212 -3.5125  0.6458 -2.2900
14917TIP3   OH266241   0.550   1.044  11.738 -0.5646 -0.1092  0.0966
14917TIP3    H166242   0.602   1.035  11.818  0.7299 -1.0542 -0.8205
14917TIP3    H266243   0.614   1.047  11.668 -1.7214 -2.7730 -1.2182
14918TIP3   OH266244   4.873   6.766   1.346 -0.8264  0.1413 -0.1786
14918TIP3    H166245   4.916   6.849   1.365 -0.5721  0.5143 -2.1831
14918TIP3    H266246   4.930   6.723   1.283 -0.4833 -2.0266  1.5163
14919TIP3   OH266247   6.412   6.738   5.297 -0.1138 -0.4224 -0.2828
14919TIP3    H166248   6.388   6.688   5.375  2.5388  0.6055  1.3207
14919TIP3    H266249   6.378   6.826   5.312  0.4050 -0.2187 -0.2930
14920TIP3   OH266250   2.364   0.124   1.202 -0.2306 -0.5275 -0.0952
14920TIP3    H166251   2.357   0.031   1.179  0.9235 -0.4505 -0.8248
14920TIP3    H266252   2.442   0.129   1.258  0.5307  0.1751 -1.1666
14921TIP3   OH266253   0.297   6.454  10.937  0.1784  0.0457 -0.6022
14921TIP3    H166254   0.202   6.465  10.926  0.4006  1.7309 -1.1020
14921TIP3    H266255   0.329   6.543  10.956  1.4876 -0.7078  0.9513
14922TIP3   OH266256   0.007   3.829   3.841 -0.7418  0.5462  0.1611
14922TIP3    H166257  -0.063   3.875   3.887  0.5784 -0.0116  2.9543
14922TIP3    H266258   0.071   3.809   3.909 -0.1818 -3.4507 -1.2761
14923TIP3   OH266259   4.735   6.387   2.255  0.1656  0.6300  0.4557
14923TIP3    H166260   4.791   6.465   2.253 -1.5378  1.8944 -0.9728
14923TIP3    H266261   4.713   6.371   2.163 -0.2471 -1.0348  0.7990
14924TIP3   OH266262   0.046   2.138   4.449 -0.0890  1.0144 -0.1714
14924TIP3    H166263  -0.032   2.152   4.396  0.2788  0.6860 -0.8177
14924TIP3    H266264   0.046   2.210   4.512  0.1282  2.1557 -1.4198
14925TIP3   OH266265   6.557   2.272   5.033 -0.4524  0.0352 -0.1173
14925TIP3    H166266   6.616   2.232   4.970  1.8884  1.1968  1.2074
14925TIP3    H266267   6.578   2.231   5.116 -1.1834  0.8268  0.4844
14926TIP3   OH266268   1.756   4.683  10.938  0.0874  0.3297  0.5992
14926TIP3    H166269   1.727   4.752  10.997 -1.6777  1.9945 -2.0308
14926TIP3    H266270   1.696   4.610  10.955 -0.8281  1.0325  0.4172
14927TIP3   OH266271   0.958   3.218  13.143  0.2496 -0.4280 -0.2865
14927TIP3    H166272   1.015   3.150  13.108 -0.1734 -0.1430 -1.6025
14927TIP3    H266273   0.869   3.186  13.126  0.0154 -0.4556  0.9178
14928TIP3   OH266274   5.199   6.215   2.816 -0.0367 -0.2873  0.3955
14928TIP3    H166275   5.161   6.150   2.875 -0.4139 -0.6700 -0.2572
14928TIP3    H266276   5.123   6.258   2.775  0.2149 -0.3551 -0.1576
14929TIP3   OH266277   4.267   2.561   5.749  0.6960 -0.3910  0.2592
14929TIP3    H166278   4.360   2.583   5.748  0.6049  0.0267 -0.9971
14929TIP3    H266279   4.224   2.639   5.713 -0.2131 -0.3164  1.4420
14930TIP3   OH266280   2.307   6.381   0.516  0.3834 -0.1311 -0.0459
14930TIP3    H166281   2.378   6.425   0.563  0.9285  0.2529 -1.1958
14930TIP3    H266282   2.342   6.294   0.495  0.0953 -0.3476  0.3693
14931TIP3   OH266283   4.312   3.642   1.946 -0.5091  0.6452  0.0710
14931TIP3    H166284   4.280   3.726   1.914 -1.5223  0.7542  1.2886
14931TIP3    H266285   4.256   3.622   2.022  0.4262 -0.5924  0.4734
14932TIP3   OH266286   0.632   4.086  12.730  0.5195  0.5683  0.7666
14932TIP3    H166287   0.607   4.003  12.770  1.1026  0.7181  1.4576
14932TIP3    H266288   0.589   4.152  12.784 -1.1050  0.7018 -0.6057
14933TIP3   OH266289   5.339   2.728   4.644 -0.1005  0.0982  0.1483
14933TIP3    H166290   5.264   2.713   4.701  0.0154  0.9879  0.5531
14933TIP3    H266291   5.342   2.651   4.586 -1.7701  0.3972 -0.3794
14934TIP3   OH266292   3.158   5.705  16.355  0.4478  0.8423  0.0384
14934TIP3    H166293   3.186   5.774  16.415  2.0443 -1.0439  1.5939
14934TIP3    H266294   3.136   5.631  16.412 -1.0627 -0.0196 -1.5711
14935TIP3   OH266295   5.335   6.632   0.600 -0.3253  0.0522 -0.0695
14935TIP3    H166296   5.408   6.570   0.598 -1.0868 -0.8415 -0.8727
14935TIP3    H266297   5.266   6.589   0.549 -1.3640  0.9412  0.5670
14936TIP3   OH266298   3.090   4.965   2.985  0.3221 -0.1830  0.7803
14936TIP3    H166299   3.027   4.997   3.050 -0.1600  1.0267 -0.2587
14936TIP3    H266300   3.170   5.015   3.003 -0.0024  0.6074  0.0540
14937TIP3   OH266301   5.424   4.959   3.412 -0.5846 -0.2449  0.4783
14937TIP3    H166302   5.345   4.915   3.379 -0.7628  1.1215 -1.0247
14937TIP3    H266303   5.397   4.995   3.497 -1.7616  0.5726 -0.1968
14938TIP3   OH266304   4.003   5.128   2.338 -0.4225 -0.3893  0.5379
14938TIP3    H166305   4.065   5.060   2.313  0.3905  0.2490  0.7579
14938TIP3    H266306   3.940   5.084   2.394  0.3972 -0.8624  1.1115
14939TIP3   OH266307   2.713   2.999  13.253  0.0649 -0.1712 -0.1479
14939TIP3    H166308   2.737   3.028  13.341 -1.1803 -0.6272  0.3637
14939TIP3    H266309   2.671   2.914  13.267 -0.3624 -0.1360 -1.1603
14940TIP3   OH266310   2.779   5.325  11.805  0.1811 -0.2734  0.4092
14940TIP3    H166311   2.689   5.358  11.811 -0.4394 -1.6053 -0.8769
14940TIP3    H266312   2.799   5.294  11.893 -0.9562 -0.7506  0.5135
14941TIP3   OH266313   4.060   1.543  12.539  0.5380  0.2703  0.1023
14941TIP3    H166314   4.108   1.523  12.619  0.5540 -1.1130 -0.2164
14941TIP3    H266315   3.973   1.570  12.569  0.6241 -0.0072  0.6094
14942TIP3   OH266316   6.201   0.975  13.811 -0.2495  0.3109 -0.4381
14942TIP3    H166317   6.116   1.009  13.837 -0.0228  1.0645 -0.6676
14942TIP3    H266318   6.202   0.982  13.716  0.7026  1.8992 -0.3558
14943TIP3   OH266319   6.655   3.784   5.017 -0.5717 -0.0563 -0.3536
14943TIP3    H166320   6.643   3.776   5.112 -1.7431 -0.5450 -0.5243
14943TIP3    H266321   6.664   3.693   4.986  0.8851  0.1474 -0.6007
14944TIP3   OH266322   1.866   1.129  11.345 -0.3946  0.4004  0.0598
14944TIP3    H166323   1.961   1.131  11.337  0.1262 -0.7126  3.7846
14944TIP3    H266324   1.839   1.052  11.295  0.8226  0.0603 -0.1001
14945TIP3   OH266325   0.126   5.764  12.773 -0.0057  0.5530  0.1330
14945TIP3    H166326   0.141   5.676  12.739  0.6459  1.4027 -1.9133
14945TIP3    H266327   0.209   5.809  12.760 -1.0921  2.2540 -1.4523
14946TIP3   OH266328   3.794   6.293  15.596 -0.4500 -0.0078 -0.6210
14946TIP3    H166329   3.821   6.377  15.633 -1.4550 -0.7698  2.0780
14946TIP3    H266330   3.818   6.299  15.504 -0.0056  3.0175 -0.4204
14947TIP3   OH266331   6.682   1.882  12.101  0.5837  0.4227 -0.7256
14947TIP3    H166332   6.681   1.971  12.067 -0.6094  0.9551  0.6137
14947TIP3    H266333   6.764   1.875  12.149  0.3734  1.0458 -0.2637
14948TIP3   OH266334   0.736   2.171  15.637  0.0185 -0.6036  0.4532
14948TIP3    H166335   0.688   2.227  15.575  0.8098  0.6899  0.9613
14948TIP3    H266336   0.694   2.085  15.629  0.2702 -0.5789 -2.1009
14949TIP3   OH266337   3.225   2.288  14.956  0.1245  0.2202 -0.1299
14949TIP3    H166338   3.184   2.346  14.892  1.3309  1.1611 -0.0893
14949TIP3    H266339   3.312   2.270  14.920 -0.8015 -3.1298 -1.0844
14950TIP3   OH266340   1.346   0.291  15.215  0.0742  0.1261  0.2280
14950TIP3    H166341   1.367   0.374  15.259  2.1094 -0.7037  0.9228
14950TIP3    H266342   1.412   0.230  15.246  0.5545 -0.9928 -2.6775
14951TIP3   OH266343   1.622   6.389   1.686 -0.0900 -0.5294  0.1156
14951TIP3    H166344   1.677   6.458   1.649  0.1073 -1.1179 -0.7195
14951TIP3    H266345   1.645   6.311   1.636 -0.1631 -1.2476  1.1794
14952TIP3   OH266346   1.769   6.293   1.161 -0.4546 -0.6121  0.0611
14952TIP3    H166347   1.713   6.340   1.224 -0.5559 -0.6202 -0.0223
14952TIP3    H266348   1.843   6.351   1.147 -0.4545 -0.5895  0.1535
14953TIP3   OH266349   1.654   3.826  14.476  0.3122 -0.1068  0.0311
14953TIP3    H166350   1.712   3.759  14.512  0.7001 -0.1127 -0.5831
14953TIP3    H266351   1.661   3.814  14.381  2.3060  2.3695 -0.2462
14954TIP3   OH266352   4.429   4.318   0.796  0.2972  0.0095  0.8083
14954TIP3    H166353   4.520   4.343   0.812  0.0788  1.2013  0.2679
14954TIP3    H266354   4.386   4.329   0.881  0.3552  0.8546  0.7363
14955TIP3   OH266355   1.269   5.988   3.819  0.5122 -0.7080 -0.4520
14955TIP3    H166356   1.352   5.946   3.841  0.8436  0.0222 -0.2890
14955TIP3    H266357   1.287   6.037   3.739  0.0360 -1.1544 -0.8353
14956TIP3   OH266358   3.217   4.228   4.768  0.0457  0.6466  0.0092
14956TIP3    H166359   3.142   4.285   4.785 -0.6264 -0.2375  0.0665
14956TIP3    H266360   3.197   4.187   4.684  1.6181  2.2200 -1.1910
14957TIP3   OH266361   1.604   6.740   4.269 -0.4782  0.5790  0.2748
14957TIP3    H166362   1.622   6.692   4.350  2.8099  0.2762 -0.4919
14957TIP3    H266363   1.512   6.719   4.249 -0.6552 -1.3627  2.5691
14958TIP3   OH266364   1.296   3.434   3.882 -0.1283 -0.0484 -0.5419
14958TIP3    H166365   1.252   3.372   3.824 -0.0186 -0.3679 -0.2890
14958TIP3    H266366   1.370   3.384   3.918 -1.7550 -0.8081  2.0460
14959TIP3   OH266367   4.284   3.756  15.603  0.1491  0.5003  0.3247
14959TIP3    H166368   4.233   3.711  15.670 -0.0715  1.7468  1.0302
14959TIP3    H266369   4.251   3.721  15.520 -1.6323  1.0239  0.7723
14960TIP3   OH266370   4.507   4.015   0.875  0.6776 -0.1970  0.4091
14960TIP3    H166371   4.540   4.104   0.872  0.1094  0.0065  0.1020
14960TIP3    H266372   4.438   4.012   0.809 -0.3385 -0.4345  1.4442
14961TIP3   OH266373   2.486   3.471  16.148 -0.4641 -0.4082 -0.5906
14961TIP3    H166374   2.457   3.562  16.147  0.8761  0.0559 -2.2658
14961TIP3    H266375   2.405   3.421  16.158 -1.0355  0.9148  3.3769
14962TIP3   OH266376   0.352   4.851  11.003  0.3905 -0.2622 -0.8102
14962TIP3    H166377   0.417   4.843  10.932 -0.1243  1.4294 -1.4985
14962TIP3    H266378   0.274   4.807  10.969  0.7066 -1.0574 -0.5400
14963TIP3   OH266379   3.181   0.747  13.487 -0.4088 -0.3007 -0.6806
14963TIP3    H166380   3.171   0.827  13.436 -2.4193 -2.0441 -3.3272
14963TIP3    H266381   3.271   0.719  13.471  0.2953  1.3217  0.2300
14964TIP3   OH266382   3.512   5.166  15.313 -0.1458  0.1135  0.4131
14964TIP3    H166383   3.521   5.076  15.281  2.1270  0.3283  0.3052
14964TIP3    H266384   3.551   5.165  15.400  0.6979  1.1527  0.0703
14965TIP3   OH266385   1.895   6.072   3.226 -0.4009  0.1160 -0.3599
14965TIP3    H166386   1.913   6.024   3.307 -0.2555  0.8128  0.0273
14965TIP3    H266387   1.806   6.048   3.203 -0.7660  0.6184  0.5031
14966TIP3   OH266388   4.006   4.628   3.331 -0.0376 -0.1410 -0.1029
14966TIP3    H166389   3.966   4.542   3.316 -0.7598  0.5952 -2.9568
14966TIP3    H266390   4.098   4.608   3.351 -0.0778 -1.6024 -1.1801
14967TIP3   OH266391   5.803   6.317  11.845  0.1258  0.3043  0.5978
14967TIP3    H166392   5.761   6.390  11.891  0.7000  1.1588 -0.1982
14967TIP3    H266393   5.888   6.351  11.817  0.5978 -0.8182  0.5951
14968TIP3   OH266394   1.161   4.950   3.917 -0.2478 -0.0662 -0.4663
14968TIP3    H166395   1.248   4.989   3.911 -0.4223  0.9328  2.1451
14968TIP3    H266396   1.101   5.021   3.894 -0.4292 -0.4464 -1.2068
14969TIP3   OH266397   6.497   2.591  11.810 -0.7448 -0.8685  0.0391
14969TIP3    H166398   6.458   2.645  11.878 -2.1357 -1.6605 -0.0812
14969TIP3    H266399   6.545   2.523  11.858 -0.0205 -0.2442  0.2002
14970TIP3   OH266400   3.077   5.759  11.975  0.0098 -0.1137 -0.2301
14970TIP3    H166401   3.018   5.685  11.995  1.2374 -1.5615 -1.7135
14970TIP3    H266402   3.127   5.771  12.056 -2.3744  1.3171  1.1624
14971TIP3   OH266403   0.569   4.470  11.142  0.1733  0.1500 -0.0529
14971TIP3    H166404   0.620   4.420  11.206 -2.1108 -0.7016  1.2235
14971TIP3    H266405   0.626   4.476  11.065  1.4187 -2.4302  0.5702
14972TIP3   OH266406   5.878   3.389  16.666  0.2664 -0.0649  0.4718
14972TIP3    H166407   5.832   3.377  16.749 -0.7316 -0.3604 -0.1091
14972TIP3    H266408   5.899   3.301  16.637  3.0828  0.0753  1.6936
14973TIP3   OH266409   2.013   1.024   3.278 -0.1789  0.3245 -0.1787
14973TIP3    H166410   1.954   0.950   3.264 -0.4706  0.9666 -2.9248
14973TIP3    H266411   1.995   1.052   3.368 -0.8601 -2.1817  0.5582
14974TIP3   OH266412   2.466   3.882   0.001  0.3295  0.2903  0.3136
14974TIP3    H166413   2.543   3.885   0.057  1.0386 -0.7606 -0.5547
14974TIP3    H266414   2.393   3.864   0.060  0.5741  2.2203  1.2761
14975TIP3   OH266415   5.671   1.050  16.367 -0.6468  0.2052 -0.4485
14975TIP3    H166416   5.693   0.959  16.344 -0.9019  0.5778 -2.2886
14975TIP3    H266417   5.581   1.045  16.400 -0.3091 -0.3254  0.4473
14976TIP3   OH266418   6.390   2.849  15.334 -0.5935 -0.5521  0.3472
14976TIP3    H166419   6.441   2.805  15.403  1.7217  0.5238 -0.5616
14976TIP3    H266420   6.323   2.898  15.381 -0.2827 -1.3629  1.6939
14977TIP3   OH266421   5.530   0.410  13.275 -0.8173  0.9144  0.4081
14977TIP3    H166422   5.569   0.464  13.206 -1.3272  0.4613 -0.2502
14977TIP3    H266423   5.450   0.375  13.236  0.8147 -2.5099 -0.2220
14978TIP3   OH266424   4.892   2.331  11.185 -0.4410 -0.5364 -0.5994
14978TIP3    H166425   4.804   2.303  11.160  0.0529 -1.1638 -1.6808
14978TIP3    H266426   4.938   2.250  11.205  0.1541 -0.2792 -0.9210
14979TIP3   OH266427   3.326   3.809   5.152 -0.3922 -0.2311 -0.1917
14979TIP3    H166428   3.331   3.905   5.151 -0.3039 -0.2134  0.6860
14979TIP3    H266429   3.242   3.789   5.112 -0.9329  0.2773  0.6650
14980TIP3   OH266430   1.056   2.339  14.748  0.2270  0.3499 -0.3443
14980TIP3    H166431   1.114   2.399  14.702  1.0656  0.0340  0.2754
14980TIP3    H266432   1.020   2.282  14.679  0.3226  0.8198 -0.7818
14981TIP3   OH266433   1.679   2.782   4.595 -0.7504  0.3257 -0.0928
14981TIP3    H166434   1.641   2.757   4.511 -0.2417  1.8484 -0.8033
14981TIP3    H266435   1.604   2.803   4.651 -1.0584  0.0622 -0.4038
14982TIP3   OH266436   4.843   3.968   4.299 -0.2391  0.2565 -0.2703
14982TIP3    H166437   4.917   3.957   4.240 -0.9651  1.4688 -1.4519
14982TIP3    H266438   4.767   3.935   4.250 -0.7247  0.4782  0.3132
14983TIP3   OH266439   0.600   4.896   0.398  0.6733 -0.0301  1.0917
14983TIP3    H166440   0.681   4.924   0.356  0.3712 -1.5797 -0.6758
14983TIP3    H266441   0.532   4.953   0.361  0.7047  0.0522  1.1611
14984TIP3   OH266442   4.457   2.079  15.049 -0.2904  0.2525 -0.0705
14984TIP3    H166443   4.474   2.096  15.141  0.7714 -0.8744 -0.0371
14984TIP3    H266444   4.398   2.150  15.022 -1.7276 -0.1641  1.7890
14985TIP3   OH266445   0.562   5.817   0.039 -0.9137 -0.2682 -0.0422
14985TIP3    H166446   0.605   5.766  -0.030  0.0206 -0.7388  0.8745
14985TIP3    H266447   0.553   5.905   0.001  1.3417 -0.0050 -0.0963
14986TIP3   OH266448   6.587   6.107  12.821  0.3160 -0.1389 -0.0780
14986TIP3    H166449   6.549   6.194  12.824 -0.6901 -0.5727  0.3105
14986TIP3    H266450   6.562   6.067  12.904  2.5272 -0.1038  0.6674
14987TIP3   OH266451   1.272   3.063   1.952  0.1727  0.5680  0.6402
14987TIP3    H166452   1.336   3.023   2.012  0.9638  0.6981 -0.1068
14987TIP3    H266453   1.290   3.022   1.868  0.4731  1.9117  0.0300
14988TIP3   OH266454   2.065   5.726  16.895  0.4664 -0.5323  0.0614
14988TIP3    H166455   2.132   5.785  16.861 -0.9105  1.0701 -0.0297
14988TIP3    H266456   2.012   5.703  16.818 -1.4112  1.4329  0.6607
14989TIP3   OH266457   5.315   5.530  13.013 -0.3252 -0.0186  0.3315
14989TIP3    H166458   5.377   5.594  12.979  0.0412 -0.0994  0.8329
14989TIP3    H266459   5.363   5.447  13.012  0.1011  0.1572  2.0573
14990TIP3   OH266460   1.845   1.254   0.687  0.2493 -0.0516 -0.3367
14990TIP3    H166461   1.914   1.225   0.747  0.1328 -1.9584 -1.0307
14990TIP3    H266462   1.765   1.253   0.739 -0.2110 -3.6244 -0.8250
14991TIP3   OH266463   6.143   1.292  15.073 -0.4043 -0.1744 -0.1813
14991TIP3    H166464   6.084   1.315  15.002 -0.5013  0.2298  0.0224
14991TIP3    H266465   6.099   1.324  15.152 -1.5261 -2.8868  0.3983
14992TIP3   OH266466   6.418   4.516  11.701  0.6000  0.5087 -0.1912
14992TIP3    H166467   6.355   4.587  11.717 -0.4602 -0.2464 -0.8841
14992TIP3    H266468   6.457   4.537  11.617 -0.4258 -0.2054 -0.8697
14993TIP3   OH266469   1.107   4.975   2.128  0.1858  0.2628  0.2568
14993TIP3    H166470   1.105   5.037   2.201  1.0504  0.5219  0.0775
14993TIP3    H266471   1.154   4.899   2.163  0.0737  0.1437  0.1493
14994TIP3   OH266472   1.508   1.992   1.946  0.1040  0.8704  0.2249
14994TIP3    H166473   1.553   1.961   2.024  0.2419 -0.3980 -0.3341
14994TIP3    H266474   1.515   2.088   1.950  0.1037  0.8210  1.7420
14995TIP3   OH266475   0.872   1.119  16.162  0.0350  0.0879 -0.0939
14995TIP3    H166476   0.885   1.125  16.068 -0.0140 -0.3337 -0.1270
14995TIP3    H266477   0.821   1.039  16.175  2.4046 -1.4417  0.5071
14996TIP3   OH266478   4.625   4.202   4.614  0.4983  0.3537  0.5722
14996TIP3    H166479   4.700   4.219   4.558 -0.2304  0.6092 -0.3612
14996TIP3    H266480   4.570   4.142   4.563 -1.3815  2.5044 -0.1520
14997TIP3   OH266481   4.634   3.146   5.279 -0.3865  0.2373  0.4107
14997TIP3    H166482   4.590   3.150   5.194  0.3052  1.5632  0.0727
14997TIP3    H266483   4.630   3.236   5.312 -0.0790 -0.1301  1.4841
14998TIP3   OH266484   5.847   6.431   1.615  0.7084  0.1281  0.1853
14998TIP3    H166485   5.893   6.399   1.693  1.8773 -1.0883 -0.9581
14998TIP3    H266486   5.762   6.460   1.648  0.6945 -1.4901  1.7331
14999TIP3   OH266487   2.591   1.958   1.441 -0.3907 -0.1234 -0.3633
14999TIP3    H166488   2.641   1.884   1.406  0.4359  0.9652 -1.5844
14999TIP3    H266489   2.658   2.018   1.474 -1.0162  0.4023 -0.0231
15000TIP3   OH266490   5.560   0.257  12.147 -0.1779 -0.1803  0.4967
15000TIP3    H166491   5.573   0.351  12.158 -1.5397  0.1942 -0.8641
15000TIP3    H266492   5.531   0.247  12.056  3.4853 -2.2959 -0.6493
15001TIP3   OH266493   5.968   1.029   3.337 -0.0804  0.0133 -0.2552
15001TIP3    H166494   5.888   0.989   3.302 -0.6736 -1.3072  2.3260
15001TIP3    H266495   5.940   1.117   3.365 -0.0977  0.2992 -1.1246
15002TIP3   OH266496   2.139   5.729   0.151 -0.3325  0.3160  0.4650
15002TIP3    H166497   2.114   5.645   0.191 -0.2927 -0.8690 -1.8341
15002TIP3    H266498   2.064   5.754   0.098  0.7840  0.1237 -1.2820
15003TIP3   OH266499   5.157   4.869  16.689 -0.8161  0.5925  0.0500
15003TIP3    H166500   5.134   4.854  16.780  1.0547  3.0862  1.0561
15003TIP3    H266501   5.103   4.808  16.640 -1.0643 -1.6536  2.8677
15004TIP3   OH266502   2.591   4.217   5.174  0.5190  0.1764 -0.4772
15004TIP3    H166503   2.655   4.178   5.115  0.5026  1.0314 -1.0899
15004TIP3    H266504   2.628   4.206   5.261  2.1338  1.7315 -0.8995
15005TIP3   OH266505   2.229   1.182   2.315  0.1835  0.1006  0.4068
15005TIP3    H166506   2.308   1.227   2.345 -0.0562  1.8467 -1.3677
15005TIP3    H266507   2.162   1.251   2.315  0.0693  0.1695 -3.5366
15006TIP3   OH266508   3.453   6.593  16.452 -0.4146  1.0321 -0.0109
15006TIP3    H166509   3.400   6.627  16.380 -0.0245  3.1611  0.6243
15006TIP3    H266510   3.540   6.629  16.437  0.1413 -0.0478  0.5187
15007TIP3   OH266511   3.377   3.669   5.855 -0.1302 -0.4239  0.2910
15007TIP3    H166512   3.309   3.601   5.852 -0.7662  0.1939  0.4946
15007TIP3    H266513   3.428   3.649   5.933 -1.3390  0.2868  1.2832
15008TIP3   OH266514   3.782   2.969  13.640  0.3202  0.4238  0.2612
15008TIP3    H166515   3.831   2.887  13.647  2.0789  1.3958  0.0245
15008TIP3    H266516   3.757   2.974  13.548  2.4368  1.2772 -0.3488
15009TIP3   OH266517   6.642   3.123  14.201  0.0921  0.7522  0.3940
15009TIP3    H166518   6.650   3.176  14.279 -1.3035  0.1038  1.0222
15009TIP3    H266519   6.556   3.146  14.165  0.7924  1.1910 -1.0776
15010TIP3   OH266520   5.177   5.130  14.550 -0.2399 -0.1085 -0.4149
15010TIP3    H166521   5.145   5.041  14.533  1.8771 -0.6716 -1.8802
15010TIP3    H266522   5.159   5.144  14.642 -1.5099 -1.6723 -0.3703
15011TIP3   OH266523   4.719   2.130  13.246 -0.2267  0.0328  0.0674
15011TIP3    H166524   4.690   2.219  13.225  0.0067 -0.1938 -1.3407
15011TIP3    H266525   4.796   2.117  13.190  1.4005 -0.1208  2.1850
15012TIP3   OH266526   6.118   6.752   5.300 -0.4062 -0.0503 -0.1964
15012TIP3    H166527   6.030   6.735   5.331 -0.1469  1.8079  1.8081
15012TIP3    H266528   6.175   6.710   5.364  0.1643 -0.1111 -0.7305
15013TIP3   OH266529   5.916   3.859  10.859 -0.6889 -0.6423  0.4284
15013TIP3    H166530   5.890   3.775  10.821  0.8219 -1.4022  1.0003
15013TIP3    H266531   6.010   3.864  10.843 -0.7524  0.9223  0.4705
15014TIP3   OH266532   4.415   3.447  15.687  0.0278 -0.3805  0.4257
15014TIP3    H166533   4.359   3.427  15.611 -0.1230  0.1756  0.3884
15014TIP3    H266534   4.491   3.491  15.650  0.6762 -1.4536  0.4370
15015TIP3   OH266535   2.232   3.306  14.288  0.5365 -0.2679  0.1096
15015TIP3    H166536   2.278   3.389  14.300  1.4228 -0.8297  0.6506
15015TIP3    H266537   2.172   3.301  14.363  0.1129  0.1130 -0.1970
15016TIP3   OH266538   3.088   1.380   0.306 -0.1640  0.0784 -0.2872
15016TIP3    H166539   3.170   1.418   0.273 -0.9881  2.4220  0.1579
15016TIP3    H266540   3.020   1.414   0.248 -1.0549 -0.0409  0.6547
15017TIP3   OH266541   4.210   5.513  12.058 -0.5350 -1.0222 -0.8078
15017TIP3    H166542   4.187   5.453  12.129  1.7464 -0.6202  0.3527
15017TIP3    H266543   4.203   5.600  12.097 -0.8085 -0.6944 -1.5694
15018TIP3   OH266544   0.151   4.486   2.744  0.4363 -0.3232  0.1026
15018TIP3    H166545   0.188   4.574   2.737  2.9630 -1.3576 -1.0629
15018TIP3    H266546   0.168   4.460   2.835  0.5713  0.0417  0.1827
15019TIP3   OH266547   4.111   3.840  16.991 -0.2855  0.0945 -0.0700
15019TIP3    H166548   4.192   3.845  17.043  0.7018 -0.8354 -1.4420
15019TIP3    H266549   4.048   3.893  17.040  1.1222  0.7770  1.0937
15020TIP3   OH266550   6.001   0.335  10.972 -1.1228  0.3037 -0.5755
15020TIP3    H166551   5.976   0.252  11.013  0.0909  0.4038  0.4283
15020TIP3    H266552   6.093   0.324  10.950 -0.8959  1.4484 -0.2677
15021TIP3   OH266553   0.922   3.491   2.165  0.3046 -0.0803 -0.3621
15021TIP3    H166554   0.871   3.548   2.222  0.4016 -1.9767  1.7813
15021TIP3    H266555   0.859   3.456   2.103  0.3024  2.4773 -1.9130
15022TIP3   OH266556   5.029   6.027   2.948  0.1985  0.2831 -0.4352
15022TIP3    H166557   5.085   5.960   2.988  0.0198  0.4002  0.0189
15022TIP3    H266558   4.960   5.978   2.904  1.0739  0.0979 -1.6805
15023TIP3   OH266559   2.351   1.015   1.415  0.4083 -0.0145  0.4130
15023TIP3    H166560   2.438   1.020   1.375  0.0875  2.5365 -0.1602
15023TIP3    H266561   2.348   1.089   1.476 -1.3613 -0.0296  0.4075
15024TIP3   OH266562   5.135   2.026   3.235 -0.1165  0.1630  0.4185
15024TIP3    H166563   5.177   2.099   3.190  1.7819 -0.9362  0.3210
15024TIP3    H266564   5.058   2.065   3.276  0.2991  2.0073 -0.4321
15025TIP3   OH266565   3.390   3.119  11.201  0.3759 -0.1121  0.0766
15025TIP3    H166566   3.424   3.193  11.152  0.4975  0.3846  0.8994
15025TIP3    H266567   3.313   3.153  11.247 -0.2881 -0.8078 -0.4800
15026TIP3   OH266568   6.226   3.280  11.614 -0.5515  0.0033 -0.0777
15026TIP3    H166569   6.197   3.262  11.704 -0.2609 -0.7964 -0.1307
15026TIP3    H266570   6.150   3.261  11.560 -1.0284  1.4175  0.0616
15027TIP3   OH266571   5.568   4.889   4.698 -0.2578  0.3262 -0.5059
15027TIP3    H166572   5.495   4.922   4.646 -1.7750 -3.4516 -1.1000
15027TIP3    H266573   5.550   4.921   4.787 -1.5406  1.0424 -0.9987
15028TIP3   OH266574   4.946   2.017  11.172  0.0938  0.5284 -0.2864
15028TIP3    H166575   5.028   2.066  11.176  1.1289 -1.1840  1.7755
15028TIP3    H266576   4.972   1.926  11.187 -2.1662 -0.0862  0.2271
15029TIP3   OH266577   4.841   0.050  16.554 -0.4507  0.1691  0.0647
15029TIP3    H166578   4.899  -0.011  16.509  0.9072 -0.0037  1.9347
15029TIP3    H266579   4.810   0.110  16.485 -0.8487 -1.8339 -1.5967
15030TIP3   OH266580   5.262   4.740   1.911 -0.3964  0.0996  0.0571
15030TIP3    H166581   5.240   4.692   1.990  0.5824 -0.1693  0.1872
15030TIP3    H266582   5.356   4.726   1.900 -0.3036  1.0633 -0.5239
15031TIP3   OH266583   1.638   3.026  17.029 -0.1593  1.0308 -0.1320
15031TIP3    H166584   1.634   3.035  16.934 -0.2101 -0.1012 -0.2508
15031TIP3    H266585   1.607   2.937  17.046 -0.8808  1.4875  1.0044
15032TIP3   OH266586   5.321   4.644   0.335 -0.3301  0.0057  0.7443
15032TIP3    H166587   5.289   4.734   0.333 -0.1595  0.0828 -1.4284
15032TIP3    H266588   5.281   4.602   0.258  3.7550 -0.1535 -1.6032
15033TIP3   OH266589   1.358   0.969   0.539 -0.7573  0.0509 -0.3539
15033TIP3    H166590   1.429   1.031   0.560  0.5217 -2.1574  2.5454
15033TIP3    H266591   1.400   0.902   0.485 -1.8860  1.0551 -2.6032
15034TIP3   OH266592   0.892   5.816  14.177  0.5597  1.0953 -0.6578
15034TIP3    H166593   0.953   5.881  14.142 -0.0256  1.5070 -0.9218
15034TIP3    H266594   0.845   5.784  14.100  1.7429 -0.6127 -0.7241
15035TIP3   OH266595   0.319   2.976   0.328  0.2872 -0.3649 -0.1483
15035TIP3    H166596   0.401   2.954   0.372 -0.2538 -0.1754  0.9801
15035TIP3    H266597   0.337   2.962   0.235  1.8080  0.3432  0.0146
15036TIP3   OH266598   6.435   5.669  12.839 -0.3902 -0.6869 -0.0875
15036TIP3    H166599   6.357   5.623  12.808 -0.7395 -0.0341 -0.1899
15036TIP3    H266600   6.427   5.757  12.803 -0.3126 -0.1945  1.0514
15037TIP3   OH266601   6.572   4.248   4.944  0.8929  0.3654  0.0257
15037TIP3    H166602   6.616   4.164   4.931  1.4425  0.5978  0.3364
15037TIP3    H266603   6.511   4.232   5.017  1.6462  0.4625  0.6952
15038TIP3   OH266604   6.715   2.036   2.207  0.4497 -0.1063  0.1225
15038TIP3    H166605   6.630   2.060   2.244  0.3861 -2.0097  1.3502
15038TIP3    H266606   6.741   1.957   2.254  2.9388  0.4221 -0.1902
15039TIP3   OH266607   5.024   0.138  15.450  0.4875  0.2618  0.1136
15039TIP3    H166608   5.011   0.064  15.391  1.2775  0.8084 -0.7637
15039TIP3    H266609   5.058   0.208  15.394 -0.8540  1.5158  0.7783
15040TIP3   OH266610   0.084   5.727  14.376  0.3842 -0.2496  0.4527
15040TIP3    H166611   0.013   5.787  14.353 -0.4173 -1.4648 -0.3878
15040TIP3    H266612   0.082   5.661  14.306  1.5185 -0.9994  1.1100
15041TIP3   OH266613   5.135   0.513   5.318 -0.4047  0.1102  0.2945
15041TIP3    H166614   5.150   0.574   5.246 -0.5438  0.8929  0.9168
15041TIP3    H266615   5.213   0.522   5.374  0.6737 -1.9789 -0.7639
15042TIP3   OH266616   4.845   0.387   0.314  0.1786  0.1072  0.7934
15042TIP3    H166617   4.869   0.452   0.248  2.4786 -0.4216  1.0274
15042TIP3    H266618   4.811   0.313   0.263  0.3047  0.3665  0.3285
15043TIP3   OH266619   5.656   0.078   0.714  0.2972 -0.4036  0.1970
15043TIP3    H166620   5.663   0.125   0.797 -0.8753  1.4362 -0.6718
15043TIP3    H266621   5.709   0.129   0.653 -0.0605 -0.8772 -0.5200
15044TIP3   OH266622   1.697   2.952   6.062  0.2671  0.4889  0.6317
15044TIP3    H166623   1.664   2.881   6.007 -0.9021  0.6092  1.1639
15044TIP3    H266624   1.791   2.933   6.071 -0.0061 -0.9445  0.6787
15045TIP3   OH266625   2.283   2.497  16.209 -0.0681 -0.2983 -0.5009
15045TIP3    H166626   2.240   2.550  16.142 -1.4605  0.0150  0.5949
15045TIP3    H266627   2.374   2.492  16.180 -0.4429  0.5485 -1.9520
15046TIP3   OH266628   5.152   1.605   2.615  0.2239 -0.3990  0.4838
15046TIP3    H166629   5.122   1.677   2.560 -0.7437  0.1854  1.7245
15046TIP3    H266630   5.145   1.528   2.559  0.7640  0.3783 -0.6948
15047TIP3   OH266631   3.572   6.570  14.588 -0.1184 -0.2046 -0.0576
15047TIP3    H166632   3.478   6.588  14.581  0.1759  2.2051  1.2246
15047TIP3    H266633   3.601   6.561  14.498 -1.4135 -0.0645 -0.5165
15048TIP3   OH266634   1.768   4.456  10.710  0.2530 -0.0336  0.3215
15048TIP3    H166635   1.720   4.509  10.773  1.1355 -0.6579  1.5779
15048TIP3    H266636   1.844   4.424  10.759 -1.0605 -3.8751  0.2238
15049TIP3   OH266637   1.664   2.415   0.299  0.3182 -0.0425 -0.1162
15049TIP3    H166638   1.576   2.380   0.286  0.1158  0.4484 -0.1133
15049TIP3    H266639   1.698   2.367   0.375  0.0021 -0.1434 -0.0365
15050TIP3   OH266640   5.298   2.956  12.528 -0.0109 -0.5014 -0.5126
15050TIP3    H166641   5.275   2.905  12.605 -0.6523 -1.1161 -1.0910
15050TIP3    H266642   5.361   3.021  12.559 -0.2111 -0.7848  0.5023
15051TIP3   OH266643   5.246   4.821  11.403  0.1168  0.3673  0.1990
15051TIP3    H166644   5.330   4.783  11.425 -0.1095 -0.2850 -0.0475
15051TIP3    H266645   5.182   4.751  11.419 -0.2564  0.4988 -0.6726
15052TIP3   OH266646   2.391   5.158   5.848  0.4303  0.0406  0.1295
15052TIP3    H166647   2.411   5.101   5.922  0.5707  0.4700  0.4280
15052TIP3    H266648   2.299   5.141   5.828  0.6509 -0.7847 -0.2268
15053TIP3   OH266649   5.589   4.583  16.006 -0.7641  0.2522  0.0553
15053TIP3    H166650   5.609   4.529  16.083  0.0431  0.3601 -0.0742
15053TIP3    H266651   5.521   4.643  16.036 -0.5074  0.2426  0.6687
15054TIP3   OH266652   0.423   6.476   0.964  0.0270 -0.1458 -0.3499
15054TIP3    H166653   0.352   6.430   0.919  0.0787  0.4033 -1.0165
15054TIP3    H266654   0.488   6.409   0.981 -0.8823 -0.7771  0.7887
15055TIP3   OH266655   5.612   3.782   0.428 -0.6760  0.2191 -0.2114
15055TIP3    H166656   5.592   3.713   0.366  0.1761  1.4097 -1.8940
15055TIP3    H266657   5.559   3.856   0.400 -0.2269  0.8023  0.4395
15056TIP3   OH266658   0.705   4.627   0.518  0.3828 -0.4091 -0.1442
15056TIP3    H166659   0.722   4.568   0.444 -1.0735 -0.1591 -0.7105
15056TIP3    H266660   0.699   4.714   0.478 -2.4193 -0.5033 -0.0889
15057TIP3   OH266661   6.634   2.548   1.273 -0.0004  0.0690 -0.2597
15057TIP3    H166662   6.611   2.543   1.180  0.9821 -1.1483 -0.4648
15057TIP3    H266663   6.715   2.498   1.280 -0.4151 -0.4171  1.3787
15058TIP3   OH266664   3.489   3.597  10.974 -0.1001  0.1172  0.2115
15058TIP3    H166665   3.538   3.661  11.027 -0.5263  0.0541  0.6911
15058TIP3    H266666   3.398   3.606  11.003 -0.2973 -0.1145 -0.3228
15059TIP3   OH266667   3.842   5.384  15.891  0.9453  0.2614  0.1856
15059TIP3    H166668   3.842   5.307  15.948  0.6435  0.1808  0.0759
15059TIP3    H266669   3.855   5.349  15.803  0.0232  0.2704  0.0449
15060TIP3   OH266670   3.575   4.400   6.921  0.3828 -0.0197  0.2724
15060TIP3    H166671   3.582   4.333   6.853  1.0213  1.0510 -0.7625
15060TIP3    H266672   3.655   4.390   6.972 -0.3455 -1.1738  1.2232
15061TIP3   OH266673   2.334   3.411   0.612 -0.3671 -0.3693 -0.3517
15061TIP3    H166674   2.337   3.425   0.517 -1.6401  2.6528 -0.0474
15061TIP3    H266675   2.406   3.464   0.646 -1.4887  0.6203  0.5244
15062TIP3   OH266676   2.930   1.289  15.865  0.2890 -0.1388 -0.4179
15062TIP3    H166677   2.925   1.304  15.960 -1.4349  0.0971 -0.5197
15062TIP3    H266678   3.022   1.265  15.850  0.0781 -2.7709  1.6795
15063TIP3   OH266679   3.870   4.213   4.468 -0.3021  0.4621  0.1943
15063TIP3    H166680   3.776   4.230   4.469  0.0434  2.7805 -0.9010
15063TIP3    H266681   3.907   4.278   4.527  0.8207  1.5745 -1.6343
15064TIP3   OH266682   3.080   0.641  14.632 -0.0295  0.1281  0.6337
15064TIP3    H166683   3.168   0.678  14.622 -0.1368  0.4688  0.9306
15064TIP3    H266684   3.095   0.555  14.671  0.0764  0.9318  2.4665
15065TIP3   OH266685   3.442   0.604   5.415  0.2432 -0.1976 -0.8708
15065TIP3    H166686   3.447   0.556   5.333  0.8767 -1.0123 -0.3829
15065TIP3    H266687   3.357   0.647   5.413  0.1800 -0.3455 -1.8696
15066TIP3   OH266688   5.360   2.387   3.614 -0.2011  0.5965 -0.2755
15066TIP3    H166689   5.411   2.306   3.611  1.5513  1.5691  1.3087
15066TIP3    H266690   5.394   2.440   3.541  0.6455  0.9855  0.3855
15067TIP3   OH266691   1.060   3.401  10.422 -0.3170 -0.0747 -0.7138
15067TIP3    H166692   1.008   3.460  10.477 -1.2323 -2.4827  1.1959
15067TIP3    H266693   1.147   3.441  10.420 -1.3401  2.3086 -1.1708
15068TIP3   OH266694   5.060   4.848   3.082  0.0143 -0.0328 -0.2307
15068TIP3    H166695   5.080   4.922   3.140 -0.6634  0.8775 -1.1054
15068TIP3    H266696   4.979   4.811   3.117 -0.8189  0.9952 -0.9862
15069TIP3   OH266697   5.158   6.640  13.433  0.1971  0.7314  0.0260
15069TIP3    H166698   5.097   6.569  13.453  1.5004 -0.8016 -1.1419
15069TIP3    H266699   5.114   6.692  13.365  0.8296 -1.4345 -2.1732
15070TIP3   OH266700   0.374   1.571   1.933  0.3147  0.1116 -0.4159
15070TIP3    H166701   0.421   1.655   1.928 -0.5085  0.5261 -3.8874
15070TIP3    H266702   0.440   1.506   1.909 -0.0509  0.3594 -2.2646
15071TIP3   OH266703   3.612   0.307  10.494 -0.4336  0.4682  0.3878
15071TIP3    H166704   3.573   0.394  10.505  1.2312  1.4913 -1.1919
15071TIP3    H266705   3.680   0.319  10.428 -1.4105 -2.4340 -1.3882
15072TIP3   OH266706   0.382   5.544   0.284 -0.0268  0.0439  0.0290
15072TIP3    H166707   0.398   5.462   0.236  0.5827 -0.2219  0.6676
15072TIP3    H266708   0.419   5.612   0.228 -0.5929 -0.1065 -0.5375
15073TIP3   OH266709   4.316   6.249   0.996 -0.2436  0.6544  0.2036
15073TIP3    H166710   4.359   6.309   0.935  1.0488  0.4627  0.8831
15073TIP3    H266711   4.271   6.186   0.940 -0.0363  1.1499 -0.5345
15074TIP3   OH266712   1.047   2.936  14.116 -0.2786  0.2709 -0.1960
15074TIP3    H166713   1.140   2.911  14.118 -0.6632 -1.2909 -0.3909
15074TIP3    H266714   1.019   2.932  14.207 -0.6482 -1.3360 -0.3602
15075TIP3   OH266715   0.079   0.981  15.109 -0.2349 -0.0140 -0.6040
15075TIP3    H166716   0.124   0.949  15.187  2.1258  1.7160 -1.1561
15075TIP3    H266717   0.103   0.919  15.041 -1.0309 -0.6570 -0.3153
15076TIP3   OH266718   3.948   1.887   3.321  0.3232 -0.2571  0.0407
15076TIP3    H166719   3.980   1.853   3.237  4.7585 -0.3708  1.5168
15076TIP3    H266720   3.973   1.979   3.320 -0.0479 -0.1342  1.0133
15077TIP3   OH266721   1.472   2.587   1.126 -0.0688 -0.2231 -0.5681
15077TIP3    H166722   1.393   2.550   1.086 -1.5489  1.1775  0.8953
15077TIP3    H266723   1.439   2.642   1.198  2.2671  0.1831  0.2809
15078TIP3   OH266724   4.193   3.874   1.798 -0.3064 -0.1706 -0.5774
15078TIP3    H166725   4.127   3.880   1.868  0.5601  1.6449  0.1373
15078TIP3    H266726   4.155   3.924   1.725  0.7108  1.9179  0.2499
15079TIP3   OH266727   6.361   1.457   1.327  0.4636 -0.5137 -0.4926
15079TIP3    H166728   6.273   1.487   1.347 -0.1893 -1.4766 -1.8030
15079TIP3    H266729   6.397   1.431   1.412  0.1294  1.4686  0.2947
15080TIP3   OH266730   6.678   5.088  13.223 -0.5531 -0.2958 -0.4689
15080TIP3    H166731   6.674   5.182  13.241 -0.4686 -0.4264  0.2642
15080TIP3    H266732   6.766   5.075  13.186 -0.4328 -0.1445 -0.2390
15081TIP3   OH266733   5.779   4.948  13.718  0.2227 -0.1877 -0.0781
15081TIP3    H166734   5.859   4.936  13.770  0.4590 -0.2053 -0.4436
15081TIP3    H266735   5.748   4.859  13.702 -0.5061 -0.1486  1.0369
15082TIP3   OH266736   2.341   0.155   5.850 -0.2550 -0.1961  0.3002
15082TIP3    H166737   2.261   0.180   5.896 -1.3108 -0.1382 -1.4668
15082TIP3    H266738   2.411   0.205   5.894 -1.2891  0.3496  1.3673
15083TIP3   OH266739   2.213   0.760   2.111  0.3523  0.4994  0.6694
15083TIP3    H166740   2.210   0.810   2.029  2.5594 -0.4189 -0.0655
15083TIP3    H266741   2.122   0.749   2.136 -0.3848  1.1564 -1.4645
15084TIP3   OH266742   2.067   5.850  12.183  0.3364 -0.0112 -0.6347
15084TIP3    H166743   2.129   5.787  12.147  1.2354 -0.0859  0.9614
15084TIP3    H266744   2.011   5.799  12.241  0.4431  0.4837 -0.0860
15085TIP3   OH266745   3.654   1.209  16.905  0.4339 -0.3948 -0.1008
15085TIP3    H166746   3.622   1.123  16.878  1.0204 -0.7844  0.3794
15085TIP3    H266747   3.639   1.266  16.830 -4.0399  0.2336  1.0178
15086TIP3   OH266748   2.081   3.657   5.055  0.1572 -0.7000 -0.5710
15086TIP3    H166749   2.128   3.656   4.971  0.1255 -1.7184 -0.5851
15086TIP3    H266750   2.067   3.750   5.073  2.3857 -0.3165 -0.4668
15087TIP3   OH266751   3.950   6.521  14.097  0.3673  0.1125 -0.2769
15087TIP3    H166752   3.905   6.568  14.167 -4.2018 -0.0086 -2.7760
15087TIP3    H266753   3.978   6.438  14.137 -2.3203 -0.0837  1.4076
15088TIP3   OH266754   0.132   1.569  14.612  0.1556  0.6133  0.4536
15088TIP3    H166755   0.174   1.651  14.638 -0.8835  1.4006 -0.2577
15088TIP3    H266756   0.205   1.509  14.597  0.8750  0.8788  2.6313
15089TIP3   OH266757   1.203   3.026  16.266 -0.5536  0.6066 -0.0192
15089TIP3    H166758   1.216   3.043  16.172  0.9817 -1.7877 -0.3235
15089TIP3    H266759   1.272   3.077  16.309  0.6344 -0.5607 -0.4741
15090TIP3   OH266760   4.661   1.333  14.618 -0.0800 -0.4657  0.0194
15090TIP3    H166761   4.723   1.392  14.660 -0.7088 -1.5503  2.6115
15090TIP3    H266762   4.713   1.287  14.552  1.3996  0.0433  0.7826
15091TIP3   OH266763   2.003   5.557   1.815  0.1085 -0.1046 -0.3527
15091TIP3    H166764   2.068   5.614   1.855  2.7942 -1.7583 -1.9366
15091TIP3    H266765   2.021   5.470   1.852 -0.4687 -0.7938 -1.5981
15092TIP3   OH266766   3.687   2.255   6.296 -0.4191  0.5250 -0.2794
15092TIP3    H166767   3.715   2.244   6.387  0.3975  1.0597 -0.4469
15092TIP3    H266768   3.614   2.315   6.300  2.0229  3.7557 -0.2212
15093TIP3   OH266769   5.893   4.075   1.829  0.0204  0.1788  0.4196
15093TIP3    H166770   5.977   4.059   1.787 -0.7741  0.7239 -1.4871
15093TIP3    H266771   5.913   4.135   1.901  1.4555 -0.9602  1.0143
15094TIP3   OH266772   3.422   1.075  12.139  0.1990  0.3826 -0.0929
15094TIP3    H166773   3.368   1.152  12.158  1.5027  1.0736  1.0710
15094TIP3    H266774   3.361   1.002  12.137 -1.1576  1.4680 -1.6749
15095TIP3   OH266775   4.569   6.042   1.146  0.6335  0.2567 -0.3856
15095TIP3    H166776   4.577   6.010   1.056  0.2779  0.9046 -0.6503
15095TIP3    H266777   4.532   5.967   1.194 -1.0286  0.5045 -1.1847
15096TIP3   OH266778   0.728   0.481  11.894 -0.5586 -0.2429  0.6440
15096TIP3    H166779   0.786   0.419  11.938 -0.0503 -1.7365 -1.9415
15096TIP3    H266780   0.641   0.443  11.905 -0.2201 -1.6974 -1.1805
15097TIP3   OH266781   1.003   5.371  10.830  0.6297 -0.0772  0.3115
15097TIP3    H166782   0.999   5.454  10.783 -1.8784 -0.6715 -0.6851
15097TIP3    H266783   0.946   5.384  10.906  0.7701 -0.6830  0.5274
15098TIP3   OH266784   1.315   1.308   4.375  0.5021  0.0066  0.0812
15098TIP3    H166785   1.370   1.354   4.311  1.3960 -1.1649 -0.0310
15098TIP3    H266786   1.317   1.364   4.452  0.7751  0.6284 -0.3645
15099TIP3   OH266787   2.941   0.608  12.486 -0.4155 -0.2020  0.3901
15099TIP3    H166788   2.957   0.697  12.517  1.2669 -0.5784  0.7591
15099TIP3    H266789   2.926   0.617  12.392 -2.6490  0.6674  0.7824
15100TIP3   OH266790   5.301   0.306  13.732  0.3875 -0.1933 -0.2707
15100TIP3    H166791   5.345   0.313  13.647 -0.4711 -0.2473 -0.7400
15100TIP3    H266792   5.308   0.394  13.770  2.5828 -0.6691  0.5607
15101TIP3   OH266793   6.432   0.655   6.124  0.1981  0.2118 -0.1696
15101TIP3    H166794   6.463   0.690   6.207  0.9734 -1.7404  0.4376
15101TIP3    H266795   6.337   0.663   6.128  0.2925  1.2706  0.3390
15102TIP3   OH266796   3.195   1.717   3.248  0.1005 -0.0009 -0.7585
15102TIP3    H166797   3.136   1.788   3.223  0.5061  0.2742 -0.9512
15102TIP3    H266798   3.266   1.721   3.183  1.8599  1.5538  1.1265
15103TIP3   OH266799   2.408   4.322  11.878 -0.5531  0.2011  0.2241
15103TIP3    H166800   2.437   4.363  11.960  1.0816  0.4662 -0.4441
15103TIP3    H266801   2.390   4.231  11.901 -1.0094  0.4896  1.0493
15104TIP3   OH266802   5.086   5.125   5.985  0.4029 -0.5819  0.6701
15104TIP3    H166803   5.021   5.188   5.952  1.8024  0.1667 -0.7920
15104TIP3    H266804   5.115   5.163   6.068  0.9702  0.5490 -0.0164
15105TIP3   OH266805   5.836   1.544  13.386  0.0807 -0.3460 -0.2081
15105TIP3    H166806   5.831   1.452  13.410  0.2039 -0.3232 -0.0970
15105TIP3    H266807   5.895   1.546  13.310 -0.8413 -0.5011 -0.9458
15106TIP3   OH266808   4.465   4.081  16.381  0.4846 -0.6438 -0.1017
15106TIP3    H166809   4.470   3.995  16.339 -0.6459  0.2726 -2.3070
15106TIP3    H266810   4.380   4.082  16.424 -0.5541  0.1161 -2.0457
15107TIP3   OH266811   1.736   0.544  13.801  0.1398  0.2581  0.0351
15107TIP3    H166812   1.683   0.464  13.812 -1.1604  1.1872  0.7899
15107TIP3    H266813   1.737   0.584  13.888 -1.9116  2.6736 -0.9404
15108TIP3   OH266814   2.754   1.746  16.070  0.9947  0.1043  0.0077
15108TIP3    H166815   2.714   1.777  15.989 -0.6540  0.4899  0.9301
15108TIP3    H266816   2.698   1.674  16.099  3.4378 -2.2931 -0.8610
15109TIP3   OH266817   1.731   3.656  11.662  0.2938 -0.0459  0.1764
15109TIP3    H166818   1.769   3.728  11.612  1.2223  0.9093  2.1425
15109TIP3    H266819   1.771   3.577  11.625  2.1932  0.7515  0.4128
15110TIP3   OH266820   3.915   6.429  12.954 -0.2995 -0.0232  0.3446
15110TIP3    H166821   3.855   6.500  12.934  1.4689  1.4715  0.0543
15110TIP3    H266822   3.968   6.419  12.875  0.7903 -0.2891  1.0862
15111TIP3   OH266823   4.221   5.180   3.224  0.4018 -0.1388 -0.3811
15111TIP3    H166824   4.172   5.181   3.142 -1.1176 -1.7772  0.4375
15111TIP3    H266825   4.216   5.270   3.256 -0.1754  0.2065 -1.4141
15112TIP3   OH266826   6.696   4.394  16.602  0.3270 -0.3768 -0.0134
15112TIP3    H166827   6.750   4.459  16.558 -0.7950 -0.0611 -0.9784
15112TIP3    H266828   6.610   4.435  16.610  0.0724 -1.0555  1.0333
15113TIP3   OH266829   6.462   4.391  14.277 -0.2579  0.1100  0.0724
15113TIP3    H166830   6.493   4.336  14.204  1.7830 -0.2281  1.1236
15113TIP3    H266831   6.411   4.460  14.234 -1.0809 -1.3542 -1.4610
15114TIP3   OH266832   5.694   0.749  12.550 -0.0264 -0.1306  0.1835
15114TIP3    H166833   5.751   0.677  12.525 -0.4684 -0.2298 -0.5815
15114TIP3    H266834   5.606   0.714  12.540 -0.2609  0.6670 -0.7488
15115TIP3   OH266835   3.729   5.579   0.563  0.3945 -0.0999 -0.3481
15115TIP3    H166836   3.775   5.496   0.558  0.1630 -0.2318 -0.3343
15115TIP3    H266837   3.670   5.579   0.487  1.7959  0.9194 -1.4790
15116TIP3   OH266838   2.651   0.032   5.239 -0.0784  0.4444 -0.3383
15116TIP3    H166839   2.620   0.019   5.329  0.8284  1.3231  0.1219
15116TIP3    H266840   2.572   0.037   5.187 -0.6073 -1.1188  0.2429
15117TIP3   OH266841   1.959   6.173  16.941  0.3649 -0.1108 -0.7322
15117TIP3    H166842   1.998   6.102  16.992  0.8384 -0.8332 -2.0379
15117TIP3    H266843   1.900   6.129  16.880 -0.5567  0.7691 -0.5010
15118TIP3   OH266844   3.313   5.198   3.056  0.5877  0.2465  0.1196
15118TIP3    H166845   3.391   5.179   3.003 -0.5373 -1.0629 -1.1265
15118TIP3    H266846   3.258   5.251   2.999 -0.6782 -1.2464 -0.0974
15119TIP3   OH266847   2.392   3.720  13.284 -0.2135 -0.2453  0.2381
15119TIP3    H166848   2.342   3.639  13.289 -1.4510  0.5483  1.2684
15119TIP3    H266849   2.429   3.731  13.371  0.6328 -0.1178 -0.1292
15120TIP3   OH266850   2.014   2.536  11.771 -0.0754  0.0675 -0.2281
15120TIP3    H166851   2.000   2.451  11.812 -0.7648 -0.2035 -0.9889
15120TIP3    H266852   2.105   2.533  11.741  0.2477  0.0419  0.7425
15121TIP3   OH266853   1.265   6.515   5.529  0.1275 -0.0886  0.3793
15121TIP3    H166854   1.333   6.566   5.574  0.0405  1.6693 -1.3285
15121TIP3    H266855   1.185   6.534   5.578  0.3562  0.2519  0.6287
15122TIP3   OH266856   2.301   4.206  14.411 -0.4666 -0.0298  0.8130
15122TIP3    H166857   2.262   4.221  14.497 -0.6972 -0.0320  0.7072
15122TIP3    H266858   2.364   4.278  14.401  0.9967 -1.1101  1.8236
15123TIP3   OH266859   5.246   3.406   1.589  0.5511  0.1332 -0.7726
15123TIP3    H166860   5.259   3.319   1.625  1.1847  0.1147 -1.0341
15123TIP3    H266861   5.264   3.465   1.662 -0.0562  0.0499 -0.5448
15124TIP3   OH266862   3.475   2.895   5.002  0.2211 -0.0597  0.7021
15124TIP3    H166863   3.399   2.875   5.057 -0.7055  2.8325  0.5854
15124TIP3    H266864   3.444   2.881   4.913 -0.0081  0.5735  0.6801
15125TIP3   OH266865   2.136   0.651  13.344 -0.6027  0.7046  0.0066
15125TIP3    H166866   2.219   0.610  13.368 -1.1835  0.8631  2.5771
15125TIP3    H266867   2.074   0.578  13.337 -0.8450  0.8070  0.9596
15126TIP3   OH266868   0.058   5.509   2.838  0.2018 -0.1931 -0.3057
15126TIP3    H166869   0.031   5.526   2.928  1.5445  0.8361 -0.0674
15126TIP3    H266870  -0.023   5.513   2.788 -0.1453  3.6679  0.2456
15127TIP3   OH266871   2.738   0.848   5.673 -0.0659  0.6865  0.3066
15127TIP3    H166872   2.763   0.932   5.711  0.4062 -0.0893  1.7640
15127TIP3    H266873   2.801   0.786   5.710 -1.4631 -0.5916  0.5946
15128TIP3   OH266874   1.477   6.234   4.147  0.5178 -0.2814 -0.1255
15128TIP3    H166875   1.412   6.229   4.077 -0.0653  0.3890  0.3575
15128TIP3    H266876   1.483   6.145   4.180 -1.0919 -0.1387  0.6445
15129TIP3   OH266877   1.309   1.769   0.742 -0.0828 -0.2144  0.5511
15129TIP3    H166878   1.402   1.779   0.719  0.8573 -0.1724  3.8244
15129TIP3    H266879   1.295   1.834   0.811 -2.1739 -1.1895  1.1161
15130TIP3   OH266880   6.383   1.846  16.615  0.2907  0.1954  0.5858
15130TIP3    H166881   6.352   1.797  16.691 -0.1136 -2.1573 -0.9859
15130TIP3    H266882   6.309   1.904  16.593  0.9428  1.9924  2.7267
15131TIP3   OH266883   4.501   2.638  13.621  0.6653  0.0147 -0.1373
15131TIP3    H166884   4.567   2.655  13.689 -0.3179 -1.4508  1.2895
15131TIP3    H266885   4.523   2.550  13.589 -0.0417 -0.1022 -0.3096
15132TIP3   OH266886   2.077   5.142   4.656 -0.3491  0.0641 -0.1764
15132TIP3    H166887   2.167   5.122   4.629 -0.0143  0.6781  0.4666
15132TIP3    H266888   2.048   5.207   4.592 -0.2130  0.1267 -0.1759
15133TIP3   OH266889   0.891   3.950   0.251 -0.4547 -0.2618 -0.8669
15133TIP3    H166890   0.896   3.968   0.345  0.5968 -0.7617 -0.8177
15133TIP3    H266891   0.977   3.972   0.217 -1.1791  1.0560 -1.9411
15134TIP3   OH266892   0.663   3.475   1.359  0.3236  0.2778  0.2101
15134TIP3    H166893   0.701   3.393   1.392  0.3704  0.3643  0.3742
15134TIP3    H266894   0.620   3.450   1.278  0.1846  0.0531  0.3496
15135TIP3   OH266895   3.029   3.253  12.831 -0.0935  0.4462  0.0419
15135TIP3    H166896   2.967   3.185  12.805  0.1741 -0.1296  0.8806
15135TIP3    H266897   3.024   3.255  12.926  0.6875  0.8684  0.0827
15136TIP3   OH266898   2.290   6.347   5.824 -0.4354  0.2406  0.1885
15136TIP3    H166899   2.366   6.404   5.837  0.1223 -0.3324 -0.4924
15136TIP3    H266900   2.237   6.393   5.759  0.3824 -0.3435 -0.9232
15137TIP3   OH266901   1.949   2.308   1.911  0.2810  0.1597  0.6818
15137TIP3    H166902   2.011   2.326   1.981  2.4953 -1.1315 -0.8266
15137TIP3    H266903   1.888   2.244   1.948  1.2862 -0.3445  1.5034
15138TIP3   OH266904   5.477   0.127  13.091 -0.0996  0.4198  0.1004
15138TIP3    H166905   5.535   0.091  13.158  1.3302  0.3140 -1.1535
15138TIP3    H266906   5.393   0.084  13.106  1.2222 -2.6870 -0.6385
15139TIP3   OH266907   5.574   5.432  14.400 -0.0215  0.0402 -0.4603
15139TIP3    H166908   5.543   5.343  14.380  2.1468 -1.0551  0.6940
15139TIP3    H266909   5.513   5.463  14.467 -0.7480 -0.6011 -0.8057
15140TIP3   OH266910   1.684   0.885   0.597 -0.0355 -0.4691  0.1172
15140TIP3    H166911   1.778   0.868   0.588 -0.0760 -0.7780  0.2790
15140TIP3    H266912   1.653   0.896   0.507 -0.0590 -1.5213 -0.0059
15141TIP3   OH266913   4.835   0.229  12.097 -0.2987 -0.1924 -0.2619
15141TIP3    H166914   4.871   0.317  12.087  1.1332 -0.4965  1.5674
15141TIP3    H266915   4.740   0.241  12.093 -0.2651  1.8448  2.1281
15142TIP3   OH266916   0.847   3.283   1.978 -0.0406 -0.4453 -0.4457
15142TIP3    H166917   0.788   3.359   1.978  2.0017  1.2561  1.4764
15142TIP3    H266918   0.878   3.277   1.888 -0.1497  1.1155 -0.6180
15143TIP3   OH266919   0.241   5.517   1.532  0.0858 -0.1870  0.0238
15143TIP3    H166920   0.254   5.592   1.589 -0.3148 -0.5094  0.5431
15143TIP3    H266921   0.323   5.510   1.483  0.0269  0.7384 -0.2133
15144TIP3   OH266922   4.712   4.896   4.710  0.5243 -0.3721  0.4045
15144TIP3    H166923   4.731   4.954   4.784 -0.3056  0.0018  0.3400
15144TIP3    H266924   4.647   4.835   4.743 -0.8551  0.6187 -0.3509
15145TIP3   OH266925   4.622   6.626   4.536 -0.3589  0.0261  0.7476
15145TIP3    H166926   4.654   6.646   4.624  0.6012  0.9539  0.2217
15145TIP3    H266927   4.702   6.606   4.486 -0.8089  0.3074 -0.1006
15146TIP3   OH266928   3.787   0.190   6.382 -0.2547 -0.2749 -0.3887
15146TIP3    H166929   3.740   0.273   6.375  0.3731  0.0593 -0.7794
15146TIP3    H266930   3.734   0.137   6.441 -0.8748  0.2569 -0.4547
15147TIP3   OH266931   5.500   4.613  14.891  0.1996  0.2207  0.7530
15147TIP3    H166932   5.420   4.658  14.919  1.2512  1.5164  1.8724
15147TIP3    H266933   5.528   4.565  14.969  0.5159 -0.1987  0.3791
15148TIP3   OH266934   4.836   0.322  12.890  0.3369 -0.1013 -0.1882
15148TIP3    H166935   4.768   0.254  12.888 -1.4948  1.6461 -1.8182
15148TIP3    H266936   4.856   0.333  12.983 -0.5038 -1.6885  0.2280
15149TIP3   OH266937   0.919   0.289   0.623 -0.3818  0.5224  0.0354
15149TIP3    H166938   0.880   0.350   0.686 -0.5836  0.1357  0.2836
15149TIP3    H266939   0.991   0.247   0.671  0.7796  1.6994 -0.6103
15150TIP3   OH266940   2.514   5.349  16.230 -0.0226 -0.0240 -0.8297
15150TIP3    H166941   2.483   5.263  16.202 -1.0988 -0.2605  0.9059
15150TIP3    H266942   2.436   5.392  16.266  1.0707  0.4920  1.0751
15151TIP3   OH266943   1.490   5.024   4.222 -0.0293 -0.0612  0.2789
15151TIP3    H166944   1.533   4.939   4.225 -2.6559 -1.4848  1.1282
15151TIP3    H266945   1.468   5.044   4.313 -0.7967  0.7601 -0.0697
15152TIP3   OH266946   4.816   3.300   1.042  0.4542  0.4899  0.2223
15152TIP3    H166947   4.817   3.386   1.001 -0.0675  0.4369  0.0914
15152TIP3    H266948   4.782   3.316   1.130 -0.5003  0.2971 -0.1001
15153TIP3   OH266949   0.710   3.527   1.966 -0.0411  0.8749 -0.0096
15153TIP3    H166950   0.711   3.554   1.874  0.4218  0.1447 -0.2236
15153TIP3    H266951   0.621   3.494   1.980  0.3096 -0.3880 -0.6164
15154TIP3   OH266952   6.758   3.251  12.386  0.1538  0.3343 -1.1249
15154TIP3    H166953   6.678   3.299  12.368 -0.8443 -0.9792 -0.3174
15154TIP3    H266954   6.803   3.303  12.452 -1.0511  0.0363 -0.0488
15155TIP3   OH266955   4.392   1.546   5.152 -0.6654  0.1038  0.1588
15155TIP3    H166956   4.424   1.619   5.206  0.3940  0.3883 -0.8239
15155TIP3    H266957   4.398   1.578   5.062 -1.4884 -0.7178 -0.2087
15156TIP3   OH266958   1.202   4.738   0.953 -0.3583  0.8016  0.3586
15156TIP3    H166959   1.287   4.775   0.975  0.7926 -1.4588 -0.0597
15156TIP3    H266960   1.157   4.727   1.037  1.4257 -1.7481  1.0831
15157TIP3   OH266961   3.920   2.891  12.158  0.1595  0.1889  0.2448
15157TIP3    H166962   3.853   2.823  12.150  0.9870 -0.7047  0.6239
15157TIP3    H266963   3.883   2.956  12.217 -0.7709  0.2310 -0.3755
15158TIP3   OH266964   4.842   4.218  16.118 -0.8318  0.1961  0.1329
15158TIP3    H166965   4.827   4.138  16.067 -0.5333 -0.3300  0.8608
15158TIP3    H266966   4.904   4.269  16.065  0.9574 -1.1906  0.8170
15159TIP3   OH266967   2.121   4.775  16.062  0.1295  0.7469 -0.4503
15159TIP3    H166968   2.028   4.769  16.081 -0.3269  1.1723 -2.3148
15159TIP3    H266969   2.133   4.721  15.984  1.7186 -0.3837  0.5321
15160TIP3   OH266970   5.905   0.559   1.688  0.0151  0.6145  0.2436
15160TIP3    H166971   5.989   0.603   1.671 -0.6071  2.3611  1.4763
15160TIP3    H266972   5.839   0.623   1.662 -0.9263  0.2012  1.5657
15161TIP3   OH266973   4.128   3.176   0.556  0.2584 -0.2108  0.5613
15161TIP3    H166974   4.171   3.214   0.479 -2.5331  3.1791  0.3955
15161TIP3    H266975   4.123   3.249   0.618 -1.6690 -1.5326  2.0787
15162TIP3   OH266976   1.378   3.949   0.936  0.0915  0.1481 -0.3478
15162TIP3    H166977   1.387   4.011   0.864 -0.2906 -0.0679 -0.5828
15162TIP3    H266978   1.313   3.886   0.906 -0.2245  0.1730  0.2666
15163TIP3   OH266979   6.343   4.026   2.577  0.5730 -0.6362 -0.2467
15163TIP3    H166980   6.307   4.050   2.662  1.1204  0.3348 -0.2743
15163TIP3    H266981   6.376   4.108   2.541 -1.1061 -0.7107 -2.1161
15164TIP3   OH266982   3.463   0.352   1.445 -0.1581 -0.2901 -0.0529
15164TIP3    H166983   3.489   0.264   1.417  0.8021  0.2226 -0.8194
15164TIP3    H266984   3.436   0.396   1.365  1.3879  0.7829 -0.0232
15165TIP3   OH266985   2.878   5.191   5.753 -0.1663  0.3845 -0.2902
15165TIP3    H166986   2.945   5.224   5.694 -0.8103  0.1577 -1.1784
15165TIP3    H266987   2.809   5.257   5.752 -1.3378 -0.7701 -1.8649
15166TIP3   OH266988   0.882   6.804  12.095 -1.0208  0.1569  0.1701
15166TIP3    H166989   0.875   6.710  12.114 -1.6646  0.0277 -0.6028
15166TIP3    H266990   0.946   6.809  12.024 -1.8930  0.1539 -0.6436
15167TIP3   OH266991   1.628   4.938  14.059 -0.4708  0.2619  0.5255
15167TIP3    H166992   1.646   5.024  14.020 -1.3351 -0.3894 -1.4704
15167TIP3    H266993   1.662   4.944  14.148  2.8817  1.4342 -0.6888
15168TIP3   OH266994   4.128   4.401  13.364  0.7729  0.6209  0.4664
15168TIP3    H166995   4.070   4.327  13.344  0.1083  1.2814 -0.1205
15168TIP3    H266996   4.136   4.400  13.459 -0.4731  0.6931  0.5940
15169TIP3   OH266997   6.305   6.257   2.598 -0.3678  0.0632  0.4978
15169TIP3    H166998   6.278   6.192   2.533  0.6990  0.9288 -0.8860
15169TIP3    H266999   6.329   6.206   2.675  3.3969 -1.5934 -1.5241
15170TIP3   OH267000   3.038   1.243   1.568  0.4326 -0.3335 -0.7312
15170TIP3    H167001   2.996   1.202   1.492  1.6867 -0.6714 -1.2630
15170TIP3    H267002   3.115   1.189   1.584  0.0070 -0.4763  1.0170
15171TIP3   OH267003   5.814   2.421   4.698  0.3072 -0.1737  0.2904
15171TIP3    H167004   5.904   2.441   4.723 -0.5281  1.9867  1.8162
15171TIP3    H267005   5.795   2.339   4.743  1.0178  0.1500  1.2083
15172TIP3   OH267006   2.206   1.007   0.555  0.0472  0.4082  0.0184
15172TIP3    H167007   2.120   1.048   0.548 -1.5909 -2.3320  2.1188
15172TIP3    H267008   2.229   1.014   0.648  3.1160  2.7331 -0.7432
15173TIP3   OH267009   5.378   4.261  16.426  1.1489  0.0275  0.1177
15173TIP3    H167010   5.354   4.228  16.512 -0.4283 -0.2034 -0.3851
15173TIP3    H267011   5.331   4.204  16.364  2.3870  0.0700 -0.9104
15174TIP3   OH267012   4.202   3.572  14.982 -0.3517 -0.0713 -0.0986
15174TIP3    H167013   4.168   3.660  14.998  1.0427  0.5125 -0.1983
15174TIP3    H267014   4.282   3.586  14.931  3.4225 -0.8165  4.8105
15175TIP3   OH267015   6.640   6.790  15.161  0.4213 -0.0027  0.1533
15175TIP3    H167016   6.544   6.785  15.167  0.4561 -1.6959 -0.3875
15175TIP3    H267017   6.669   6.699  15.157  2.0768  0.4827  0.4503
15176TIP3   OH267018   6.266   0.161   4.027 -0.3768  0.1662  0.3951
15176TIP3    H167019   6.351   0.131   3.995  0.7275  3.2352  0.1411
15176TIP3    H267020   6.212   0.170   3.948 -0.0213  0.8518  0.2282
15177TIP3   OH267021   0.190   0.273  13.450 -0.2946 -0.3284 -0.1750
15177TIP3    H167022   0.230   0.191  13.478  1.2115  0.4534  0.0479
15177TIP3    H267023   0.124   0.247  13.386  1.2759 -1.6177 -1.3644
15178TIP3   OH267024   5.067   2.904   2.395 -0.3952 -0.5197 -0.3800
15178TIP3    H167025   5.145   2.926   2.344 -0.5926  0.0810 -0.4225
15178TIP3    H267026   4.998   2.960   2.359 -0.0829  1.5093  1.9234
15179TIP3   OH267027   6.388   5.923  12.689  0.5002 -0.0705 -0.3303
15179TIP3    H167028   6.345   5.960  12.765  0.2548  0.2895 -0.6437
15179TIP3    H267029   6.457   5.985  12.667  0.4054 -0.0433 -0.5575
15180TIP3   OH267030   3.317   2.813   0.397  0.2671 -0.5865  0.3090
15180TIP3    H167031   3.402   2.797   0.358  0.8337 -0.3653  1.4086
15180TIP3    H267032   3.296   2.903   0.373  0.2157 -0.7263 -0.1788
15181TIP3   OH267033   1.996   0.553  13.610  0.1349 -0.2368  0.0467
15181TIP3    H167034   1.912   0.545  13.656  0.0528  2.4908  0.5398
15181TIP3    H267035   2.025   0.463  13.597 -3.4679 -1.3906 -1.2980
15182TIP3   OH267036   4.026   5.342  12.697 -0.3312  0.4854 -0.2100
15182TIP3    H167037   4.082   5.419  12.706 -0.1906  0.3314  0.2390
15182TIP3    H267038   3.981   5.335  12.781 -1.6726  1.1048 -0.8391
15183TIP3   OH267039   3.263   5.902  11.000 -0.3675  0.0818 -0.5522
15183TIP3    H167040   3.344   5.858  11.026 -0.3900  0.7516  0.7024
15183TIP3    H267041   3.266   5.904  10.904  0.2695 -1.4297 -0.5876
15184TIP3   OH267042   2.866   0.594  15.490  0.2775 -0.4709 -0.2193
15184TIP3    H167043   2.935   0.611  15.553  0.9313  0.4667 -1.1629
15184TIP3    H267044   2.910   0.552  15.416  0.0807  1.1021 -1.2904
15185TIP3   OH267045   4.076   3.562  16.976 -0.4614 -0.1449 -0.0625
15185TIP3    H167046   4.061   3.655  16.994 -0.9888 -0.7380  3.2640
15185TIP3    H267047   4.171   3.551  16.985 -0.5377 -0.1090  1.0060
15186TIP3   OH267048   4.579   0.107  15.651  0.2240  0.1696  1.0274
15186TIP3    H167049   4.645   0.147  15.594 -0.8307  0.0456 -0.3553
15186TIP3    H267050   4.498   0.114  15.600 -0.4443 -1.5159  1.8118
15187TIP3   OH267051   1.354   6.623  17.289 -0.0399 -0.0103  0.0246
15187TIP3    H167052   1.274   6.586  17.326  0.3469  1.9857  3.1554
15187TIP3    H267053   1.332   6.640  17.197 -2.5801 -1.1317  0.3367
15188TIP3   OH267054   4.559   3.859  12.655 -0.1732 -0.2383 -0.2293
15188TIP3    H167055   4.506   3.891  12.729 -0.0335  0.1730 -0.3063
15188TIP3    H267056   4.642   3.905  12.663  0.1911 -0.9010 -0.1000
15189TIP3   OH267057   4.831   5.457   4.657 -0.2863  0.2780  0.0683
15189TIP3    H167058   4.900   5.392   4.640 -0.8263 -0.2026 -0.3009
15189TIP3    H267059   4.771   5.413   4.717 -0.1998  0.7557  0.5209
15190TIP3   OH267060   1.734   2.520   0.749  0.5630  1.0144 -0.5637
15190TIP3    H167061   1.695   2.567   0.675 -0.4161 -1.1542 -1.5239
15190TIP3    H267062   1.828   2.521   0.731  0.5301  2.3232 -0.7004
15191TIP3   OH267063   5.680   3.060  15.356 -0.5346  0.1782 -0.1462
15191TIP3    H167064   5.773   3.071  15.338 -0.7624 -0.1380 -1.6615
15191TIP3    H267065   5.647   3.148  15.372  0.0393  0.2766  0.4953
15192TIP3   OH267066   4.770   3.632  12.230 -0.4418  0.7728  0.0789
15192TIP3    H167067   4.816   3.694  12.173  0.9638  1.3498  1.7723
15192TIP3    H267068   4.804   3.649  12.317  0.0984 -2.4292  0.6463
15193TIP3   OH267069   3.590   1.708   0.853 -0.2525  0.1093  0.5907
15193TIP3    H167070   3.647   1.757   0.794  0.6493  0.5005  1.7446
15193TIP3    H267071   3.515   1.766   0.867  0.3506  0.7723  1.1796
15194TIP3   OH267072   3.889   6.736  13.446  0.3277  0.0192 -0.4844
15194TIP3    H167073   3.926   6.736  13.357 -0.8617  2.2849 -1.0557
15194TIP3    H267074   3.836   6.815  13.450 -1.5770 -1.2300  1.4863
15195TIP3   OH267075   2.811   2.962   3.026 -0.3655  0.4497  0.0346
15195TIP3    H167076   2.754   2.988   3.099 -0.1602 -1.1091  0.7926
15195TIP3    H267077   2.849   2.879   3.054  2.0944  1.2870 -0.5695
15196TIP3   OH267078   3.629   6.226   3.223  0.4265 -0.1837  0.8896
15196TIP3    H167079   3.672   6.144   3.245  0.8422 -0.0483  0.6014
15196TIP3    H267080   3.660   6.287   3.290  0.6283 -0.1052  0.7264
15197TIP3   OH267081   2.850   4.193   0.259 -0.3850 -0.3090 -0.1015
15197TIP3    H167082   2.833   4.281   0.291 -3.8322 -1.3518  1.4984
15197TIP3    H267083   2.805   4.136   0.322  0.9583 -3.1752 -1.5370
15198TIP3   OH267084   6.045   3.217   1.624 -0.2083 -0.3968  0.1274
15198TIP3    H167085   5.966   3.187   1.671  0.3368 -2.1005  0.0120
15198TIP3    H267086   6.106   3.143   1.631  0.7151  0.2042 -1.3408
15199TIP3   OH267087   6.787   6.687  12.782  0.1501  0.1810 -0.7368
15199TIP3    H167088   6.771   6.769  12.829 -0.9522 -0.1371 -0.5373
15199TIP3    H267089   6.882   6.686  12.767  0.0732  1.9330 -1.5810
15200TIP3   OH267090   3.538   1.820   3.699  0.5048  0.3749  0.3605
15200TIP3    H167091   3.610   1.853   3.646  0.4003 -0.1899 -0.1444
15200TIP3    H267092   3.460   1.831   3.643  0.5041 -0.9282  0.0899
15201TIP3   OH267093   3.036   6.489   1.574 -0.4050  0.9817 -0.2390
15201TIP3    H167094   3.088   6.549   1.628 -1.1631  1.9280 -0.5356
15201TIP3    H267095   3.015   6.539   1.496  0.2027 -0.1847 -1.1954
15202TIP3   OH267096   1.908   2.547  15.060  0.1766  0.0453  0.2304
15202TIP3    H167097   1.926   2.505  15.144  0.2600 -0.5876 -0.0986
15202TIP3    H267098   1.971   2.507  15.000 -0.7980 -0.5084 -0.4369
15203TIP3   OH267099   5.856   6.750   0.417 -0.1370 -0.3837 -0.1614
15203TIP3    H167100   5.819   6.733   0.503  0.5944  1.6078  0.6025
15203TIP3    H267101   5.897   6.667   0.392 -1.1417 -1.2614  0.9765
15204TIP3   OH267102   0.187   4.428  11.847  0.4608  0.7315 -0.2155
15204TIP3    H167103   0.232   4.510  11.871  1.4294 -0.0244  0.6635
15204TIP3    H267104   0.104   4.432  11.894  0.3217  1.4036 -0.5098
15205TIP3   OH267105   6.005   2.841  15.949 -0.3419 -0.0476  0.1434
15205TIP3    H167106   5.975   2.783  15.879 -2.9114  1.9511 -0.5514
15205TIP3    H267107   5.927   2.890  15.975  1.3172  1.8291  1.9445
15206TIP3   OH267108   4.229   1.382   3.437 -0.2273  0.4755  0.9146
15206TIP3    H167109   4.249   1.317   3.370 -0.8462 -0.0894  1.2652
15206TIP3    H267110   4.231   1.334   3.519 -2.4578  0.4690  1.0243
15207TIP3   OH267111   3.996   0.404  12.750 -0.3387  0.6132  0.3353
15207TIP3    H167112   4.005   0.378  12.842 -0.2159  0.1407  0.1940
15207TIP3    H267113   4.081   0.441  12.726 -0.4725  1.0341  0.5008
15208TIP3   OH267114   3.817   2.170   2.996 -0.0297  0.7557  0.1514
15208TIP3    H167115   3.830   2.109   2.923  0.8107  2.4961 -1.2298
15208TIP3    H267116   3.723   2.186   2.998 -0.1671  0.0081  0.0611
15209TIP3   OH267117   5.499   2.857  11.117  0.1422 -0.4535  0.4320
15209TIP3    H167118   5.468   2.889  11.202  0.4903  1.0965  0.0033
15209TIP3    H267119   5.485   2.930  11.057  0.6427 -1.2427 -0.6927
15210TIP3   OH267120   6.395   6.661  12.640 -0.0623  0.3442 -0.1265
15210TIP3    H167121   6.452   6.584  12.641 -1.2454 -0.5807 -1.0975
15210TIP3    H267122   6.455   6.735  12.634  1.0660 -0.6091 -1.2548
15211TIP3   OH267123   4.419   3.875   2.935 -0.1511  0.4934  0.2826
15211TIP3    H167124   4.417   3.790   2.978  0.7052  0.2774 -0.0727
15211TIP3    H267125   4.512   3.895   2.927 -0.2148  0.1977 -2.0439
15212TIP3   OH267126   5.631   1.890   2.748  0.6468  0.5654  0.1432
15212TIP3    H167127   5.545   1.912   2.714  0.6516 -0.7215 -0.7606
15212TIP3    H267128   5.692   1.931   2.687  0.6847  1.3960  0.7289
15213TIP3   OH267129   0.330   5.912  13.855 -0.0498 -0.3412  0.7219
15213TIP3    H167130   0.309   6.005  13.865  0.5412 -0.2062  0.7695
15213TIP3    H267131   0.414   5.902  13.901  1.1534 -0.3845 -1.3642
15214TIP3   OH267132   5.953   5.170  14.571 -0.6282 -0.0896 -0.3235
15214TIP3    H167133   5.858   5.161  14.571 -0.4962 -2.3935  1.0942
15214TIP3    H267134   5.976   5.172  14.664  0.8577 -2.1750 -0.5916
15215TIP3   OH267135   4.741   1.686   0.964  0.2450 -0.0676  0.4783
15215TIP3    H167136   4.794   1.690   1.044  1.1417  1.7493 -0.1567
15215TIP3    H267137   4.658   1.649   0.993  0.3285  1.1026  2.4175
15216TIP3   OH267138   2.437   1.826  17.142  0.3138  0.3385 -0.3338
15216TIP3    H167139   2.409   1.873  17.221 -1.2542  0.8074 -1.1340
15216TIP3    H267140   2.409   1.882  17.070 -1.5424 -1.7398 -1.3182
15217TIP3   OH267141   0.018   0.661  11.221  0.4494  0.0751 -0.3147
15217TIP3    H167142   0.074   0.712  11.280  2.3914  0.8982 -2.6690
15217TIP3    H267143   0.074   0.643  11.145 -1.8606 -0.9623 -1.8887
15218TIP3   OH267144   0.687   1.958  16.207  0.0188 -0.4789 -0.3950
15218TIP3    H167145   0.681   1.892  16.138 -0.9089 -2.2002  1.2577
15218TIP3    H267146   0.599   1.994  16.213  0.0694 -0.4229 -0.0141
15219TIP3   OH267147   5.673   2.706  13.296  0.4741 -0.0529 -0.1381
15219TIP3    H167148   5.768   2.712  13.303  0.7440 -2.7042 -0.6133
15219TIP3    H267149   5.657   2.648  13.222 -1.5333  0.2203  0.0130
15220TIP3   OH267150   2.489   2.242   3.676 -0.0028  0.7157 -0.3080
15220TIP3    H167151   2.401   2.221   3.646 -0.7020  2.4684  0.3766
15220TIP3    H267152   2.492   2.338   3.675  1.7023  0.6937  0.2245
15221TIP3   OH267153   3.850   1.131  10.977  0.5041  0.1508  0.0187
15221TIP3    H167154   3.834   1.183  10.899 -0.4303  0.9786  0.7406
15221TIP3    H267155   3.813   1.045  10.956 -0.5665  0.6310 -0.1299
15222TIP3   OH267156   1.194   1.078   5.428 -1.4176 -0.0282 -0.8802
15222TIP3    H167157   1.273   1.026   5.413 -0.5863  1.1878 -0.8928
15222TIP3    H267158   1.184   1.131   5.349 -0.4733  2.0147  0.2879
15223TIP3   OH267159   0.403   4.303   5.441 -0.1435 -0.5062  0.4833
15223TIP3    H167160   0.421   4.319   5.534  0.9432 -2.4483  0.6431
15223TIP3    H267161   0.328   4.245   5.441  0.4610 -1.3002  0.1968
15224TIP3   OH267162   0.286   4.367  15.418 -0.1072 -0.8011 -0.2980
15224TIP3    H167163   0.347   4.410  15.478  0.6481 -0.1413 -1.5007
15224TIP3    H267164   0.278   4.278  15.453  1.0991 -0.7312  0.2318
15225TIP3   OH267165   4.916   5.756   1.314  0.2444 -0.3170 -0.1271
15225TIP3    H167166   4.896   5.781   1.224  1.1728 -0.1996 -0.3067
15225TIP3    H267167   4.935   5.839   1.358 -0.9240 -0.2902  0.3841
15226TIP3   OH267168   5.424   0.516   3.627 -0.2184  0.2071  0.1307
15226TIP3    H167169   5.445   0.602   3.663  1.7514 -0.8224  1.6419
15226TIP3    H267170   5.338   0.495   3.665 -0.0517  0.8886  0.9148
15227TIP3   OH267171   4.900   3.077   0.901  0.4700 -0.5718  0.2723
15227TIP3    H167172   4.889   3.163   0.942  1.4448 -0.8934  1.2624
15227TIP3    H267173   4.914   3.017   0.974  3.3388 -1.0080 -0.5163
15228TIP3   OH267174   5.750   4.772   2.640 -0.5303  0.5813  0.6299
15228TIP3    H167175   5.780   4.812   2.559 -0.5198  0.2916  0.4931
15228TIP3    H267176   5.656   4.759   2.627 -0.3387 -0.4656  0.2463
15229TIP3   OH267177   0.510   4.487  14.369 -0.1459  0.4855  0.0552
15229TIP3    H167178   0.569   4.561  14.385 -1.1320  0.8186  2.5356
15229TIP3    H267179   0.511   4.437  14.450 -1.7474 -0.6044 -0.5534
15230TIP3   OH267180   4.031   1.889   4.236 -0.1382  0.5303  0.2086
15230TIP3    H167181   4.023   1.903   4.330  1.4707 -0.6120  0.5565
15230TIP3    H267182   3.942   1.869   4.208 -0.6700  1.0206  1.4519
15231TIP3   OH267183   4.942   4.418  13.203  0.0139 -0.1175 -0.0812
15231TIP3    H167184   4.906   4.330  13.216  0.2775  0.1214  2.7554
15231TIP3    H267185   5.027   4.416  13.246 -0.3704  1.7690  0.8890
15232TIP3   OH267186   0.394   6.340   6.282 -0.3414 -0.0859  0.0567
15232TIP3    H167187   0.393   6.427   6.322 -1.5310 -0.3541  0.6557
15232TIP3    H267188   0.443   6.285   6.344  1.4745  0.3640 -0.8837
15233TIP3   OH267189   0.740   1.992   2.949  0.0125  0.3412 -0.0994
15233TIP3    H167190   0.678   2.064   2.956  0.7097  1.0080 -0.7029
15233TIP3    H267191   0.690   1.921   2.910 -0.5812  0.6081  0.1659
15234TIP3   OH267192   5.079   0.829  13.238  0.2229 -0.1139 -1.0464
15234TIP3    H167193   4.987   0.855  13.236  0.3215  0.3183 -0.0766
15234TIP3    H267194   5.118   0.876  13.165 -0.1247  0.4610 -0.8650
15235TIP3   OH267195   5.709   4.606  16.559 -0.9269 -0.3421  0.0056
15235TIP3    H167196   5.802   4.585  16.561 -0.9267 -0.3092  0.3764
15235TIP3    H267197   5.687   4.625  16.650 -0.6451  2.3817 -0.4022
15236TIP3   OH267198   3.313   3.534   2.561 -0.1582 -0.0969  0.1620
15236TIP3    H167199   3.406   3.513   2.549  0.2342  2.1160 -1.1316
15236TIP3    H267200   3.269   3.450   2.550  1.4881 -0.7761 -2.1565
15237TIP3   OH267201   5.917   1.196   5.206  0.4491 -0.3004 -0.3070
15237TIP3    H167202   5.919   1.205   5.301 -2.0431  0.2074 -0.2363
15237TIP3    H267203   5.892   1.105   5.191 -0.7262  0.0257 -0.4122
15238TIP3   OH267204   2.101   5.694   2.555  0.1977  0.1841  0.3973
15238TIP3    H167205   2.078   5.665   2.644 -0.3630  1.4274  0.6835
15238TIP3    H267206   2.159   5.770   2.569  1.0803 -0.3310 -0.3182
15239TIP3   OH267207   0.280   6.613   2.037  0.1138  0.2719  0.1039
15239TIP3    H167208   0.210   6.563   2.080  0.7091 -0.8383 -0.1665
15239TIP3    H267209   0.276   6.584   1.946  1.0145  0.0829  0.1224
15240TIP3   OH267210   4.220   0.309  16.259  0.3594 -0.4718 -0.1637
15240TIP3    H167211   4.305   0.273  16.233  0.4851 -0.9687  0.8757
15240TIP3    H267212   4.166   0.303  16.180  1.5500  0.7199 -1.1300
15241TIP3   OH267213   2.762   5.031   2.771 -0.4095  0.0296 -0.3783
15241TIP3    H167214   2.722   5.103   2.722 -1.3191 -0.4822 -0.3908
15241TIP3    H267215   2.853   5.030   2.740 -1.1889 -0.9360 -2.8434
15242TIP3   OH267216   5.327   5.684  12.325 -0.2824  0.2087  0.0012
15242TIP3    H167217   5.261   5.670  12.393  0.2110  1.5708  0.7975
15242TIP3    H267218   5.287   5.748  12.266  0.1244  0.6810  0.2292
15243TIP3   OH267219   1.285   4.952  14.993 -0.0006  0.0992 -0.3718
15243TIP3    H167220   1.234   5.030  15.017  0.0882  0.4266 -1.1892
15243TIP3    H267221   1.332   4.979  14.914  0.5547 -0.5740 -0.2727
15244TIP3   OH267222   1.782   1.034  15.089 -0.1886 -0.0856  0.4765
15244TIP3    H167223   1.715   0.990  15.037 -0.5088 -0.4185  1.1562
15244TIP3    H267224   1.853   1.052  15.028 -0.0441 -1.5644  0.1817
15245TIP3   OH267225   2.817   0.412   4.701 -0.1900  0.0682  0.3834
15245TIP3    H167226   2.804   0.506   4.717 -0.6439  0.5234 -2.1245
15245TIP3    H267227   2.746   0.388   4.642  0.7614 -1.5162 -0.1819
15246TIP3   OH267228   2.285   4.969  16.700  0.0513  0.2352 -0.0665
15246TIP3    H167229   2.220   4.905  16.729  0.1256 -0.0010 -0.4183
15246TIP3    H267230   2.302   5.022  16.778  0.2673 -0.4033  0.3315
15247TIP3   OH267231   1.914   4.210  12.419  0.2423  0.4088  0.6505
15247TIP3    H167232   1.868   4.202  12.336  1.4385 -0.2511  0.0150
15247TIP3    H267233   1.915   4.121  12.455  0.3423  0.5568  1.0247
15248TIP3   OH267234   1.656   4.351  12.312 -0.4378 -0.0283 -0.2075
15248TIP3    H167235   1.672   4.368  12.405 -1.4326  0.3318 -0.0951
15248TIP3    H267236   1.593   4.278  12.311 -0.7028  0.2030 -0.5907
15249TIP3   OH267237   2.337   0.826  12.735  0.1953 -0.9427  0.2126
15249TIP3    H167238   2.372   0.814  12.647 -0.2469  0.6641 -0.2139
15249TIP3    H267239   2.246   0.852  12.722  0.7219  1.6344  0.9617
15250TIP3   OH267240   0.594   0.195   5.363  0.4236  0.5885 -0.0926
15250TIP3    H167241   0.609   0.244   5.444 -0.8844  1.0585 -0.1177
15250TIP3    H267242   0.653   0.236   5.300  0.9508  0.6705  0.4402
15251TIP3   OH267243   3.780   1.687  16.081 -0.1672 -0.3032 -0.6572
15251TIP3    H167244   3.724   1.759  16.111  0.4139 -0.7350  1.6902
15251TIP3    H267245   3.820   1.719  16.001 -1.7369  1.0426 -0.9582
15252TIP3   OH267246   5.129   4.530  12.803 -0.0689  0.0637 -0.4442
15252TIP3    H167247   5.074   4.599  12.840  0.4960 -0.3332  1.2293
15252TIP3    H267248   5.068   4.472  12.758 -1.0930 -0.4228  1.4545
15253TIP3   OH267249   0.155   3.278  15.834 -0.3045 -0.1481  0.2953
15253TIP3    H167250   0.158   3.346  15.767 -0.0904 -1.4826 -1.1057
15253TIP3    H267251   0.076   3.228  15.814  0.8355 -1.8109 -0.2602
15254TIP3   OH267252   0.702   1.482   3.324  0.1976  0.1868  0.5201
15254TIP3    H167253   0.675   1.519   3.240  0.6137  1.7178  1.0240
15254TIP3    H267254   0.732   1.557   3.375 -1.0488 -0.5207  2.4378
15255TIP3   OH267255   6.050   1.224   1.752  0.4557 -1.1573 -0.3242
15255TIP3    H167256   6.139   1.194   1.732  0.9364  0.2259 -0.3808
15255TIP3    H267257   6.043   1.217   1.847  1.2901  0.3857 -0.1165
15256TIP3   OH267258   5.814   1.678  15.774  0.1013  0.3568  0.0497
15256TIP3    H167259   5.893   1.712  15.730  1.1277  0.0592  1.5733
15256TIP3    H267260   5.843   1.596  15.815 -1.9898 -1.7695 -2.4371
15257TIP3   OH267261   3.780   0.320  17.116  0.3853 -0.8455  0.4951
15257TIP3    H167262   3.741   0.240  17.080  0.8744 -1.3912  1.1440
15257TIP3    H267263   3.741   0.391  17.066 -0.7203 -1.4398  0.4958
15258TIP3   OH267264   3.925   1.909   0.292 -0.3406  0.0681 -0.1243
15258TIP3    H167265   3.919   1.899   0.197 -2.7834 -0.8081  0.0563
15258TIP3    H267266   3.952   2.000   0.305 -2.0608  0.8459 -1.6532
15259TIP3   OH267267   2.119   2.075  13.304  0.1237 -0.5936  0.5730
15259TIP3    H167268   2.044   2.049  13.249  1.2656 -0.4181 -1.1373
15259TIP3    H267269   2.182   2.111  13.242  1.1180  0.4662  2.1510
15260TIP3   OH267270   3.552   1.349  15.147  0.1890  0.2253 -0.4450
15260TIP3    H167271   3.541   1.410  15.219  0.0416 -0.6248  0.2635
15260TIP3    H267272   3.524   1.397  15.069 -1.7305  0.4452  0.3495
15261TIP3   OH267273   0.150   0.597   5.067  0.2342  0.5721 -0.3920
15261TIP3    H167274   0.074   0.545   5.092 -0.4663  1.2285 -1.1000
15261TIP3    H267275   0.199   0.542   5.006 -1.2118  1.1940 -2.2077
15262TIP3   OH267276   5.000   1.786   2.225 -0.0295  0.0156  0.5203
15262TIP3    H167277   5.035   1.849   2.161 -1.3487  0.1212 -0.1356
15262TIP3    H267278   4.974   1.711   2.172  0.2080 -0.4961  1.1263
15263TIP3   OH267279   4.757   5.079  11.421 -0.1603  0.5388  0.0619
15263TIP3    H167280   4.828   5.102  11.361  0.0167 -2.0619 -0.8427
15263TIP3    H267281   4.677   5.089  11.369 -0.0293 -1.3984 -0.5998
15264TIP3   OH267282   4.369   3.092  13.984  0.0010  0.2619  0.2821
15264TIP3    H167283   4.426   3.049  14.047 -0.7737 -1.0770  0.0958
15264TIP3    H267284   4.423   3.162  13.947  1.2663 -0.4767  0.6752
15265TIP3   OH267285   0.640   2.455   3.760 -0.3267  0.1722  0.0221
15265TIP3    H167286   0.625   2.539   3.717 -1.7281  1.0055  2.0073
15265TIP3    H267287   0.553   2.413   3.760  0.1675 -0.8880 -0.1138
15266TIP3   OH267288   3.738   3.299   4.035  0.1563 -0.4332 -0.1143
15266TIP3    H167289   3.773   3.241   4.103  0.0629  0.8696  1.0967
15266TIP3    H267290   3.767   3.386   4.062 -1.2855  0.2995 -0.8525
15267TIP3   OH267291   6.607   0.300  12.686 -0.5902 -0.0071 -0.2003
15267TIP3    H167292   6.694   0.287  12.648 -0.8784 -1.5045 -0.4277
15267TIP3    H267293   6.548   0.255  12.626 -1.6773  1.8909 -0.6229
15268TIP3   OH267294   5.183   5.338  13.938  0.5860 -0.1419 -0.3451
15268TIP3    H167295   5.192   5.245  13.957 -1.2424 -0.4368 -0.7395
15268TIP3    H267296   5.105   5.344  13.882 -0.5950  1.8209  1.3640
15269TIP3   OH267297   5.593   2.923   4.179  0.1490 -0.6221  0.0022
15269TIP3    H167298   5.688   2.915   4.180  0.1546 -0.5587  0.7186
15269TIP3    H267299   5.573   2.968   4.097  0.7535 -0.4575 -0.0586
15270TIP3   OH267300   2.463   2.498   4.427 -0.6005  0.1957 -0.0104
15270TIP3    H167301   2.402   2.570   4.444 -1.3030 -0.1529 -1.0125
15270TIP3    H267302   2.546   2.543   4.406 -1.3333  0.7989 -1.8621
15271TIP3   OH267303   3.673   4.934  15.478  0.7976 -0.6749 -0.5075
15271TIP3    H167304   3.589   4.895  15.457  1.3107 -1.5841 -0.9318
15271TIP3    H267305   3.652   5.011  15.531 -0.3090 -0.6745 -0.9312
15272TIP3   OH267306   1.729   5.495   1.810 -0.1268 -0.0479  0.0561
15272TIP3    H167307   1.817   5.508   1.774 -0.4108 -0.0462 -0.6600
15272TIP3    H267308   1.696   5.419   1.763 -1.0494  0.8198 -0.7415
15273TIP3   OH267309   6.022   6.700  11.388  0.0483  0.0778 -0.1781
15273TIP3    H167310   6.015   6.668  11.298 -1.4639  2.3050 -0.9446
15273TIP3    H267311   6.094   6.763  11.386 -0.8724  1.1629 -0.2201
15274TIP3   OH267312   5.571   3.976  14.440 -0.7786 -0.0434  0.3267
15274TIP3    H167313   5.611   3.925  14.510 -0.8882  0.8473  1.0542
15274TIP3    H267314   5.638   4.039  14.414 -1.3770  0.8954  0.9678
15275TIP3   OH267315   2.664   1.666   1.949  0.1647  0.2709 -0.4734
15275TIP3    H167316   2.681   1.709   2.033 -0.1770  1.1119 -0.8220
15275TIP3    H267317   2.583   1.706   1.918 -0.1171 -0.5748 -0.8584
15276TIP3   OH267318   3.842   3.351  14.667 -0.2370  0.4797 -0.0222
15276TIP3    H167319   3.849   3.332  14.760  0.1821  0.3968 -0.0674
15276TIP3    H267320   3.755   3.319  14.642  0.7707 -2.2543 -0.3020
15277TIP3   OH267321   4.253   2.906  15.020  0.2815  0.3373  0.0494
15277TIP3    H167322   4.297   2.923  15.104  1.3116 -0.4710 -0.2996
15277TIP3    H267323   4.165   2.942  15.031  1.1011  2.2882  0.6880
15278TIP3   OH267324   0.987   0.451   0.813 -0.4591 -0.3073 -0.0724
15278TIP3    H167325   1.066   0.403   0.837 -1.1826 -2.1351 -1.1911
15278TIP3    H267326   1.012   0.501   0.735 -0.2621 -0.4722 -0.1152
15279TIP3   OH267327   2.438   5.268  14.688 -0.6698  0.1098 -0.2965
15279TIP3    H167328   2.506   5.289  14.623  0.5451 -0.1263  0.8584
15279TIP3    H267329   2.483   5.273  14.772 -1.9976 -0.4696  0.4794
15280TIP3   OH267330   5.478   1.314  13.856 -0.2323  0.3974 -0.9229
15280TIP3    H167331   5.480   1.344  13.765  1.6599  0.6733 -0.8291
15280TIP3    H267332   5.570   1.297  13.877 -0.7328 -0.4508  0.6893
15281TIP3   OH267333   3.701   1.164  17.192 -0.0235  0.9613  0.3219
15281TIP3    H167334   3.687   1.197  17.103  1.6644  1.0444  0.0413
15281TIP3    H267335   3.752   1.233  17.235  1.2526 -0.0883  0.5680
15282TIP3   OH267336   6.764   3.032  13.421 -0.9300  0.3906  0.4146
15282TIP3    H167337   6.808   3.108  13.459  0.6040 -0.6681  0.8406
15282TIP3    H267338   6.783   3.038  13.327 -0.2379  0.1830  0.5370
15283TIP3   OH267339   4.422   1.419   0.382  0.0823  0.7233  0.2656
15283TIP3    H167340   4.458   1.333   0.363  1.5181  1.0943  1.1678
15283TIP3    H267341   4.489   1.480   0.350  0.0590  1.4470  1.5501
15284TIP3   OH267342   1.410   5.006  13.552 -0.0185  0.6894 -0.1678
15284TIP3    H167343   1.497   5.044  13.543  0.8219 -0.6831  1.6001
15284TIP3    H267344   1.407   4.938  13.485  0.1099  0.9919 -0.4854
15285TIP3   OH267345   1.721   3.035  14.608 -0.3890  0.8956 -0.1587
15285TIP3    H167346   1.783   2.968  14.637 -2.6608 -0.7476  1.2233
15285TIP3    H267347   1.731   3.037  14.512  2.0003  1.0138  0.0342
15286TIP3   OH267348   4.983   5.294  16.332  0.3671 -0.2360 -0.0888
15286TIP3    H167349   5.048   5.344  16.284 -0.2701 -0.0285 -0.7565
15286TIP3    H267350   4.936   5.359  16.384  0.0701 -0.2440 -0.3413
15287TIP3   OH267351   6.671   3.576  11.082  0.0911 -0.0615  0.1744
15287TIP3    H167352   6.632   3.612  11.003  2.4256 -1.5917 -1.8367
15287TIP3    H267353   6.629   3.491  11.093 -0.6021  0.3590  0.9598
15288TIP3   OH267354   5.552   4.240  16.842  0.8998  0.1765  0.2226
15288TIP3    H167355   5.497   4.201  16.774  0.8826  1.3290 -0.4554
15288TIP3    H267356   5.495   4.304  16.885  0.8254 -0.7264  1.5289
15289TIP3   OH267357   4.595   2.468   0.873  0.0010 -0.1273 -0.3996
15289TIP3    H167358   4.601   2.563   0.885  0.2772 -0.2211  0.2651
15289TIP3    H267359   4.674   2.446   0.824 -0.4021  0.0704 -1.1494
15290TIP3   OH267360   4.110   1.697  11.085 -0.5322  0.1222  0.1182
15290TIP3    H167361   4.150   1.676  11.169 -0.1626 -1.7447 -0.4749
15290TIP3    H267362   4.184   1.711  11.026 -0.7532 -0.6396 -0.3546
15291TIP3   OH267363   3.040   5.861  16.170 -0.0033 -0.3840 -0.0623
15291TIP3    H167364   3.086   5.818  16.242  0.3470 -1.2419 -0.7727
15291TIP3    H267365   2.961   5.808  16.158 -0.2867  0.0256 -0.0173
15292TIP3   OH267366   3.500   0.301   0.072  0.0457 -0.9198 -0.0233
15292TIP3    H167367   3.416   0.337   0.099  0.8302  1.2313 -0.2815
15292TIP3    H267368   3.520   0.344  -0.011  1.4235 -1.3666  0.0463
15293TIP3   OH267369   5.941   3.063  13.332 -0.5433  0.2828 -0.0435
15293TIP3    H167370   5.988   3.116  13.268  2.0066 -1.5758  0.1033
15293TIP3    H267371   5.911   2.986  13.283 -2.8998  1.0542  0.0498
15294TIP3   OH267372   5.771   3.128   0.788 -0.6620  0.1016 -0.0732
15294TIP3    H167373   5.739   3.077   0.862  0.7298  0.7959  1.0543
15294TIP3    H267374   5.765   3.219   0.817 -0.9128  0.4532 -1.1647
15295TIP3   OH267375   4.572   2.669   5.316  0.3534 -0.6889 -0.0481
15295TIP3    H167376   4.611   2.618   5.388 -0.5994 -0.8876  0.3454
15295TIP3    H267377   4.611   2.631   5.237  2.5276  0.4938  0.3884
15296TIP3   OH267378   5.128   0.153  13.874  0.0426 -0.1250  0.2141
15296TIP3    H167379   5.043   0.141  13.831  0.5617 -0.3402 -0.7720
15296TIP3    H267380   5.176   0.211  13.815  0.6543 -0.1617  0.6716
15297TIP3   OH267381   5.914   6.507   2.848 -0.2420  0.6530  0.1045
15297TIP3    H167382   5.956   6.496   2.763 -0.8089 -1.0131  0.0038
15297TIP3    H267383   5.910   6.418   2.884 -0.4176  1.2739  1.6787
15298TIP3   OH267384   1.239   2.048   2.517 -0.2837  0.1486  0.1416
15298TIP3    H167385   1.297   2.019   2.447  0.0608 -1.4825  1.0768
15298TIP3    H267386   1.161   2.080   2.471 -0.0668 -0.8846 -0.9992
15299TIP3   OH267387   6.026   5.767  15.228  0.4064 -0.7317  0.3750
15299TIP3    H167388   6.102   5.708  15.235  1.8088  1.0618  1.0557
15299TIP3    H267389   5.966   5.736  15.296  0.2069 -2.5619 -0.5783
15300TIP3   OH267390   1.635   6.262  15.432  0.0998 -0.4613  0.0086
15300TIP3    H167391   1.627   6.293  15.522 -0.6474 -1.6852  0.3720
15300TIP3    H267392   1.660   6.340  15.383  2.5074 -0.1601  1.5606
15301TIP3   OH267393   1.260   5.171   1.050  0.2668  0.5968  0.3828
15301TIP3    H167394   1.214   5.107   1.104 -0.8954  0.3435 -0.8611
15301TIP3    H267395   1.270   5.248   1.106 -2.7827  1.1127  0.3702
15302TIP3   OH267396   0.822   0.818   2.098 -0.4222  0.2344  0.0135
15302TIP3    H167397   0.735   0.778   2.091 -0.9668  0.5964  3.2973
15302TIP3    H267398   0.828   0.847   2.189  3.7174 -1.0679  0.3438
15303TIP3   OH267399   3.667   3.487   2.980  0.5439  0.2340 -0.3682
15303TIP3    H167400   3.714   3.565   3.010  0.2378  0.7696 -1.2320
15303TIP3    H267401   3.597   3.475   3.043  0.0436  1.2049 -0.7233
15304TIP3   OH267402   3.560   5.654   0.760 -0.1526  0.5884 -0.2665
15304TIP3    H167403   3.484   5.610   0.723 -0.0932 -0.8553  1.1918
15304TIP3    H267404   3.627   5.649   0.692 -0.9920  0.8249 -1.1203
15305TIP3   OH267405   2.403   4.006  13.280  0.0486 -0.1214 -0.8004
15305TIP3    H167406   2.458   3.932  13.256 -0.2606 -0.5229 -0.3047
15305TIP3    H267407   2.320   3.967  13.306 -0.1663  0.4096 -0.6691
15306TIP3   OH267408   1.553   6.157  13.487 -0.2746  0.6797  0.0804
15306TIP3    H167409   1.636   6.165  13.439 -0.5761 -1.5513 -0.9437
15306TIP3    H267410   1.555   6.068  13.523 -2.1565  0.6185  0.1369
15307TIP3   OH267411   2.024   4.593   4.554 -0.5348 -0.1216 -0.3479
15307TIP3    H167412   1.937   4.634   4.561 -0.0387  0.8784  0.0782
15307TIP3    H267413   2.049   4.576   4.644 -0.6445 -1.2238 -0.5070
15308TIP3   OH267414   0.261   0.356  10.558  0.1046 -0.1191 -0.1773
15308TIP3    H167415   0.264   0.282  10.496  0.2879 -0.5536  0.3431
15308TIP3    H267416   0.280   0.433  10.504  1.4674 -0.6201 -0.4584
15309TIP3   OH267417   6.754   0.245   0.230 -0.7913 -0.1215 -0.2272
15309TIP3    H167418   6.747   0.324   0.283  0.4071 -0.6095  0.7001
15309TIP3    H267419   6.690   0.185   0.267 -1.7670  0.4114 -0.9886
15310TIP3   OH267420   4.189   5.630   0.414 -0.3538 -0.7578  0.2456
15310TIP3    H167421   4.106   5.645   0.458 -0.1291  0.4179  0.3116
15310TIP3    H267422   4.195   5.700   0.349  0.9178 -0.3525  0.7627
15311TIP3   OH267423   4.203   4.064   4.615 -0.0957 -0.2856  0.1369
15311TIP3    H167424   4.201   4.160   4.614  0.4119 -0.1471  3.2602
15311TIP3    H267425   4.115   4.038   4.643  0.0545 -0.6745  0.2612
15312TIP3   OH267426   4.042   4.456  10.883 -1.1340  0.4711 -0.2148
15312TIP3    H167427   4.107   4.407  10.934 -1.4177  0.7710  0.4505
15312TIP3    H267428   4.030   4.537  10.933 -0.9851  1.0312 -1.0754
15313TIP3   OH267429   6.338   0.069   0.026  0.3139  0.1856 -0.1228
15313TIP3    H167430   6.414   0.035   0.074 -0.6292 -1.3425  0.3552
15313TIP3    H267431   6.372   0.089  -0.061  0.9881 -1.9245 -0.4022
15314TIP3   OH267432   2.358   5.336   1.087 -0.1019  0.2055  0.8802
15314TIP3    H167433   2.419   5.271   1.121  0.2697 -0.1734 -0.4501
15314TIP3    H267434   2.312   5.291   1.016  0.8454  1.6490 -0.7124
15315TIP3   OH267435   1.293   4.134  11.145  0.7410 -0.1229  0.3943
15315TIP3    H167436   1.297   4.122  11.050  0.9519 -1.7027  0.5856
15315TIP3    H267437   1.381   4.164  11.169  0.7350  0.1227  0.1252
15316TIP3   OH267438   4.245   4.101  16.797  0.4261 -0.1946  0.0671
15316TIP3    H167439   4.340   4.098  16.801  0.3778 -0.4001  1.5687
15316TIP3    H267440   4.218   4.125  16.885 -0.9223 -0.1537 -0.3327
15317TIP3   OH267441   3.423   3.597   3.892  0.1638  0.3489  0.2620
15317TIP3    H167442   3.451   3.595   3.984  0.2579  0.3587  0.2340
15317TIP3    H267443   3.500   3.566   3.844  0.7613  2.0945  0.0281
15318TIP3   OH267444   2.248   2.239  11.823 -0.5037  0.4116  0.2846
15318TIP3    H167445   2.160   2.252  11.859 -0.9986 -0.4404 -0.5693
15318TIP3    H267446   2.294   2.189  11.890 -0.8315  0.4285  0.5264
15319TIP3   OH267447   2.155   2.558   2.001 -0.2913 -0.4358 -0.2486
15319TIP3    H167448   2.217   2.487   2.012  1.0054  0.3057 -2.2510
15319TIP3    H267449   2.195   2.632   2.047 -0.3693 -0.3191 -0.3665
15320TIP3   OH267450   4.414   3.890   4.667  0.0874  0.1529  0.0726
15320TIP3    H167451   4.339   3.947   4.649  0.6686  1.0227  0.3804
15320TIP3    H267452   4.473   3.904   4.592  0.8231  0.9648  0.7828
15321TIP3   OH267453   5.266   0.346   5.708  0.3987 -0.0490 -0.1617
15321TIP3    H167454   5.283   0.253   5.694 -0.2013 -0.2691  0.5228
15321TIP3    H267455   5.184   0.363   5.661  1.0779  0.3949 -1.2152
15322TIP3   OH267456   5.041   2.540   4.945 -0.3308  0.4604  0.3285
15322TIP3    H167457   5.079   2.617   4.903 -0.8412  1.3655  1.4678
15322TIP3    H267458   5.117   2.490   4.975  0.0526 -0.3628 -1.8487
15323TIP3   OH267459   4.467   1.365   6.517  0.3721 -0.0780  0.1925
15323TIP3    H167460   4.502   1.280   6.489 -0.0149 -0.5933  1.2045
15323TIP3    H267461   4.374   1.361   6.494  0.1863 -0.2577  0.9255
15324TIP3   OH267462   1.084   1.685   5.058  0.4972 -0.2206  0.2429
15324TIP3    H167463   1.137   1.763   5.041  0.3993 -0.5087 -1.6191
15324TIP3    H267464   1.110   1.657   5.145  2.7108  0.2022 -0.2117
15325TIP3   OH267465   5.290   4.308   1.032  0.0369 -0.5911 -0.2517
15325TIP3    H167466   5.246   4.301   1.117  0.7854 -0.8893  0.1262
15325TIP3    H267467   5.269   4.396   1.001  2.5565  0.9289  1.9006
15326TIP3   OH267468   3.638   0.450   4.204 -0.4784 -0.2895  0.4645
15326TIP3    H167469   3.567   0.510   4.228 -1.6931 -1.9864  1.3586
15326TIP3    H267470   3.627   0.435   4.110 -0.8635  0.0066  0.4618
15327TIP3   OH267471   4.259   6.539  13.177 -0.1233 -0.0369  1.1294
15327TIP3    H167472   4.271   6.458  13.127 -1.4162  0.2720  0.2328
15327TIP3    H267473   4.335   6.593  13.155 -1.6564  0.9873 -2.4322
15328TIP3   OH267474   2.695   4.855   2.349  0.0833  0.5634  0.1027
15328TIP3    H167475   2.713   4.876   2.257  0.2580  0.3015  0.0778
15328TIP3    H267476   2.718   4.935   2.397 -0.2447  0.7848 -0.1068
15329TIP3   OH267477   1.862   6.685   0.099  0.5149  0.0985  0.2384
15329TIP3    H167478   1.854   6.763   0.154  0.3807  1.6124 -1.7915
15329TIP3    H267479   1.944   6.645   0.126  2.8352  3.3048 -1.3350
15330TIP3   OH267480   1.685   5.415  15.862  0.2528 -0.2417 -0.1068
15330TIP3    H167481   1.712   5.405  15.954  0.6983 -2.6845 -0.4318
15330TIP3    H267482   1.757   5.463  15.821  1.6270 -1.9206  0.2039
15331TIP3   OH267483   4.526   3.236   3.273  0.1503 -0.5026 -0.3210
15331TIP3    H167484   4.546   3.328   3.255  2.8960 -0.4119  2.2049
15331TIP3    H267485   4.439   3.237   3.313 -1.0731  0.5641 -2.8475
15332TIP3   OH267486   1.460   0.954  15.069  0.6104 -0.5218  0.3417
15332TIP3    H167487   1.367   0.978  15.069  0.5168 -0.8801  0.2192
15332TIP3    H267488   1.499   1.007  15.000  0.1429 -1.7065 -0.8902
15333TIP3   OH267489   5.836   0.771  10.969 -0.5956  0.2696 -0.5641
15333TIP3    H167490   5.830   0.693  11.024  0.2327  0.8225  0.3555
15333TIP3    H267491   5.808   0.742  10.882 -3.0401 -0.3543  0.3655
15334TIP3   OH267492   1.957   1.287  15.677  0.1319 -0.2809  0.8272
15334TIP3    H167493   1.953   1.216  15.613 -2.2915 -0.3832  0.9959
15334TIP3    H267494   1.966   1.367  15.624 -1.8338 -0.3644  0.2675
15335TIP3   OH267495   5.068   1.378   2.792  0.6092  0.6090 -0.4383
15335TIP3    H167496   4.972   1.383   2.799  0.7302  1.7642  0.7937
15335TIP3    H267497   5.093   1.462   2.755  1.1198  0.0378 -1.4327
15336TIP3   OH267498   5.184   1.603   4.862 -0.1291 -0.2046 -0.3375
15336TIP3    H167499   5.245   1.650   4.919  0.6569 -1.1640 -0.3399
15336TIP3    H267500   5.143   1.671   4.809 -0.8169  0.7035  1.2920
15337TIP3   OH267501   5.199   4.735  14.346  0.5289  0.3566 -0.5354
15337TIP3    H167502   5.219   4.799  14.277  0.3983 -0.2780 -1.1809
15337TIP3    H267503   5.232   4.652  14.310 -0.5027 -0.1710 -0.2888
15338TIP3   OH267504   5.957   0.331   2.020 -0.0637  0.3345  0.0664
15338TIP3    H167505   5.900   0.295   1.952  2.9093 -2.6155 -1.0922
15338TIP3    H267506   6.006   0.401   1.977  0.7958 -0.5708 -0.4473
15339TIP3   OH267507   3.955   0.589   4.776 -0.0551 -0.3215 -0.0303
15339TIP3    H167508   3.982   0.570   4.866 -0.5956 -0.0925  0.1867
15339TIP3    H267509   4.022   0.548   4.722  0.9432  0.5785  0.4936
15340TIP3   OH267510   1.222   3.236  12.174 -0.3081  0.0327 -0.5328
15340TIP3    H167511   1.220   3.260  12.082 -0.3186  2.0655 -0.0427
15340TIP3    H267512   1.280   3.160  12.178 -0.5656 -0.2912 -2.2380
15341TIP3   OH267513   3.372   0.360  11.843  0.0475  0.3607 -0.4983
15341TIP3    H167514   3.426   0.400  11.911  1.5806  0.9280 -1.9775
15341TIP3    H267515   3.319   0.432  11.808  0.3548  0.3961 -0.8985
15342TIP3   OH267516   2.688   1.123  14.727  0.1898 -0.2486  0.9847
15342TIP3    H167517   2.681   1.073  14.645 -1.7956  0.2462  0.7986
15342TIP3    H267518   2.715   1.059  14.792 -2.6481 -1.7776  0.8288
15343TIP3   OH267519   1.304   5.544   4.863  0.2819  0.3772 -0.6962
15343TIP3    H167520   1.278   5.594   4.785  1.2407 -0.2480 -1.4365
15343TIP3    H267521   1.226   5.546   4.919 -0.0316  1.8644 -1.1191
15344TIP3   OH267522   3.700   5.959  13.027  0.0538  0.0573 -0.2570
15344TIP3    H167523   3.753   6.039  13.028 -0.0993  0.1614  1.3598
15344TIP3    H267524   3.742   5.901  13.090 -1.3172 -0.1323  0.5340
15345TIP3   OH267525   6.292   6.564  17.010 -0.1753 -0.3976  0.0474
15345TIP3    H167526   6.325   6.512  17.083  1.8282  0.0063 -0.4781
15345TIP3    H267527   6.324   6.518  16.932  0.0397  0.5921 -0.4710
15346TIP3   OH267528   0.448   1.270   3.192  0.4546 -0.0553  0.1786
15346TIP3    H167529   0.376   1.321   3.228 -0.3285 -0.6687 -0.4621
15346TIP3    H267530   0.429   1.180   3.217 -0.1104 -0.5008 -1.6778
15347TIP3   OH267531   0.725   1.984   5.064 -0.4920  0.3224  0.2150
15347TIP3    H167532   0.775   1.982   5.146 -0.3603  1.8188  0.2028
15347TIP3    H267533   0.784   2.027   5.002 -0.3822 -1.2655 -0.8496
15348TIP3   OH267534   0.589   5.461   0.860 -0.5238 -0.1018 -0.1512
15348TIP3    H167535   0.615   5.547   0.893 -1.3144  0.0028  0.2228
15348TIP3    H267536   0.649   5.444   0.787  0.2893  0.3137  0.4123
15349TIP3   OH267537   0.371   6.612   0.619  0.2755  0.2106 -0.1428
15349TIP3    H167538   0.276   6.617   0.628  0.3963  2.4620  0.5083
15349TIP3    H267539   0.386   6.584   0.529 -0.9881 -0.8943 -0.0318
15350TIP3   OH267540   6.250   0.260  14.862 -0.1200  0.4110  1.0013
15350TIP3    H167541   6.163   0.265  14.903 -1.0139 -0.2582 -0.7345
15350TIP3    H267542   6.299   0.332  14.902 -1.5336  0.9587  1.8388
15351TIP3   OH267543   6.688   6.132  16.738  0.5599 -0.0753 -0.5677
15351TIP3    H167544   6.697   6.069  16.666 -0.2077  0.2467 -0.9649
15351TIP3    H267545   6.734   6.091  16.812 -1.6657 -2.1148 -0.1705
15352TIP3   OH267546   1.721   3.319   4.149  0.1287  0.1635 -0.6844
15352TIP3    H167547   1.644   3.374   4.165  0.4663  0.6038 -0.5592
15352TIP3    H267548   1.785   3.349   4.214  1.4180  1.7736 -2.5906
15353TIP3   OH267549   1.828   2.908   5.132 -0.1478  0.1095 -0.0465
15353TIP3    H167550   1.910   2.931   5.088 -0.2094 -1.1989 -0.9086
15353TIP3    H267551   1.777   2.989   5.132  1.5420  1.2469  1.4917
15354TIP3   OH267552   0.603   1.464  12.528  0.2506 -0.5140 -0.6059
15354TIP3    H167553   0.575   1.373  12.529  1.5021 -0.9400  1.2075
15354TIP3    H267554   0.698   1.461  12.518  0.3398  0.5756 -0.3117
15355TIP3   OH267555   6.151   6.120  16.714  0.2356  0.0390  0.3434
15355TIP3    H167556   6.213   6.059  16.753 -0.7889 -2.4696 -1.6329
15355TIP3    H267557   6.177   6.126  16.622 -1.3341  0.3907 -0.1151
15356TIP3   OH267558   1.691   0.612  11.012 -0.2183  0.3073 -0.3949
15356TIP3    H167559   1.676   0.517  11.007 -0.3505  0.2140  1.2767
15356TIP3    H267560   1.604   0.649  11.028  0.1131  0.4937  1.1273
15357TIP3   OH267561   0.993   5.988   3.749  0.6614 -0.6451 -1.2893
15357TIP3    H167562   0.946   5.939   3.817 -0.5148  0.8945 -0.9256
15357TIP3    H267563   1.085   5.974   3.769  0.3564 -0.2008  0.6979
15358TIP3   OH267564   5.126   4.212  12.050  0.1326 -0.5506  0.2088
15358TIP3    H167565   5.196   4.164  12.094  2.8840  2.3278 -0.6710
15358TIP3    H267566   5.073   4.247  12.121  0.8562 -1.0008  0.9955
15359TIP3   OH267567   5.282   6.019  15.024 -0.5387  0.3782  0.3482
15359TIP3    H167568   5.367   6.005  15.065 -0.2763  0.9405  0.0019
15359TIP3    H267569   5.221   6.028  15.098 -0.3671 -0.3976  0.5955
15360TIP3   OH267570   6.160   1.026  13.545 -0.0140  0.7813 -0.0581
15360TIP3    H167571   6.084   1.085  13.544 -0.4830  0.2219  0.7925
15360TIP3    H267572   6.234   1.081  13.519 -0.9057  1.0060 -2.3920
15361TIP3   OH267573   2.752   3.794  15.228  0.2646 -0.5529  1.0103
15361TIP3    H167574   2.829   3.739  15.245  2.0344  1.8515  1.2907
15361TIP3    H267575   2.747   3.851  15.305  0.0999  1.3637 -0.3568
15362TIP3   OH267576   5.344   3.307   2.739 -0.0360 -0.8325  0.4788
15362TIP3    H167577   5.305   3.333   2.823 -1.3424  2.1391 -0.9066
15362TIP3    H267578   5.269   3.300   2.679  1.0563 -0.5846 -0.9723
15363TIP3   OH267579   3.994   1.905   4.505  0.1031  0.5205 -0.0204
15363TIP3    H167580   3.901   1.922   4.520 -0.6212 -2.4108 -0.5132
15363TIP3    H267581   4.019   1.846   4.576  1.5383  1.0553 -0.0593
15364TIP3   OH267582   3.496   6.045   2.229 -0.2915 -0.6411  0.3424
15364TIP3    H167583   3.479   5.978   2.163  0.4140 -0.4769 -0.0153
15364TIP3    H267584   3.494   6.128   2.181  0.5189 -0.5420  0.4633
15365TIP3   OH267585   3.578   2.200   0.510 -0.1297 -0.0857  0.8550
15365TIP3    H167586   3.560   2.286   0.473  0.5990  0.7843  2.4491
15365TIP3    H267587   3.586   2.142   0.434 -1.2086  1.1131 -0.2119
15366TIP3   OH267588   6.020   4.002  15.697 -0.1023  0.5195  0.6000
15366TIP3    H167589   5.990   3.976  15.784  0.9769 -0.0736  0.8237
15366TIP3    H267590   5.994   4.093  15.688 -1.7250  0.1208  0.8506
15367TIP3   OH267591   5.981   3.873   1.106  0.7561 -0.6555  0.3037
15367TIP3    H167592   5.958   3.874   1.199  1.6448 -1.2681  0.5408
15367TIP3    H267593   6.076   3.879   1.104  0.6412  3.2721 -0.6989
15368TIP3   OH267594   5.893   1.973  11.959 -0.2444  0.1895  0.0245
15368TIP3    H167595   5.828   1.994  12.025 -0.5259  1.2109 -0.5494
15368TIP3    H267596   5.856   2.008  11.878  0.1946 -0.8344 -0.6360
15369TIP3   OH267597   3.201   3.545  12.257 -0.6235 -0.6538 -0.5221
15369TIP3    H167598   3.257   3.618  12.231  0.0178 -0.5411  1.0798
15369TIP3    H267599   3.256   3.467  12.247 -0.8839 -0.7785 -0.9923
15370TIP3   OH267600   2.821   3.453   1.776 -0.0399 -0.3973 -0.4711
15370TIP3    H167601   2.862   3.384   1.828 -0.4970 -1.1819 -1.1326
15370TIP3    H267602   2.727   3.441   1.789 -0.1481 -0.3698 -1.1806
15371TIP3   OH267603   3.995   1.408   1.795  0.0309 -0.2181  0.3582
15371TIP3    H167604   3.990   1.333   1.855 -1.5684 -1.8363 -1.6341
15371TIP3    H267605   3.904   1.431   1.779  0.4158  0.2941 -1.2422
15372TIP3   OH267606   5.928   3.245  16.191 -0.1555  0.0570  0.1443
15372TIP3    H167607   5.895   3.226  16.103 -2.3901  3.5914  0.0191
15372TIP3    H267608   5.865   3.205  16.250 -0.7519  0.7797  0.0182
15373TIP3   OH267609   6.369   2.237   6.391 -0.3406 -0.3014  0.6595
15373TIP3    H167610   6.277   2.219   6.375  0.0146 -1.2493 -0.5006
15373TIP3    H267611   6.394   2.178   6.462 -0.2434 -1.2657 -0.1547
15374TIP3   OH267612   0.668   4.413   5.213  0.4642 -0.6289  0.0223
15374TIP3    H167613   0.629   4.326   5.218 -0.3814 -0.2307  0.6918
15374TIP3    H267614   0.756   4.398   5.179  0.0035 -1.6380 -0.7762
15375TIP3   OH267615   6.713   5.252   3.519 -0.3151 -0.2093 -0.3682
15375TIP3    H167616   6.730   5.345   3.501 -0.4859 -0.3569 -1.3573
15375TIP3    H267617   6.730   5.242   3.613 -1.9573  1.2019  0.1186
15376TIP3   OH267618   2.570   1.817   5.689  1.0665 -0.1733  0.0616
15376TIP3    H167619   2.566   1.873   5.767  1.3936 -1.1040  0.7593
15376TIP3    H267620   2.648   1.763   5.702  0.3418 -1.3247 -0.2305
15377TIP3   OH267621   2.594   5.647   4.744 -0.0261 -0.8570  0.8201
15377TIP3    H167622   2.686   5.644   4.771  0.6785 -0.0933 -1.3474
15377TIP3    H267623   2.596   5.646   4.649 -2.1345  1.6983  0.6247
15378TIP3   OH267624   2.774   0.520   3.807  0.0227  0.2805  0.4786
15378TIP3    H167625   2.757   0.538   3.714  2.2122 -2.5087 -0.6163
15378TIP3    H267626   2.833   0.590   3.834  3.2501 -1.2729 -1.7830
15379TIP3   OH267627   4.354   5.483  16.312 -0.6016 -0.0094  0.4020
15379TIP3    H167628   4.324   5.393  16.319 -1.1011 -0.1284 -2.1295
15379TIP3    H267629   4.273   5.535  16.306 -0.3284  0.3883  0.0369
15380TIP3   OH267630   5.124   4.374   3.066  0.1802  0.2954  0.0206
15380TIP3    H167631   5.052   4.430   3.039  1.0476  1.0513 -0.7931
15380TIP3    H267632   5.096   4.285   3.042 -0.6869  0.5078  0.2014
15381TIP3   OH267633   2.995   4.338  16.875  0.2833  0.2164 -0.4403
15381TIP3    H167634   2.955   4.424  16.890 -1.4056 -0.9883  2.9568
15381TIP3    H267635   2.936   4.295  16.813 -0.2478  0.6609 -0.2615
15382TIP3   OH267636   1.703   5.089   1.470 -0.0481  0.3628  0.1225
15382TIP3    H167637   1.793   5.108   1.442 -0.5148 -0.1877 -1.9271
15382TIP3    H267638   1.710   5.008   1.520  0.4421 -0.3948 -1.1368
15383TIP3   OH267639   5.781   2.948   6.305 -0.0055  0.4670 -0.5942
15383TIP3    H167640   5.837   2.995   6.367  1.1170 -0.8032 -0.6054
15383TIP3    H267641   5.836   2.934   6.228 -0.1716 -1.1644 -0.4514
15384TIP3   OH267642   6.208   5.098   3.638 -0.3023 -0.6628  0.4703
15384TIP3    H167643   6.209   5.036   3.565  0.2097 -0.9548  0.7181
15384TIP3    H267644   6.186   5.182   3.598  0.1268 -0.7916 -0.0463
15385TIP3   OH267645   5.386   3.727   0.958 -0.5383 -0.4584  0.2320
15385TIP3    H167646   5.396   3.639   0.992 -1.5960 -0.8200 -0.3374
15385TIP3    H267647   5.360   3.715   0.866  1.0549  0.4621 -0.3815
15386TIP3   OH267648   2.091   2.808   3.442 -0.1282 -0.5188  0.3055
15386TIP3    H167649   2.145   2.785   3.517 -0.1854  0.4081  0.6390
15386TIP3    H267650   2.004   2.826   3.479  0.0713  0.8522  0.1576
15387TIP3   OH267651   4.160   6.069   0.156 -0.2077 -0.2843 -0.4772
15387TIP3    H167652   4.114   6.150   0.136  0.8151  0.1957 -0.9744
15387TIP3    H267653   4.223   6.093   0.223 -0.3845 -0.8356 -0.1075
15388TIP3   OH267654   2.077   5.093  13.367  0.4231 -0.4726  0.4374
15388TIP3    H167655   2.118   5.007  13.378 -0.2295 -0.4064  5.2582
15388TIP3    H267656   2.116   5.147  13.435 -0.8505  2.4491 -0.9822
15389TIP3   OH267657   4.218   6.756   2.291  0.1964  0.2007 -0.9031
15389TIP3    H167658   4.187   6.724   2.206  1.1946  1.2748 -1.6980
15389TIP3    H267659   4.233   6.677   2.342 -0.2003 -0.4752 -1.8014
15390TIP3   OH267660   3.520   3.619   5.099 -0.3258  0.5556  0.1995
15390TIP3    H167661   3.459   3.690   5.116  0.4086  1.4609 -0.7970
15390TIP3    H267662   3.475   3.564   5.035  0.1731  1.6654 -1.1656
15391TIP3   OH267663   4.733   4.703  16.761 -0.0130 -0.0498 -0.6320
15391TIP3    H167664   4.652   4.722  16.809  0.7401 -1.0782  1.1580
15391TIP3    H267665   4.792   4.775  16.783  0.2655 -0.4141 -0.1786
15392TIP3   OH267666   2.202   3.524  17.234 -0.3644 -0.8715 -0.1780
15392TIP3    H167667   2.275   3.475  17.273 -0.1939  1.6100  3.0641
15392TIP3    H267668   2.242   3.606  17.205 -1.8023  0.5400  1.6644
15393TIP3   OH267669   0.638   5.337   2.768 -0.1987  0.1735 -0.0921
15393TIP3    H167670   0.684   5.420   2.782  0.7984 -0.1338 -1.3789
15393TIP3    H267671   0.645   5.292   2.852 -1.1666  1.5724  0.7735
15394TIP3   OH267672   0.424   2.996   5.239 -0.1424 -0.2903 -0.3355
15394TIP3    H167673   0.461   2.908   5.233  0.1686 -0.2424  0.7118
15394TIP3    H267674   0.501   3.053   5.251 -0.4706 -0.0886  0.9200
15395TIP3   OH267675   2.140   3.811   6.257  0.3832 -0.3521 -0.5115
15395TIP3    H167676   2.214   3.761   6.223  0.0778 -1.4846  0.4313
15395TIP3    H267677   2.153   3.812   6.352 -0.6598 -0.3083 -0.3567
15396TIP3   OH267678   4.900   6.089   1.052  0.0774  0.7213 -0.4138
15396TIP3    H167679   4.854   6.156   1.103  0.3878  0.4939  0.1640
15396TIP3    H267680   4.870   6.104   0.962 -0.1740  1.3723 -0.2311
15397TIP3   OH267681   3.502   3.325  15.432  0.4607  0.2379  0.8603
15397TIP3    H167682   3.479   3.308  15.341 -0.0418 -0.1107  1.0481
15397TIP3    H267683   3.556   3.404  15.429 -0.9547  1.2283  0.4266
15398TIP3   OH267684   3.870   1.489   4.259 -0.2522 -0.0939  0.2085
15398TIP3    H167685   3.849   1.399   4.236 -2.7301  0.5017 -0.1834
15398TIP3    H267686   3.785   1.534   4.258  0.8008  2.0507  1.2440
15399TIP3   OH267687   0.502   4.580  16.765 -0.0015 -0.3542  0.1143
15399TIP3    H167688   0.453   4.498  16.771 -1.3245  0.4745  1.5120
15399TIP3    H267689   0.451   4.633  16.704 -0.4562  0.2317  0.9803
15400TIP3   OH267690   2.819   3.832   3.480 -0.3403  0.5189  0.8801
15400TIP3    H167691   2.747   3.790   3.527 -0.6655 -0.2770 -0.2849
15400TIP3    H267692   2.897   3.783   3.507 -0.7110 -0.8601 -0.4393
15401TIP3   OH267693   3.803   1.250   2.269  0.2809  0.5165  0.1449
15401TIP3    H167694   3.786   1.339   2.300 -2.0979  0.2534 -0.2171
15401TIP3    H267695   3.797   1.256   2.174  2.3673  0.3315 -0.0530
15402TIP3   OH267696   5.866   5.738   5.599 -0.0180 -0.5548 -0.4607
15402TIP3    H167697   5.800   5.802   5.572  1.3327  0.3023 -1.7883
15402TIP3    H267698   5.902   5.774   5.680 -2.8975 -2.3159  1.8414
15403TIP3   OH267699   1.540   6.715   1.898  0.3985  0.1188  0.1036
15403TIP3    H167700   1.559   6.744   1.809 -1.1462 -3.3258 -1.5147
15403TIP3    H267701   1.454   6.753   1.918 -0.1084 -0.5936 -0.6624
15404TIP3   OH267702   5.426   2.477  16.731 -0.0131 -0.1023  0.6643
15404TIP3    H167703   5.442   2.456  16.639 -0.3670 -2.3611  1.0534
15404TIP3    H267704   5.332   2.465  16.742  0.0763 -0.1774  1.3917
15405TIP3   OH267705   4.824   1.027  10.884 -0.0679 -0.0571  0.2498
15405TIP3    H167706   4.757   1.019  10.816  0.0226  3.2827 -0.3758
15405TIP3    H267707   4.847   1.120  10.884  3.8729 -0.8612  1.1286
15406TIP3   OH267708   5.898   5.083  12.290 -0.2939  0.1088  0.3398
15406TIP3    H167709   5.979   5.114  12.331 -0.6049  0.0027  1.0508
15406TIP3    H267710   5.915   5.088  12.196  1.1322 -1.4412  0.4703
15407TIP3   OH267711   6.024   5.078  10.364 -0.5239 -0.2497 -0.0331
15407TIP3    H167712   6.048   5.126  10.443 -0.9857 -1.9547  1.1786
15407TIP3    H267713   6.053   4.989  10.379 -2.2739 -1.0346 -0.9968
15408TIP3   OH267714   4.605   1.077   3.926 -0.4108 -0.0732  0.1392
15408TIP3    H167715   4.643   1.106   3.844 -2.1993  0.9448 -0.3794
15408TIP3    H267716   4.527   1.132   3.938 -0.2710 -0.2573  2.4570
15409TIP3   OH267717   4.913   4.906   5.970  0.5021 -0.7361 -0.1271
15409TIP3    H167718   4.898   4.900   5.876 -0.6331  0.9864 -0.1035
15409TIP3    H267719   4.992   4.961   5.978 -1.6493  2.6580 -0.1289
15410TIP3   OH267720   4.022   6.552   4.650  0.0441 -0.3821 -0.3156
15410TIP3    H167721   4.022   6.608   4.572  0.2860 -0.4121 -0.3377
15410TIP3    H267722   4.080   6.596   4.711 -1.3375  0.4645  0.4542
15411TIP3   OH267723   2.830   4.927  10.841 -0.0958 -0.5377  0.2657
15411TIP3    H167724   2.823   4.869  10.916 -0.4360 -1.8261 -0.7193
15411TIP3    H267725   2.923   4.947  10.833 -0.0077 -0.7617  0.7447
15412TIP3   OH267726   6.181   2.962  15.477 -0.0687 -0.2955 -0.4625
15412TIP3    H167727   6.217   3.036  15.525  1.3916  0.1622 -2.1477
15412TIP3    H267728   6.118   3.000  15.417  0.1776 -0.4962 -0.8537
15413TIP3   OH267729   5.816   1.157   6.029 -0.6302 -0.4838 -0.3149
15413TIP3    H167730   5.886   1.197   5.977 -1.4638  0.6130 -0.6374
15413TIP3    H267731   5.832   1.189   6.118 -0.6504 -0.3391 -0.3633
15414TIP3   OH267732   2.716   1.844  14.267 -0.3146  0.2404 -0.4185
15414TIP3    H167733   2.657   1.859  14.194 -1.2395  3.9064  0.8633
15414TIP3    H267734   2.803   1.844  14.228 -0.7975  1.9181 -1.6335
15415TIP3   OH267735   1.129   1.480  16.422 -0.2277  0.2748 -0.1830
15415TIP3    H167736   1.105   1.572  16.410 -0.3412  0.3201  0.3669
15415TIP3    H267737   1.188   1.480  16.497  1.0216  0.0869 -1.1332
15416TIP3   OH267738   6.152   0.469  14.223  0.2508 -0.3065  0.2974
15416TIP3    H167739   6.135   0.562  14.204  2.0123 -0.2259 -1.2070
15416TIP3    H267740   6.241   0.469  14.259  0.6113 -1.5009 -0.5577
15417TIP3   OH267741   3.683   5.668   1.564  0.1942  0.7902 -0.2313
15417TIP3    H167742   3.605   5.633   1.608  1.0773  1.0445  1.6284
15417TIP3    H267743   3.648   5.732   1.502 -1.1396  0.1120 -0.2350
15418TIP3   OH267744   2.614   6.281  12.169 -0.6343  0.1132  0.0101
15418TIP3    H167745   2.580   6.366  12.196 -0.1726 -0.1061  1.3618
15418TIP3    H267746   2.668   6.252  12.243 -1.1462 -1.5497 -0.2316
15419TIP3   OH267747   2.898   6.393  15.239 -0.3378  0.6040  0.1455
15419TIP3    H167748   2.921   6.379  15.147 -0.4809  0.3126  0.1506
15419TIP3    H267749   2.982   6.397  15.284 -0.2445  1.4803 -0.0964
15420TIP3   OH267750   2.545   3.483   4.256  0.2303  0.0509 -0.0423
15420TIP3    H167751   2.507   3.546   4.195 -1.0196 -1.1554 -0.5774
15420TIP3    H267752   2.519   3.513   4.343 -1.3831 -0.3495 -0.3635
15421TIP3   OH267753   4.873   0.052  10.667 -0.4837  0.0271  0.2072
15421TIP3    H167754   4.951   0.096  10.702 -0.3566 -0.9650  1.2561
15421TIP3    H267755   4.870   0.077  10.575  1.9904 -1.1268 -0.2681
15422TIP3   OH267756   1.034   5.081   5.411 -0.4399  0.1546 -0.5832
15422TIP3    H167757   1.000   4.992   5.417  2.1362 -0.8217  2.1556
15422TIP3    H267758   1.111   5.074   5.356 -0.3118  0.7076 -0.4803
15423TIP3   OH267759   5.951   1.012  12.665  0.3162  0.1055  0.3649
15423TIP3    H167760   5.971   0.918  12.659  0.2286  0.1136 -0.0966
15423TIP3    H267761   5.856   1.016  12.672  0.2929  0.1752  0.0143
15424TIP3   OH267762   4.595   5.611   2.569  0.2281 -0.7293  0.0690
15424TIP3    H167763   4.547   5.600   2.650 -0.5060 -1.6622 -0.4690
15424TIP3    H267764   4.531   5.592   2.500  1.1670 -1.2826 -0.6823
15425TIP3   OH267765   3.347   1.905  13.845  0.6565 -0.1381 -0.2994
15425TIP3    H167766   3.342   1.950  13.930 -0.4494 -0.0266 -0.4102
15425TIP3    H267767   3.285   1.952  13.789 -0.6736 -1.8728 -0.3636
15426TIP3   OH267768   2.616   6.745   4.261  0.2827 -0.0952 -0.0046
15426TIP3    H167769   2.620   6.654   4.232  1.9121 -0.1325  0.2247
15426TIP3    H267770   2.669   6.793   4.196  1.7225  0.2330  1.3512
15427TIP3   OH267771   2.127   5.209   4.374  0.3477 -0.7651  0.3787
15427TIP3    H167772   2.197   5.159   4.415  1.3584  1.1358  1.0874
15427TIP3    H267773   2.090   5.149   4.308  1.9531 -2.1558  0.6733
15428TIP3   OH267774   4.359   3.964   0.165  0.4259 -0.0277 -0.6172
15428TIP3    H167775   4.319   3.984   0.080 -1.3298 -0.6771  0.0208
15428TIP3    H267776   4.359   4.047   0.212 -1.0121 -0.1737 -0.3137
15429TIP3   OH267777   1.997   2.927   2.163  0.2154 -0.3069 -0.0050
15429TIP3    H167778   1.973   3.001   2.218 -0.6263  0.2056 -1.0249
15429TIP3    H267779   2.045   2.966   2.090  0.8030 -0.9062  0.0547
15430TIP3   OH267780   5.421   6.075  15.881 -0.0342 -0.1696 -0.4462
15430TIP3    H167781   5.338   6.028  15.875  0.3053 -1.1097  1.3773
15430TIP3    H267782   5.486   6.011  15.851  0.1019  0.3367 -1.2439
15431TIP3   OH267783   5.530   1.262   6.487 -0.3940 -0.4764  0.1795
15431TIP3    H167784   5.605   1.215   6.452 -0.0503  0.4176 -0.2983
15431TIP3    H267785   5.457   1.202   6.476  0.1185 -1.0687 -0.0127
15432TIP3   OH267786   6.709   5.965   1.828  0.1099  0.2263  0.4374
15432TIP3    H167787   6.642   6.025   1.794 -0.6218 -0.1521  1.2006
15432TIP3    H267788   6.739   5.917   1.751 -2.7992 -1.9053  0.4782
15433TIP3   OH267789   1.948   4.899   1.851 -0.2285 -1.0925  0.3236
15433TIP3    H167790   2.043   4.888   1.863  0.1357 -0.0017 -1.2727
15433TIP3    H267791   1.921   4.952   1.927  0.8029  0.1840 -0.1534
15434TIP3   OH267792   5.502   1.874  13.332  0.2059 -0.0877  0.3353
15434TIP3    H167793   5.500   1.943  13.266 -0.2849 -1.7382 -1.4488
15434TIP3    H267794   5.541   1.916  13.409  3.2806  1.2087 -1.7680
15435TIP3   OH267795   0.718   3.251   0.834 -0.4968 -0.2818 -0.4495
15435TIP3    H167796   0.645   3.193   0.855 -0.6602  0.1076  0.0944
15435TIP3    H267797   0.786   3.193   0.801 -0.4433 -0.8553  0.6274
15436TIP3   OH267798   2.473   4.350   4.396  0.3731 -0.2063  0.2204
15436TIP3    H167799   2.498   4.278   4.339 -0.1381 -0.5586  0.4328
15436TIP3    H267800   2.500   4.322   4.483  1.6624  0.5684  0.0968
15437TIP3   OH267801   4.787   0.754   5.381 -0.1817  0.7338 -0.1597
15437TIP3    H167802   4.730   0.816   5.428 -0.5278  0.3724 -0.0977
15437TIP3    H267803   4.863   0.806   5.357 -0.3182  1.1041  0.1857
15438TIP3   OH267804   3.557   1.067   1.887  0.5803 -0.2639 -0.2834
15438TIP3    H167805   3.631   1.039   1.940  0.1361 -1.1395 -0.1131
15438TIP3    H267806   3.587   1.059   1.797  0.8566 -0.1460 -0.2017
15439TIP3   OH267807   3.039   4.786   3.248 -0.1812 -0.6021  0.2258
15439TIP3    H167808   3.120   4.832   3.227 -0.6889  0.6529  0.8949
15439TIP3    H267809   2.972   4.854   3.250 -0.8204 -1.2022  2.0470
15440TIP3   OH267810   2.101   2.335   4.284 -0.3805  0.7008 -0.3918
15440TIP3    H167811   2.099   2.411   4.226 -0.8478 -0.1284 -1.4953
15440TIP3    H267812   2.023   2.345   4.338 -1.4322  0.1062 -1.7521
15441TIP3   OH267813   4.322   1.577   0.586  0.2186  0.2288 -0.9919
15441TIP3    H167814   4.327   1.665   0.550  0.9086  0.1171 -1.1843
15441TIP3    H267815   4.378   1.524   0.529  0.1666 -0.2402 -0.6145
15442TIP3   OH267816   0.505   0.876  14.063  0.3387  0.0952  0.1312
15442TIP3    H167817   0.555   0.957  14.069  0.6339  0.1980 -2.4619
15442TIP3    H267818   0.428   0.898  14.011 -0.6490 -0.8558  1.1209
15443TIP3   OH267819   1.057   1.131  11.365 -0.7453  0.3537  0.1284
15443TIP3    H167820   1.073   1.161  11.276 -2.6333  0.7531 -0.1251
15443TIP3    H267821   0.963   1.146  11.379 -0.5731 -0.0589  2.0464
15444TIP3   OH267822   5.042   6.822  15.717  0.0953  0.0361 -0.1060
15444TIP3    H167823   4.979   6.767  15.670 -2.2814  2.2826  0.2607
15444TIP3    H267824   5.108   6.845  15.651 -0.2568 -1.1285 -0.9035
15445TIP3   OH267825   3.827   5.220   1.882 -0.2390 -0.6614 -0.2063
15445TIP3    H167826   3.853   5.145   1.829 -1.0824  0.4322 -2.2855
15445TIP3    H267827   3.747   5.253   1.840  0.8845  2.2469 -0.3047
15446TIP3   OH267828   5.176   1.056   4.367  0.2035  0.6500 -0.2015
15446TIP3    H167829   5.171   0.978   4.422  1.6311  0.6832  0.0287
15446TIP3    H267830   5.183   1.129   4.429  2.2761  0.6533 -0.3671
15447TIP3   OH267831   1.267   3.260  10.878  0.0447  0.2540  0.2518
15447TIP3    H167832   1.321   3.229  10.805  1.7257  0.5138  1.3168
15447TIP3    H267833   1.255   3.183  10.934 -0.8348  0.1688 -0.0340
15448TIP3   OH267834   6.360   3.777   4.891 -0.4757  0.1327  0.3438
15448TIP3    H167835   6.413   3.847   4.928  0.8270  1.0984 -2.9327
15448TIP3    H267836   6.270   3.810   4.895 -0.1736  0.9020  1.0191
15449TIP3   OH267837   2.624   3.321  15.628  0.0921 -0.6115  0.0420
15449TIP3    H167838   2.619   3.309  15.723 -2.9889 -0.5268 -0.0074
15449TIP3    H267839   2.696   3.383  15.615  0.7615 -0.8559  2.2856
15450TIP3   OH267840   0.571   6.702   5.534 -0.5935 -0.0223  0.5129
15450TIP3    H167841   0.610   6.789   5.533  0.7777 -0.6117  0.8465
15450TIP3    H267842   0.635   6.648   5.580 -1.2526 -1.2924 -0.0364
15451TIP3   OH267843   6.267   2.065  14.342 -0.3226 -0.5817  0.3026
15451TIP3    H167844   6.241   2.106  14.424 -0.9254 -1.3460  0.4975
15451TIP3    H267845   6.187   2.062  14.290  0.4997  2.0211 -1.2749
15452TIP3   OH267846   3.814   3.727  11.917 -0.0284  0.5035  0.5924
15452TIP3    H167847   3.870   3.687  11.984 -1.7208 -0.3161  1.5773
15452TIP3    H267848   3.725   3.713  11.949 -0.9004  0.1834 -1.7870
15453TIP3   OH267849   2.910   6.664  15.674 -0.1172 -0.0681  0.1588
15453TIP3    H167850   2.988   6.706  15.710 -0.5543  1.3160 -0.4709
15453TIP3    H267851   2.838   6.696  15.728 -0.5647  0.7260 -0.8647
15454TIP3   OH267852   5.521   3.039  10.876  0.1752 -0.0169 -0.4744
15454TIP3    H167853   5.535   3.122  10.831 -0.4546  0.6849  0.5588
15454TIP3    H267854   5.572   2.975  10.827  0.6795  0.9834 -1.2833
15455TIP3   OH267855   4.580   1.408   2.574  0.0469 -0.0946  0.2069
15455TIP3    H167856   4.575   1.424   2.668 -0.7527  0.9666  0.0006
15455TIP3    H267857   4.543   1.320   2.562  2.2407 -1.2141  1.1012
15456TIP3   OH267858   1.405   6.226  10.971  0.0255  0.0891 -0.1036
15456TIP3    H167859   1.415   6.303  10.915 -1.1272 -0.8339 -1.6416
15456TIP3    H267860   1.492   6.185  10.970  0.0946  0.2369 -0.9919
15457TIP3   OH267861   4.004   0.443   1.689 -0.0535  0.2907 -0.1063
15457TIP3    H167862   4.032   0.405   1.606 -2.2467 -1.3523 -0.1930
15457TIP3    H267863   3.908   0.443   1.685 -0.2450 -0.1269  2.4992
15458TIP3   OH267864   5.303   3.501  17.278 -0.4894 -0.4003  0.6008
15458TIP3    H167865   5.318   3.415  17.316 -0.0526 -1.2558 -1.3417
15458TIP3    H267866   5.261   3.482  17.194  0.9201  1.1656 -0.5142
15459TIP3   OH267867   4.249   5.263   0.151 -0.3948  0.2913  0.6614
15459TIP3    H167868   4.301   5.222   0.082  1.3052  0.2884  1.8484
15459TIP3    H267869   4.247   5.197   0.221 -3.6199 -0.4362  0.0172
15460TIP3   OH267870   1.762   1.854   1.821  0.0371  0.1069 -0.3032
15460TIP3    H167871   1.733   1.942   1.797 -1.1890 -0.3687 -0.6123
15460TIP3    H267872   1.750   1.850   1.916  1.4109  0.7260 -0.0756
15461TIP3   OH267873   1.008   5.384  16.903  0.8558 -0.0600 -0.0520
15461TIP3    H167874   0.962   5.300  16.896 -0.9029  0.8447  0.2519
15461TIP3    H267875   1.024   5.410  16.813  2.6877 -1.3425 -0.1630
15462TIP3   OH267876   5.765   2.032  15.351  0.7141  0.0401 -0.8086
15462TIP3    H167877   5.733   2.011  15.439  0.0219 -1.9590 -1.4804
15462TIP3    H267878   5.696   2.000  15.293  1.8799 -0.1143 -2.1502
15463TIP3   OH267879   1.771   4.387   3.388  0.0286  0.0171  0.1873
15463TIP3    H167880   1.836   4.456   3.404 -0.2346  0.4667 -0.6252
15463TIP3    H267881   1.771   4.336   3.468  0.5236  0.7274  0.6573
15464TIP3   OH267882   2.753   6.579   4.587 -0.2303  0.2947 -0.2361
15464TIP3    H167883   2.796   6.640   4.527  0.3258 -0.2768 -0.4280
15464TIP3    H267884   2.730   6.633   4.663  0.2631  0.7418 -0.4003
15465TIP3   OH267885   5.517   4.958   4.978 -0.2722 -0.3232  0.0474
15465TIP3    H167886   5.499   4.867   5.000  0.7386 -0.8135 -1.0240
15465TIP3    H267887   5.574   4.989   5.048  1.7567 -1.4307 -1.0143
15466TIP3   OH267888   3.634   1.263   3.690  0.0017 -0.6508 -0.0667
15466TIP3    H167889   3.642   1.355   3.715  0.3644 -0.8230  0.4558
15466TIP3    H267890   3.683   1.256   3.608  2.4579 -0.9743  1.3485
15467TIP3   OH267891   0.819   5.627   4.934 -0.0637 -0.4038 -0.1479
15467TIP3    H167892   0.881   5.680   4.984 -1.6063  1.9070 -0.5094
15467TIP3    H267893   0.853   5.628   4.845  1.8366 -3.1909  0.4381
15468TIP3   OH267894   3.972   2.588   5.730 -0.1647 -0.2318 -0.2857
15468TIP3    H167895   4.037   2.541   5.677 -1.1753 -1.8151 -0.2114
15468TIP3    H267896   3.930   2.519   5.781 -0.2521  1.0796  1.4678
15469TIP3   OH267897   2.553   1.404   1.482  0.1361  0.4235 -0.1394
15469TIP3    H167898   2.465   1.404   1.519  0.2955  0.0295  0.2413
15469TIP3    H267899   2.608   1.442   1.551  0.4465 -0.3919  0.0706
15470TIP3   OH267900   5.093   0.636  12.540 -0.2493  0.2138  0.4766
15470TIP3    H167901   5.142   0.681  12.608  0.9287 -1.6275  0.9114
15470TIP3    H267902   5.034   0.577  12.588  1.4188 -1.9622 -0.0142
15471TIP3   OH267903   6.551   2.757  16.874  0.2414 -0.4712 -0.2357
15471TIP3    H167904   6.516   2.845  16.859  0.7358 -0.4465 -1.2842
15471TIP3    H267905   6.579   2.727  16.788  0.9865 -1.2727  0.2703
15472TIP3   OH267906   2.721   0.502  11.839  0.0159  0.1770 -0.1646
15472TIP3    H167907   2.652   0.512  11.774  0.9697 -1.7833 -1.5734
15472TIP3    H267908   2.791   0.561  11.811  0.3488 -0.5251 -0.8485
15473TIP3   OH267909   2.012   3.539   1.615  0.0263 -0.1428 -0.4944
15473TIP3    H167910   2.053   3.587   1.543  0.1616  0.6670  0.1177
15473TIP3    H267911   1.934   3.590   1.637 -0.5684 -0.9281 -0.7210
15474TIP3   OH267912   5.836   4.398  12.937 -0.1465  0.4996 -0.2125
15474TIP3    H167913   5.856   4.305  12.953 -1.5834  0.1399 -0.3509
15474TIP3    H267914   5.828   4.435  13.025 -2.0730 -0.1176 -0.0704
15475TIP3   OH267915   2.084   6.781  15.165 -0.1183 -0.1092 -0.3629
15475TIP3    H167916   2.171   6.763  15.131  0.3058 -1.0583  1.1095
15475TIP3    H267917   2.069   6.874  15.145  1.3067  0.1195 -0.4721
15476TIP3   OH267918   4.178   0.965  14.817  0.1856 -0.1488  0.0684
15476TIP3    H167919   4.248   1.028  14.800  1.0768 -1.2929 -0.7185
15476TIP3    H267920   4.160   0.925  14.732  0.0695 -1.3498  0.6279
15477TIP3   OH267921   2.179   4.121   2.642 -0.2036 -0.5366  0.4301
15477TIP3    H167922   2.097   4.130   2.593 -0.4686 -2.8524  0.3348
15477TIP3    H267923   2.186   4.027   2.658  1.3537 -0.1381  2.3357
15478TIP3   OH267924   0.787   5.125  15.534 -0.2323  0.1317 -0.5287
15478TIP3    H167925   0.863   5.181  15.544 -0.8357  1.2150 -1.7193
15478TIP3    H267926   0.743   5.157  15.456 -1.8714 -0.5161  0.0699
15479TIP3   OH267927   1.737   2.438  13.463 -0.2829 -0.0632  0.1460
15479TIP3    H167928   1.711   2.509  13.404  0.4625 -0.4231 -0.6244
15479TIP3    H267929   1.827   2.417  13.438 -0.3688 -1.0350  0.6125
15480TIP3   OH267930   4.854   1.320  10.472  0.3166 -0.3943 -0.2849
15480TIP3    H167931   4.840   1.227  10.488  0.3135 -0.0226  2.3708
15480TIP3    H267932   4.940   1.338  10.510 -0.6869  1.0916  1.4609
15481TIP3   OH267933   2.451   5.111   3.688 -0.2922 -0.6700  0.1780
15481TIP3    H167934   2.543   5.089   3.678 -0.3459 -0.9639  0.3147
15481TIP3    H267935   2.407   5.061   3.618 -0.7700 -3.3656  2.2251
15482TIP3   OH267936   6.518   1.083   2.093  0.1817 -0.1771 -0.1706
15482TIP3    H167937   6.492   1.056   2.005  2.5195 -2.6275 -0.2378
15482TIP3    H267938   6.553   1.003   2.133  0.0768  1.0870  2.6614
15483TIP3   OH267939   3.475   4.108   1.483  0.1346  0.0556 -0.0658
15483TIP3    H167940   3.448   4.099   1.391  0.3194 -0.5046 -0.0632
15483TIP3    H267941   3.485   4.019   1.515  2.2442  0.2102 -0.1364
15484TIP3   OH267942   4.846   0.478   2.718  0.6157  0.3488  0.1790
15484TIP3    H167943   4.761   0.495   2.760  0.2316 -1.2652  0.1430
15484TIP3    H267944   4.823   0.423   2.642  1.8545 -2.0785  1.4475
15485TIP3   OH267945   2.641   0.208  17.042 -0.3260 -0.1477 -0.1530
15485TIP3    H167946   2.649   0.156  16.963 -1.9027  0.5603 -0.8148
15485TIP3    H267947   2.554   0.187  17.076 -0.8237  1.6974 -0.1985
15486TIP3   OH267948   4.549   1.983   1.053  0.0363  0.1262 -0.0085
15486TIP3    H167949   4.641   2.005   1.067  0.8097 -2.3454 -0.5885
15486TIP3    H267950   4.503   2.017   1.129  1.4163  1.4437  0.2707
15487TIP3   OH267951   1.427   4.325  13.467  0.3309 -0.3604  0.1325
15487TIP3    H167952   1.367   4.393  13.436  1.0910  0.4077  0.3071
15487TIP3    H267953   1.402   4.246  13.417 -1.0389 -0.1560  0.4647
15488TIP3   OH267954   3.382   6.576   2.382  0.0022 -0.6716 -0.0347
15488TIP3    H167955   3.459   6.538   2.339  0.3268 -1.2265  1.0011
15488TIP3    H267956   3.408   6.665   2.403 -0.3255 -0.2376 -1.3768
15489TIP3   OH267957   5.744   0.328  15.033  0.7340  0.5444 -0.5638
15489TIP3    H167958   5.759   0.394  15.100  1.1118 -0.8802  0.8068
15489TIP3    H267959   5.700   0.256  15.079  1.6073 -0.7520 -1.6684
15490TIP3   OH267960   6.101   6.527  15.562  0.2303 -0.9667 -0.5600
15490TIP3    H167961   6.136   6.577  15.636  1.0341 -0.3073 -1.3504
15490TIP3    H267962   6.029   6.476  15.598  0.2693 -0.2522  0.5565
15491TIP3   OH267963   5.934   0.036  17.279 -0.3983 -0.4238 -1.1811
15491TIP3    H167964   5.911  -0.057  17.276  0.0216 -0.5070 -1.9132
15491TIP3    H267965   5.910   0.063  17.368 -0.5625 -1.2185 -0.9732
15492TIP3   OH267966   4.650   1.003  15.550 -0.1886 -0.3907 -0.0061
15492TIP3    H167967   4.633   1.072  15.614  1.6690 -1.2639  1.5286
15492TIP3    H267968   4.731   1.029  15.506  0.5438 -1.5338  0.5979
15493TIP3   OH267969   4.941   4.465   1.669  0.1451  0.1696 -0.3635
15493TIP3    H167970   4.986   4.444   1.751  0.0992 -0.1814 -0.4249
15493TIP3    H267971   4.850   4.480   1.696  0.1599  0.2007 -0.3298
15494TIP3   OH267972   0.592   0.721   1.740 -0.1385  0.0660 -0.1488
15494TIP3    H167973   0.538   0.714   1.819  0.4823 -1.8855  0.1419
15494TIP3    H267974   0.675   0.756   1.770  1.2303 -3.5619  0.7275
15495TIP3   OH267975   0.180   1.635  16.943  0.2708  0.1483  0.2472
15495TIP3    H167976   0.120   1.709  16.949 -0.4397 -0.2628 -1.1822
15495TIP3    H267977   0.260   1.665  16.986 -0.1089  1.6367 -0.0219
15496TIP3   OH267978   2.990   1.996  16.234  0.0565  0.0221 -0.2742
15496TIP3    H167979   2.989   1.975  16.140 -2.4780  0.9249 -0.5329
15496TIP3    H267980   2.946   2.081  16.239 -0.3125 -0.2562  1.7937
15497TIP3   OH267981   4.649   5.458   2.306 -0.2976 -0.0140  0.2175
15497TIP3    H167982   4.562   5.449   2.343 -1.0612 -0.1097 -1.5338
15497TIP3    H267983   4.660   5.552   2.291 -1.5718 -0.2417 -2.8033
15498TIP3   OH267984   2.927   6.414   3.663 -0.2125 -0.2835  0.3205
15498TIP3    H167985   2.961   6.331   3.629  0.8118 -0.1310  0.9327
15498TIP3    H267986   2.954   6.414   3.755 -0.8901  0.3796  0.5259
15499TIP3   OH267987   6.009   6.317   5.668 -0.1769 -0.4804  0.0778
15499TIP3    H167988   6.071   6.353   5.731 -0.4657 -1.4645  0.9452
15499TIP3    H267989   5.931   6.372   5.679  0.4260  0.5969 -0.8365
15500TIP3   OH267990   2.761   3.719   1.267 -0.7462  0.4540  0.2241
15500TIP3    H167991   2.839   3.677   1.302 -0.6151  1.1140  0.7481
15500TIP3    H267992   2.788   3.808   1.247 -1.6077  1.0055  1.3944
15501TIP3   OH267993   3.143   4.350  14.301 -0.2460  0.1267 -0.3739
15501TIP3    H167994   3.101   4.396  14.373  0.4555  1.0734 -0.5567
15501TIP3    H267995   3.070   4.327  14.242 -0.9206 -1.2909  0.9358
15502TIP3   OH267996   2.791   2.370  15.267 -0.8699 -0.0724  0.2561
15502TIP3    H167997   2.851   2.444  15.264  0.4298 -1.0817  0.6118
15502TIP3    H267998   2.823   2.310  15.201 -0.8959 -1.0586  1.1188
15503TIP3   OH267999   6.267   4.095   5.287 -0.2470  0.1212 -0.1426
15503TIP3    H168000   6.199   4.153   5.252 -0.3197  0.8566  1.1780
15503TIP3    H268001   6.301   4.141   5.364  0.0056 -1.3864  0.6747
15504TIP3   OH268002   4.048   2.827  12.708 -0.2492  0.0915  0.2864
15504TIP3    H168003   4.007   2.769  12.643  0.2667 -0.3848  0.3758
15504TIP3    H268004   3.974   2.865  12.756 -0.6464  0.7531 -0.8250
15505TIP3   OH268005   0.882   6.199   2.817 -0.2708  0.9006 -0.2471
15505TIP3    H168006   0.914   6.109   2.813 -0.8078  0.6397  0.9681
15505TIP3    H268007   0.869   6.216   2.910  0.4867  2.4808 -0.3911
15506TIP3   OH268008   4.888   5.327  15.458  0.5010 -0.5286  0.5594
15506TIP3    H168009   4.843   5.325  15.542  1.1404  1.7561  1.0198
15506TIP3    H268010   4.954   5.257  15.464 -1.2831 -2.2819  0.7995
15507TIP3   OH268011   0.520   5.579   1.309  0.0746 -0.6080 -0.1369
15507TIP3    H168012   0.520   5.618   1.396 -1.3354 -0.4913 -0.1660
15507TIP3    H268013   0.591   5.515   1.311  0.6462  0.0348  0.7908
15508TIP3   OH268014   4.041   3.363   3.511 -0.2443 -0.1161 -0.4696
15508TIP3    H168015   3.996   3.401   3.586 -1.6985 -0.5183 -1.1075
15508TIP3    H268016   3.987   3.289   3.485  0.5650 -0.3610 -1.5311
15509TIP3   OH268017   3.726   5.609   4.072  0.1756 -0.0359  0.3396
15509TIP3    H168018   3.755   5.670   4.004  1.3786 -1.6415 -0.6699
15509TIP3    H268019   3.631   5.606   4.063  0.3289 -0.4524 -1.5413
15510TIP3   OH268020   5.452   2.194  16.390 -0.5805 -1.0471 -0.0556
15510TIP3    H168021   5.543   2.176  16.413 -0.4626 -0.1369  0.1947
15510TIP3    H268022   5.452   2.198  16.294 -0.2582 -0.5236 -0.0347
15511TIP3   OH268023   6.007   2.600   2.608  0.0275  0.1294 -0.0058
15511TIP3    H168024   5.942   2.557   2.663 -1.8687 -0.1880 -2.3348
15511TIP3    H268025   6.091   2.566   2.638 -0.9709 -0.6693  2.0632
15512TIP3   OH268026   5.228   0.597  17.287  0.0426 -0.4706  0.6869
15512TIP3    H168027   5.169   0.594  17.362  0.0992  0.1579  0.7645
15512TIP3    H268028   5.172   0.578  17.211 -0.4636  0.9960  0.6597
15513TIP3   OH268029   1.115   5.825  16.615 -0.3284  0.0351  0.2929
15513TIP3    H168030   1.200   5.846  16.654 -0.5758 -0.3493  1.0736
15513TIP3    H268031   1.058   5.807  16.690 -0.8908 -0.4780 -0.2404
15514TIP3   OH268032   3.800   4.053  14.175 -0.3265  0.0458  0.4611
15514TIP3    H168033   3.793   4.149  14.174 -0.1259  0.0671  0.8084
15514TIP3    H268034   3.710   4.022  14.168 -0.4690  0.2688  1.1968
15515TIP3   OH268035   3.856   2.052  12.989  0.0075 -0.0631 -0.2533
15515TIP3    H168036   3.768   2.059  12.953 -0.0517  1.3410  0.0851
15515TIP3    H268037   3.843   2.047  13.084  0.2945  0.3228 -0.1906
15516TIP3   OH268038   2.221   1.785   6.007 -0.0307  0.0244 -0.0186
15516TIP3    H168039   2.224   1.868   6.055 -1.1227  0.0573  0.0138
15516TIP3    H268040   2.129   1.760   6.007  0.3878 -1.6951  0.8121
15517TIP3   OH268041   6.674   1.061  11.725  0.3551 -0.1282  0.0965
15517TIP3    H168042   6.639   1.044  11.638  0.2163  1.9627 -0.2894
15517TIP3    H268043   6.618   1.129  11.761  0.7589 -0.5536  1.6157
15518TIP3   OH268044   1.135   2.241  15.003 -0.1771 -0.3427  0.0522
15518TIP3    H168045   1.109   2.283  14.921 -2.5095 -0.2359  0.7985
15518TIP3    H268046   1.145   2.314  15.064  1.9202 -0.3868 -0.1600
15519TIP3   OH268047   6.225   3.632   1.107 -0.4036  0.2869 -0.0233
15519TIP3    H168048   6.232   3.722   1.073 -0.7686  0.2502 -0.1957
15519TIP3    H268049   6.198   3.643   1.198 -2.1345  0.3118 -0.5135
15520TIP3   OH268050   5.034   1.323  12.154  0.1352  0.2248  0.5692
15520TIP3    H168051   5.003   1.384  12.087  0.6873  1.2335  1.2028
15520TIP3    H268052   5.125   1.347  12.168  0.5019 -1.0610  0.5219
15521TIP3   OH268053   2.820   5.689   0.436 -0.3366 -0.4496  0.1019
15521TIP3    H168054   2.728   5.693   0.465  0.4200  1.0486  2.6414
15521TIP3    H268055   2.839   5.777   0.405  0.6306 -0.3204  1.0197
15522TIP3   OH268056   1.696   1.032   2.645 -0.7377 -0.1566  0.3676
15522TIP3    H168057   1.767   0.968   2.655 -0.6283 -0.0224  0.4626
15522TIP3    H268058   1.727   1.092   2.577 -0.5609  0.1667  0.7276
15523TIP3   OH268059   5.558   1.008  14.205 -0.3793 -0.5367 -0.4645
15523TIP3    H168060   5.645   1.026  14.240 -0.0585 -1.4189 -0.7515
15523TIP3    H268061   5.511   1.090  14.212  0.4714 -0.0551 -0.2678
15524TIP3   OH268062   2.059   2.826  14.939  0.5665  0.0744  0.2536
15524TIP3    H168063   2.099   2.912  14.952  0.2349  0.2356  0.2167
15524TIP3    H268064   2.130   2.770  14.909  0.6659  0.4751 -0.2718
15525TIP3   OH268065   1.292   5.675  13.410 -0.2025 -0.2597  0.4213
15525TIP3    H168066   1.205   5.654  13.377 -0.4350 -0.6736  1.2561
15525TIP3    H268067   1.334   5.724  13.340 -0.9647 -0.4095 -0.1461
15526TIP3   OH268068   0.308   1.800   5.824 -0.0654  0.0255 -0.2383
15526TIP3    H168069   0.278   1.717   5.862 -0.0427 -0.0678 -0.4278
15526TIP3    H268070   0.264   1.806   5.739  2.8904 -1.6644 -2.0231
15527TIP3   OH268071   0.348   6.488   4.656 -0.0003  0.1539  0.5481
15527TIP3    H168072   0.301   6.410   4.686  1.0279 -0.0135  1.8007
15527TIP3    H268073   0.434   6.454   4.630  0.5482  0.9133  1.3647
15528TIP3   OH268074   0.419   1.547  10.979 -0.2636 -0.2080 -0.2909
15528TIP3    H168075   0.460   1.463  11.001 -1.8417 -0.8772  0.2127
15528TIP3    H268076   0.415   1.593  11.062  0.5051  0.3521 -0.5496
15529TIP3   OH268077   6.216   5.839  15.475  0.5054  0.2565  0.3387
15529TIP3    H168078   6.143   5.887  15.514 -0.6728 -0.9430 -0.3169
15529TIP3    H268079   6.223   5.874  15.386 -0.7530 -1.1315 -0.3483
15530TIP3   OH268080   1.963   2.481  16.067 -0.1982 -0.5769 -0.7194
15530TIP3    H168081   1.911   2.406  16.096 -1.7457  0.4086 -0.8367
15530TIP3    H268082   2.008   2.450  15.989  2.8934 -2.8348  1.6641
15531TIP3   OH268083   4.956   6.118  14.320 -0.3133  0.7133  0.3736
15531TIP3    H168084   4.942   6.195  14.374  1.2819  1.0332  0.3581
15531TIP3    H268085   5.051   6.113  14.307 -0.5063 -0.3479 -0.9437
15532TIP3   OH268086   2.489   6.045  11.996  0.3520  0.5447  0.5917
15532TIP3    H168087   2.495   6.135  12.027 -0.2739  1.2796 -1.2828
15532TIP3    H268088   2.397   6.021  12.007  0.1633  0.7443 -0.4048
15533TIP3   OH268089   0.977   6.367  16.376 -0.4111 -0.4855  0.0236
15533TIP3    H168090   1.041   6.437  16.369 -1.6752  0.7041 -0.0382
15533TIP3    H268091   1.019   6.301  16.432 -0.2521  1.5627  2.4647
15534TIP3   OH268092   4.430   4.224   5.200 -0.4709  0.1079  0.4744
15534TIP3    H168093   4.447   4.296   5.140 -2.2410 -0.0685 -0.3014
15534TIP3    H268094   4.467   4.147   5.157  0.5743  0.3761  0.8606
15535TIP3   OH268095   4.073   0.456   3.856  0.4564  0.6505 -0.3639
15535TIP3    H168096   4.137   0.496   3.915  1.4918 -0.4088 -0.7220
15535TIP3    H268097   4.104   0.479   3.768 -0.0077  0.6509 -0.5274
15536TIP3   OH268098   2.782   2.407   5.477  0.3264  0.2726  0.0590
15536TIP3    H168099   2.762   2.501   5.472 -0.6464  0.1912  1.5355
15536TIP3    H268100   2.701   2.368   5.511  0.1850 -1.3364 -1.9798
15537TIP3   OH268101   5.559   3.817  13.510  0.3591  0.1150 -0.1021
15537TIP3    H168102   5.548   3.829  13.415 -0.5685  0.5857  0.0602
15537TIP3    H268103   5.528   3.899  13.548 -0.6596 -0.6216  0.6992
15538TIP3   OH268104   1.541   2.921   4.299 -0.1736 -0.0309  0.4799
15538TIP3    H168105   1.571   2.830   4.300  0.9719  0.3149  1.8572
15538TIP3    H268106   1.622   2.972   4.287 -0.6596  0.8312  0.8063
15539TIP3   OH268107   1.416   3.368   3.389  0.2275 -0.3878  0.3039
15539TIP3    H168108   1.370   3.444   3.351  0.4470 -0.4149 -0.0244
15539TIP3    H268109   1.365   3.346   3.467 -0.2691 -0.3601 -0.0026
15540TIP3   OH268110   1.981   4.656   4.086 -0.0633 -0.1546  0.1288
15540TIP3    H168111   1.914   4.591   4.108  0.5920 -1.2100 -0.8602
15540TIP3    H268112   2.041   4.655   4.160 -0.5778  0.0484  0.5569
15541TIP3   OH268113   2.013   2.107  14.930 -0.3938 -0.5638  0.0831
15541TIP3    H168114   2.039   2.129  14.840  0.2480 -0.9926  0.1602
15541TIP3    H268115   1.919   2.122  14.932 -0.1343  1.3220 -0.1264
15542TIP3   OH268116   3.406   5.637  14.648  0.1445 -0.5948 -0.3902
15542TIP3    H168117   3.423   5.672  14.735  3.0433  0.3106 -1.2152
15542TIP3    H268118   3.442   5.548  14.650 -1.8861 -1.4527 -0.0375
15543TIP3   OH268119   0.559   5.061  15.917  0.5155  0.1428 -0.1019
15543TIP3    H168120   0.591   5.060  16.008  0.3873 -1.7698 -0.0293
15543TIP3    H268121   0.633   5.092  15.865  0.1875  2.5853  0.7256
15544TIP3   OH268122   0.707   4.719  15.128  0.0441 -0.4557  0.3668
15544TIP3    H168123   0.693   4.792  15.188 -2.8107 -1.0445  0.5706
15544TIP3    H268124   0.687   4.755  15.042 -0.9829 -0.8460  0.4234
15545TIP3   OH268125   0.622   4.075  14.366 -0.0087 -0.3040 -0.3944
15545TIP3    H168126   0.673   4.152  14.341 -1.6954  1.5968  1.6365
15545TIP3    H268127   0.535   4.110  14.388 -0.7937 -2.7714  0.7441
15546TIP3   OH268128   6.465   0.071   5.599 -0.0400 -0.1359 -0.0486
15546TIP3    H168129   6.559   0.077   5.620  0.8086 -0.9764 -3.1214
15546TIP3    H268130   6.445   0.154   5.555 -0.5645 -0.2242  0.0160
15547TIP3   OH268131   1.893   3.767   2.572  0.1074  0.0501 -0.3100
15547TIP3    H168132   1.806   3.805   2.583  1.0839  2.2451  0.3031
15547TIP3    H268133   1.949   3.840   2.547  1.3723 -1.7107 -3.2085
15548TIP3   OH268134   5.628   0.006  17.148  0.1491  0.5832 -0.1243
15548TIP3    H168135   5.566   0.016  17.076 -0.0358 -1.0864 -0.2289
15548TIP3    H268136   5.686  -0.065  17.121  0.1361 -0.0162  1.3038
15549TIP3   OH268137   0.511   4.991  11.430  0.0573  0.2067  0.2770
15549TIP3    H168138   0.428   5.029  11.402 -1.3538 -2.9269 -0.1760
15549TIP3    H268139   0.533   4.928  11.361  1.6258 -0.6276  1.4718
15550TIP3   OH268140   4.854   1.868   4.898  0.3668 -0.4670  0.3904
15550TIP3    H168141   4.855   1.876   4.803 -1.7093  1.1464  0.4401
15550TIP3    H268142   4.919   1.931   4.928 -0.7768  0.8990  0.0819
15551TIP3   OH268143   3.839   2.272   6.531 -0.2578  0.3378  0.1243
15551TIP3    H168144   3.801   2.286   6.618 -0.8202  5.1313 -0.5899
15551TIP3    H268145   3.928   2.243   6.548 -1.0620 -1.2160  2.1411
15552TIP3   OH268146   5.110   6.037  12.319 -0.5365 -0.3593 -0.1544
15552TIP3    H168147   5.186   6.026  12.377 -0.6732  2.3800  0.7139
15552TIP3    H268148   5.037   5.999  12.368 -0.3024  0.1575  0.6190
15553TIP3   OH268149   3.066   3.804  13.374 -0.0786  0.2747  0.4300
15553TIP3    H168150   3.111   3.788  13.290  1.1320 -0.1065  1.1219
15553TIP3    H268151   3.087   3.895  13.396  0.0646  0.2036  0.5875
15554TIP3   OH268152   1.242   1.172   3.066 -0.2176  0.4690 -0.2624
15554TIP3    H168153   1.233   1.093   3.012 -0.2165 -2.0741  3.1562
15554TIP3    H268154   1.327   1.208   3.040 -0.6793  0.0331 -2.6539
15555TIP3   OH268155   2.902   2.484   0.208 -0.0832  0.1563  0.1815
15555TIP3    H168156   2.866   2.428   0.139  0.3937 -0.7091  0.6085
15555TIP3    H268157   2.954   2.549   0.162 -0.5692  0.1883 -0.3256
15556TIP3   OH268158   2.369   2.516   2.920 -0.4280 -0.5260 -0.5006
15556TIP3    H168159   2.418   2.507   3.002  0.3819 -0.2469 -0.9426
15556TIP3    H268160   2.411   2.455   2.859  0.1579  0.5622 -1.2281
15557TIP3   OH268161   2.963   1.001  12.115  0.8209 -0.3736 -0.0418
15557TIP3    H168162   3.004   1.005  12.029 -0.3421 -0.3823 -0.6115
15557TIP3    H268163   3.034   0.976  12.174  1.6715 -0.1951 -0.9627
15558TIP3   OH268164   4.197   1.276   3.877  0.5235 -0.2180 -0.0752
15558TIP3    H168165   4.116   1.229   3.900  1.1588 -1.8217 -0.9536
15558TIP3    H268166   4.219   1.244   3.790  1.8574  0.5746 -0.0536
15559TIP3   OH268167   0.405   6.567   2.846 -0.1840  0.2309 -0.6627
15559TIP3    H168168   0.477   6.544   2.788  1.6071  0.4541  1.3437
15559TIP3    H268169   0.348   6.490   2.845  0.9436 -0.6240 -1.0764
15560TIP3   OH268170   1.753   6.409  12.312  0.3508  0.4646  0.4453
15560TIP3    H168171   1.695   6.481  12.335  0.4631  0.1493  1.8125
15560TIP3    H268172   1.824   6.414  12.377  0.1288 -1.1357  0.8515
15561TIP3   OH268173   5.200   3.947   3.297  0.5866  0.1375 -0.0472
15561TIP3    H168174   5.185   3.949   3.391 -0.1842  0.7943 -0.1829
15561TIP3    H268175   5.244   3.862   3.282  1.3900  0.3465  0.9837
15562TIP3   OH268176   0.954   0.020  10.339  0.5584 -0.3774  0.4069
15562TIP3    H168177   0.992   0.053  10.420  1.2199 -0.3363  0.0871
15562TIP3    H268178   1.012  -0.051  10.312  0.0289 -0.7593  0.2597
15563TIP3   OH268179   4.341   3.434   4.407  0.0945  0.6841 -0.1104
15563TIP3    H168180   4.300   3.509   4.449  0.7066  2.4939 -2.5238
15563TIP3    H268181   4.306   3.434   4.318  0.4253 -1.6859 -0.3001
15564TIP3   OH268182   5.128   3.929   1.673 -0.1436 -0.2283  0.3689
15564TIP3    H168183   5.146   4.001   1.612 -2.8468  0.3680  0.1314
15564TIP3    H268184   5.039   3.946   1.704 -0.7075 -3.2094  0.6707
15565TIP3   OH268185   2.240   1.464   2.548 -0.0153  0.4133  0.2959
15565TIP3    H168186   2.245   1.486   2.455  0.1711 -0.8899 -0.0260
15565TIP3    H268187   2.325   1.489   2.583 -0.1009  0.9474  0.1383
15566TIP3   OH268188   5.260   4.143  11.781 -0.3164 -0.2492 -0.1285
15566TIP3    H168189   5.234   4.100  11.862 -0.8646 -0.2199 -0.2897
15566TIP3    H268190   5.270   4.071  11.718  1.5897 -0.4441  0.3373
15567TIP3   OH268191   3.124   1.071   5.911 -0.4422 -0.0158  0.0873
15567TIP3    H168192   3.109   1.015   5.987  0.0560  0.2961  0.4199
15567TIP3    H268193   3.216   1.097   5.918 -0.9526  1.7836  0.5844
15568TIP3   OH268194   5.655   5.555  13.619 -0.3382  0.3694  0.3174
15568TIP3    H168195   5.599   5.616  13.571  0.3117  0.3015 -0.5586
15568TIP3    H268196   5.714   5.520  13.552 -0.4094 -0.8887  0.8879
15569TIP3   OH268197   3.984   4.732  14.340  0.2686  0.3286 -0.4880
15569TIP3    H168198   3.961   4.729  14.433  0.1402  0.4871 -0.5166
15569TIP3    H268199   4.079   4.724  14.339  0.2023 -0.6708 -0.3882
15570TIP3   OH268200   5.529   4.763   1.150 -0.9776  0.4033  0.0901
15570TIP3    H168201   5.486   4.847   1.140 -0.7949  0.4957  0.0850
15570TIP3    H268202   5.486   4.706   1.087 -0.2360  0.8235 -0.8100
15571TIP3   OH268203   5.401   0.884   0.780 -0.3850  0.0353 -0.3510
15571TIP3    H168204   5.414   0.831   0.859  0.6003  1.8780  0.7851
15571TIP3    H268205   5.445   0.835   0.711  2.6258  0.4165  1.1265
15572TIP3   OH268206   5.414   6.201   0.454  0.4021  0.6178  0.3566
15572TIP3    H168207   5.457   6.283   0.433  0.9033  0.1896 -0.3037
15572TIP3    H268208   5.320   6.220   0.447  0.4517  1.5257  1.7265
15573TIP3   OH268209   5.510   5.055  13.711  0.0690  0.3379 -0.0861
15573TIP3    H168210   5.601   5.034  13.731 -0.4962 -1.8557  0.5592
15573TIP3    H268211   5.496   5.019  13.623 -0.6915 -1.3578  0.6749
15574TIP3   OH268212   0.995   0.618   5.052 -0.2138 -0.3083 -0.2675
15574TIP3    H168213   0.927   0.564   5.014 -1.3921  0.6400  0.4368
15574TIP3    H268214   1.059   0.556   5.086  1.1548 -1.2462 -4.0194
15575TIP3   OH268215   2.387   4.906  15.293 -0.3207 -0.1886 -0.2661
15575TIP3    H168216   2.478   4.884  15.310 -0.3332 -0.7317 -0.8792
15575TIP3    H268217   2.390   4.994  15.256 -0.1355  0.2058  0.6681
15576TIP3   OH268218   1.234   1.142   5.821  0.2194 -0.7332 -0.2916
15576TIP3    H168219   1.304   1.116   5.761 -0.9743 -4.0279 -0.4757
15576TIP3    H268220   1.244   1.084   5.897  0.1301  1.5923  1.6153
15577TIP3   OH268221   4.386   5.958  12.607  0.4420 -1.1430  0.2154
15577TIP3    H168222   4.476   5.978  12.582  0.4518  1.8549  2.1476
15577TIP3    H268223   4.394   5.900  12.682  0.7924 -0.5759  0.6220
15578TIP3   OH268224   6.494   3.999  11.535  0.9092 -0.2215  0.3540
15578TIP3    H168225   6.430   4.065  11.561  1.0754  0.1512 -0.1819
15578TIP3    H268226   6.443   3.920  11.518  0.3694  0.5655 -1.8676
15579TIP3   OH268227   4.629   3.814   5.785 -0.3035 -0.3356 -0.1860
15579TIP3    H168228   4.722   3.792   5.775 -0.1150  0.0395  0.7419
15579TIP3    H268229   4.618   3.893   5.732 -0.4434 -1.2172 -1.5327
15580TIP3   OH268230   5.907   3.906  15.897  0.0823  0.2971  0.3288
15580TIP3    H168231   5.942   3.922  15.985 -0.2747  0.1022  0.5066
15580TIP3    H268232   5.814   3.890  15.910 -0.1333  1.0681 -0.1742
15581TIP3   OH268233   0.963   3.544   1.389  0.3863 -0.0535 -0.0635
15581TIP3    H168234   0.875   3.573   1.369  0.2330 -0.4101  0.0806
15581TIP3    H268235   0.996   3.607   1.453 -0.2685 -0.6872  0.9347
15582TIP3   OH268236   6.093   3.572  16.505 -0.5968  0.3268  0.2133
15582TIP3    H168237   6.041   3.517  16.564  1.5187 -2.7200 -0.5674
15582TIP3    H268238   6.077   3.537  16.418 -0.3553  2.0213 -0.5642
15583TIP3   OH268239   4.215   0.870   1.776 -0.2437  0.1353 -0.1545
15583TIP3    H168240   4.258   0.785   1.788  1.2000  0.4646 -2.3859
15583TIP3    H268241   4.266   0.912   1.706 -0.6602  3.0145  1.1649
15584TIP3   OH268242   2.297   4.607  16.824  0.7010  0.0562 -0.0146
15584TIP3    H168243   2.383   4.627  16.786  1.0704 -3.2005 -1.2566
15584TIP3    H268244   2.317   4.547  16.896 -0.5036 -0.2819  0.0499
15585TIP3   OH268245   0.794   2.107   5.353  0.1260 -0.5196  0.0002
15585TIP3    H168246   0.825   2.159   5.427  0.4736  2.3788 -2.0026
15585TIP3    H268247   0.871   2.059   5.323  0.7743  0.6380 -0.2601
15586TIP3   OH268248   0.138   4.757   1.044 -0.8738  0.3378 -0.0942
15586TIP3    H168249   0.130   4.793   0.955  1.2251 -2.2823 -1.4802
15586TIP3    H268250   0.069   4.691   1.049 -1.3791  0.8989  0.4902
15587TIP3   OH268251   0.566   4.744   1.532 -0.1564 -0.0888 -0.0986
15587TIP3    H168252   0.633   4.740   1.463  0.8453  0.0939  0.8306
15587TIP3    H268253   0.492   4.789   1.491  0.1239 -0.6691 -1.2847
15588TIP3   OH268254   3.678   3.775  12.842 -0.2966 -0.2091 -0.5772
15588TIP3    H168255   3.723   3.813  12.917  0.1090  0.5328 -1.1694
15588TIP3    H268256   3.725   3.693  12.824 -0.8836 -0.7769  0.4346
15589TIP3   OH268257   1.209   6.399  11.865 -0.3435  0.7140  0.0259
15589TIP3    H168258   1.244   6.487  11.849  1.4990 -0.0546 -0.4608
15589TIP3    H268259   1.287   6.343  11.869 -1.4842 -0.9215  0.2237
15590TIP3   OH268260   1.683   6.419   0.626  0.2316  0.0122 -0.3480
15590TIP3    H168261   1.664   6.442   0.535 -2.6671 -2.7700 -0.6108
15590TIP3    H268262   1.716   6.329   0.622  3.0962  0.8380  1.2401
15591TIP3   OH268263   5.458   3.252  17.034 -0.3313 -0.2532 -0.1341
15591TIP3    H168264   5.479   3.325  17.092 -1.7391 -0.8347  1.1683
15591TIP3    H268265   5.543   3.213  17.012  0.3431  1.0411  0.1084
15592TIP3   OH268266   2.280   0.805  16.599 -0.1147  0.1489  0.3617
15592TIP3    H168267   2.338   0.877  16.624  1.8141 -0.1949 -2.6068
15592TIP3    H268268   2.203   0.847  16.561 -0.0350  0.6417  0.7420
15593TIP3   OH268269   3.391   4.362  10.867 -0.1500 -0.5284 -0.0577
15593TIP3    H168270   3.414   4.296  10.802  1.4845  0.6757 -0.7892
15593TIP3    H268271   3.439   4.441  10.839 -1.1495  0.6526  1.3812
15594TIP3   OH268272   0.760   6.402  11.797  0.2205  0.7599  0.1124
15594TIP3    H168273   0.845   6.371  11.766 -0.1897 -0.5180  0.1950
15594TIP3    H268274   0.775   6.492  11.823  1.1033  1.1681 -1.6762
15595TIP3   OH268275   6.514   2.726   0.308 -0.3101  0.4781  0.2620
15595TIP3    H168276   6.528   2.704   0.400  0.8056 -1.2549 -0.2689
15595TIP3    H268277   6.419   2.716   0.295 -0.1718 -2.2381  0.5926
15596TIP3   OH268278   1.105   5.056  15.936 -0.3946  0.5473 -0.3294
15596TIP3    H168279   1.031   5.094  15.888 -0.2217  1.3366  0.0156
15596TIP3    H268280   1.064   5.006  16.006 -0.6116  2.4256  0.9524
15597TIP3   OH268281   3.057   4.017   5.244 -0.3504  0.1196  0.3301
15597TIP3    H168282   2.992   3.972   5.191 -1.1696  1.1328  0.4436
15597TIP3    H268283   3.040   3.988   5.333 -0.7578  0.5012  0.3800
15598TIP3   OH268284   0.144   5.436  13.046  0.1472 -0.0377 -0.3024
15598TIP3    H168285   0.087   5.482  12.985  1.7457  1.7934 -0.5309
15598TIP3    H268286   0.125   5.474  13.131  0.5904  0.1741 -0.2912
15599TIP3   OH268287   1.092   3.190  12.678  0.6686 -0.0892 -0.1701
15599TIP3    H168288   1.140   3.168  12.598  0.8665  0.9304 -0.3527
15599TIP3    H268289   1.124   3.129  12.744  1.0714 -0.4372 -0.6830
15600TIP3   OH268290   2.472   1.885   4.450 -0.1153 -0.2890 -0.0844
15600TIP3    H168291   2.484   1.866   4.543  0.1830 -2.3490 -0.5011
15600TIP3    H268292   2.553   1.930   4.424  0.7631 -1.6561  0.2018
15601TIP3   OH268293   5.504   6.739  11.198 -0.2503 -0.8434  0.3893
15601TIP3    H168294   5.503   6.677  11.272  0.2993 -0.0072  1.1141
15601TIP3    H268295   5.486   6.684  11.121 -1.1645 -1.6851  1.1709
15602TIP3   OH268296   4.266   2.688   3.500  0.3286 -0.4318 -0.6086
15602TIP3    H168297   4.336   2.641   3.456  1.2808  0.3909 -0.0256
15602TIP3    H268298   4.302   2.709   3.586 -0.6674 -0.0594 -0.2718
15603TIP3   OH268299   4.936   3.347   2.956  0.0140 -0.0789  0.1725
15603TIP3    H168300   4.857   3.312   2.998 -1.4394  0.9800 -1.5571
15603TIP3    H268301   4.908   3.371   2.868  2.1399  0.8979 -0.2981
15604TIP3   OH268302   0.868   5.484  17.162 -0.0691 -0.5915 -0.1031
15604TIP3    H168303   0.917   5.464  17.082  0.6990 -2.4790  0.7824
15604TIP3    H268304   0.935   5.487  17.231 -0.6360  1.5858  0.4411
15605TIP3   OH268305   3.166   4.166   1.909 -0.0538 -0.6827  0.1589
15605TIP3    H168306   3.126   4.090   1.951 -2.2299 -1.5023 -3.0441
15605TIP3    H268307   3.222   4.128   1.841  0.2080  0.5868 -0.3579
15606TIP3   OH268308   3.198   6.380  12.321  0.0046  0.4771 -0.1241
15606TIP3    H168309   3.145   6.430  12.259  3.2479  0.9884 -2.7947
15606TIP3    H268310   3.238   6.446  12.377 -1.6177  0.1283  1.5597
15607TIP3   OH268311   3.294   6.606  14.549 -0.1402 -0.1616 -0.2961
15607TIP3    H168312   3.275   6.586  14.641 -1.6219  1.1531 -0.2835
15607TIP3    H268313   3.216   6.576  14.501  0.1928  0.0788 -1.0043
15608TIP3   OH268314   5.348   5.462  15.955 -0.3144 -0.2092  0.3967
15608TIP3    H168315   5.261   5.436  15.986 -1.0566 -2.9117 -3.2840
15608TIP3    H268316   5.368   5.400  15.885  4.5702  0.4017  0.9058
15609TIP3   OH268317   0.167   5.127  14.838 -0.4342  0.1340  0.6403
15609TIP3    H168318   0.122   5.143  14.921 -1.1090 -0.9281  0.4906
15609TIP3    H268319   0.248   5.082  14.863 -0.1903  0.6299  0.7761
15610TIP3   OH268320   4.767   4.018  14.172 -0.3420  0.8449 -0.2525
15610TIP3    H168321   4.698   4.017  14.239  0.1821  0.9704  0.2949
15610TIP3    H268322   4.724   3.985  14.093 -0.7962  0.0510  0.3100
15611TIP3   OH268323   5.453   2.689  16.915  0.8115 -0.0484  0.2979
15611TIP3    H168324   5.462   2.618  16.851  1.5270 -0.4064  0.7772
15611TIP3    H268325   5.364   2.678  16.950  1.1613 -1.1677  0.8810
15612TIP3   OH268326   3.323   6.610   4.804  0.1707 -0.5692 -0.4764
15612TIP3    H168327   3.254   6.596   4.739 -1.5779 -2.1223  1.5886
15612TIP3    H268328   3.403   6.586   4.758 -0.4764  1.7305 -3.1112
15613TIP3   OH268329   6.464   4.687  15.330 -0.2510  0.1781  0.0063
15613TIP3    H168330   6.510   4.604  15.344 -0.3779  0.0206 -0.4866
15613TIP3    H268331   6.526   4.754  15.360  0.5738  0.0117 -1.2317
15614TIP3   OH268332   5.585   6.003  13.771 -0.4768  0.9215  0.1821
15614TIP3    H168333   5.670   6.047  13.764 -0.0473 -0.0932 -1.5420
15614TIP3    H268334   5.607   5.914  13.801 -0.7353  0.2057 -1.6352
15615TIP3   OH268335   6.371   1.413  12.609  0.0658  0.3231 -0.3064
15615TIP3    H168336   6.380   1.493  12.558  1.1912  0.7095  0.4667
15615TIP3    H268337   6.415   1.431  12.692 -0.7715 -0.6620  0.3955
15616TIP3   OH268338   3.012   6.269   0.972  0.0055  0.9964  0.6532
15616TIP3    H168339   3.005   6.290   1.065 -2.4182  0.9005  0.5529
15616TIP3    H268340   2.930   6.302   0.934 -0.3934 -1.5480 -0.9006
15617TIP3   OH268341   1.438   3.627   4.757  0.4544  0.0702 -0.5429
15617TIP3    H168342   1.366   3.678   4.792  1.7767  0.9850  0.9954
15617TIP3    H268343   1.396   3.550   4.717 -1.3460  0.5929  0.2412
15618TIP3   OH268344   3.990   1.932  14.558 -0.2052 -0.4783  1.1272
15618TIP3    H168345   4.061   1.871  14.534  0.5560 -0.1068  2.3475
15618TIP3    H268346   3.912   1.894  14.519  0.2022 -2.3886  2.0633
15619TIP3   OH268347   1.724   2.663   1.451 -0.0373 -0.0317  0.1902
15619TIP3    H168348   1.768   2.693   1.530 -2.4661 -0.3659  1.7555
15619TIP3    H268349   1.750   2.571   1.442  0.8735  0.2255  0.1190
15620TIP3   OH268350   0.652   5.016  16.896 -0.1113 -1.1616  0.1013
15620TIP3    H168351   0.572   5.067  16.892  0.8514  0.4215 -0.0809
15620TIP3    H268352   0.628   4.936  16.943 -1.6918 -0.5500  0.3827
15621TIP3   OH268353   3.409   5.642  12.644 -0.4053 -0.2573 -0.2824
15621TIP3    H168354   3.357   5.686  12.713 -2.0556 -0.0475 -1.6005
15621TIP3    H268355   3.489   5.695  12.638 -0.9061  0.6188  0.4237
15622TIP3   OH268356   4.168   3.416  16.264  0.4021  0.3164  0.2394
15622TIP3    H168357   4.173   3.325  16.296 -1.7210  0.2488  0.4752
15622TIP3    H268358   4.174   3.469  16.343  1.0517  0.3898  0.1525
15623TIP3   OH268359   0.796   0.810   2.993 -0.2884 -0.5381 -0.2086
15623TIP3    H168360   0.801   0.781   2.902  2.8013 -1.7730  0.2422
15623TIP3    H268361   0.839   0.895   2.993  1.8694 -1.5570  0.3647
15624TIP3   OH268362   1.905   0.059  12.215  0.3208 -0.8347  0.2319
15624TIP3    H168363   1.938  -0.022  12.254  1.1774 -0.5875  0.0429
15624TIP3    H268364   1.930   0.052  12.123  2.2172  0.5236  0.5818
15625TIP3   OH268365   2.543   3.075   6.123 -0.0178 -0.5101  0.5358
15625TIP3    H168366   2.479   3.109   6.186 -1.1274 -1.2465 -0.1435
15625TIP3    H268367   2.580   2.998   6.166 -2.0080 -2.0285 -0.2959
15626TIP3   OH268368   4.126   6.790  16.292 -0.3760 -0.0333 -0.6432
15626TIP3    H168369   4.221   6.800  16.296 -0.3125 -0.8784  0.4533
15626TIP3    H268370   4.098   6.854  16.227  0.6684  2.0741  0.8870
15627TIP3   OH268371   2.741   3.013   3.512 -0.1255  0.9499  0.2733
15627TIP3    H168372   2.741   3.050   3.600 -1.1375  0.8269  0.3384
15627TIP3    H268373   2.824   2.968   3.504 -1.0043 -1.1196  2.0607
15628TIP3   OH268374   1.386   3.938   3.297 -0.0127  0.1202 -0.0274
15628TIP3    H168375   1.434   4.009   3.341  0.3328 -1.5603  2.5253
15628TIP3    H268376   1.423   3.936   3.209  3.1187  0.3385  1.1333
15629TIP3   OH268377   2.939   2.210   0.319 -0.0355  0.4790 -0.2196
15629TIP3    H168378   2.928   2.133   0.375 -0.2014  1.0261  0.5120
15629TIP3    H268379   2.913   2.180   0.232  0.7517 -0.5389 -0.1233
15630TIP3   OH268380   6.190   3.233   5.417  0.8319  0.1153 -0.2256
15630TIP3    H168381   6.164   3.251   5.507  1.8499 -1.0176  0.3360
15630TIP3    H268382   6.205   3.319   5.378  1.4149  0.6039  1.0161
15631TIP3   OH268383   3.392   4.488   4.767 -0.6832  0.1366 -0.2598
15631TIP3    H168384   3.437   4.405   4.784  0.3514  0.6085 -0.6103
15631TIP3    H268385   3.378   4.489   4.672  0.7475  1.0366 -0.5036
15632TIP3   OH268386   5.408   0.466  15.834  0.1165  0.1981  0.4480
15632TIP3    H168387   5.472   0.536  15.834  0.2346  0.0994 -0.2313
15632TIP3    H268388   5.328   0.506  15.801  0.3143 -0.0831 -0.4198
15633TIP3   OH268389   3.753   0.970   1.367 -1.1004  0.1298  0.6208
15633TIP3    H168390   3.709   0.946   1.285 -2.4835  0.2685  1.2945
15633TIP3    H268391   3.719   1.057   1.388  0.3056  0.7070  0.6414
15634TIP3   OH268392   0.124   4.935   3.776  0.2260 -0.1040 -0.0085
15634TIP3    H168393   0.157   4.974   3.695 -2.4889 -2.5728 -2.5826
15634TIP3    H268394   0.177   4.856   3.787  0.4317  0.1029  0.4890
15635TIP3   OH268395   2.137   5.180  12.517  0.0276  0.5025 -0.2359
15635TIP3    H168396   2.122   5.107  12.577  1.2443 -0.1439 -0.6886
15635TIP3    H268397   2.232   5.190  12.514 -0.0842  3.5337  1.4814
15636TIP3   OH268398   4.129   0.220  14.663 -0.0454 -0.1215  0.0549
15636TIP3    H168399   4.164   0.307  14.641  1.6366 -1.1457 -1.7255
15636TIP3    H268400   4.109   0.225  14.756  0.1316  2.1244  0.0352
15637TIP3   OH268401   6.728   5.801   4.771  0.0460  0.0804 -0.3234
15637TIP3    H168402   6.707   5.771   4.860 -2.2595 -0.0846 -0.8502
15637TIP3    H268403   6.707   5.894   4.772  2.2590  0.6211 -0.1034
15638TIP3   OH268404   2.397   2.228   4.897  0.0256 -0.1497 -0.0136
15638TIP3    H168405   2.400   2.246   4.804  0.0299  0.6396  0.1308
15638TIP3    H268406   2.352   2.304   4.935  0.8389 -0.0177  0.7295
15639TIP3   OH268407   6.280   1.772   2.442  0.6492  0.1604 -0.2135
15639TIP3    H168408   6.194   1.732   2.425 -0.1519  2.0349 -0.8245
15639TIP3    H268409   6.313   1.794   2.355 -0.0804  3.0093  0.1302
15640TIP3   OH268410   4.419   6.211   3.122 -0.3548 -0.4422  0.9243
15640TIP3    H168411   4.361   6.213   3.198  0.1772  0.4336  1.3277
15640TIP3    H268412   4.477   6.137   3.138  1.6822  1.4027  2.9040
15641TIP3   OH268413   6.281   0.564   2.985 -0.1809  0.5025  0.4686
15641TIP3    H168414   6.210   0.509   2.951  0.5500  0.8731 -1.8106
15641TIP3    H268415   6.333   0.504   3.039  0.3888 -1.0538 -1.6634
15642TIP3   OH268416   5.189   4.812  15.494  0.5424 -0.6548  0.2140
15642TIP3    H168417   5.112   4.784  15.445  1.0668  0.8229 -1.5726
15642TIP3    H268418   5.261   4.807  15.431  0.9897  2.6807  0.2325
15643TIP3   OH268419   3.815   1.665  12.593  0.2355  0.0156  0.4943
15643TIP3    H168420   3.798   1.692  12.503  0.1908 -0.7276  0.2704
15643TIP3    H268421   3.752   1.715  12.645 -1.3457 -1.2011 -0.1270
15644TIP3   OH268422   0.285   5.689  16.911 -0.3043 -0.3815  0.1581
15644TIP3    H168423   0.285   5.594  16.914  0.0465 -0.3592  1.9897
15644TIP3    H268424   0.214   5.715  16.970  0.6514  0.4931  0.9590
15645TIP3   OH268425   3.314   0.155   2.662  0.5095 -0.0341  0.0841
15645TIP3    H168426   3.257   0.079   2.655  1.2476 -0.7209  1.0456
15645TIP3    H268427   3.296   0.191   2.750 -0.8576  1.7940 -0.8730
15646TIP3   OH268428   6.726   2.036   5.039 -0.4370  0.1506  0.4143
15646TIP3    H168429   6.695   1.947   5.019 -1.1327 -0.3011  3.1287
15646TIP3    H268430   6.739   2.076   4.953  0.7955 -2.8392 -0.9620
15647TIP3   OH268431   6.770   5.064   0.972 -0.7507 -0.1620  0.2474
15647TIP3    H168432   6.772   5.003   0.898  0.5893 -2.7472  2.2329
15647TIP3    H268433   6.858   5.101   0.974 -0.2547 -1.3038  1.3696
15648TIP3   OH268434   1.253   2.433  14.601 -0.0840  0.0527 -0.5661
15648TIP3    H168435   1.252   2.477  14.516  1.4787  0.4119 -0.4377
15648TIP3    H268436   1.305   2.491  14.657  0.5690 -1.1314  0.0867
15649TIP3   OH268437   5.989   1.839   4.632 -0.1542 -0.1474 -0.4441
15649TIP3    H168438   6.071   1.825   4.585  0.0432  1.4939 -0.6311
15649TIP3    H268439   5.930   1.876   4.567 -1.2364 -1.7487 -0.4345
15650TIP3   OH268440   4.826   2.781   4.188  0.9752 -0.4181 -0.2984
15650TIP3    H168441   4.855   2.726   4.262  1.8861  1.0414  0.4870
15650TIP3    H268442   4.846   2.729   4.111 -0.4112 -2.1828  0.4623
15651TIP3   OH268443   4.954   3.523   1.796 -0.0240  0.1388  0.5917
15651TIP3    H168444   5.030   3.581   1.798 -0.2436  0.4266  0.7022
15651TIP3    H268445   4.922   3.528   1.706  0.8222 -0.9529  0.2123
15652TIP3   OH268446   1.570   6.419   3.559 -0.3929 -0.4787 -0.2192
15652TIP3    H168447   1.576   6.411   3.464  1.5198  1.5391 -0.3358
15652TIP3    H268448   1.538   6.508   3.574 -1.5858 -1.0718  1.0699
15653TIP3   OH268449   2.305   1.241  14.206  0.3823  0.0884  0.4393
15653TIP3    H168450   2.374   1.198  14.155  0.5701  0.1230  0.6647
15653TIP3    H268451   2.330   1.228  14.297  0.6785  1.0469  0.5085
15654TIP3   OH268452   6.539   0.369   3.826  0.2939 -0.5133  0.1591
15654TIP3    H168453   6.503   0.380   3.738 -1.0989 -0.9573  0.6441
15654TIP3    H268454   6.632   0.348   3.811  0.5551  1.3302 -1.1054
15655TIP3   OH268455   5.704   0.059   1.256 -0.3752  0.1316  0.3557
15655TIP3    H168456   5.670   0.147   1.273  0.8677  0.1914  2.9553
15655TIP3    H268457   5.643   0.000   1.301 -0.8717 -0.3445 -0.8843
15656TIP3   OH268458   3.694   3.047  16.223  0.4924 -0.3847 -0.0766
15656TIP3    H168459   3.633   3.075  16.291  1.0735  0.4372  0.1263
15656TIP3    H268460   3.743   3.127  16.201  3.0114 -1.4089  1.3437
15657TIP3   OH268461   0.527   6.134   3.877  0.0444  0.3028  0.1707
15657TIP3    H168462   0.544   6.061   3.937 -1.4967 -0.6886 -0.5373
15657TIP3    H268463   0.613   6.170   3.858  0.6524  0.2014  2.3966
15658TIP3   OH268464   1.651   0.003  13.511  0.3426  0.3601  0.3368
15658TIP3    H168465   1.671  -0.017  13.602  1.7672  0.8074  0.1394
15658TIP3    H268466   1.735   0.023  13.471 -0.3083  0.6051 -0.9822
15659TIP3   OH268467   2.698   0.411   2.112 -0.1577  0.8172  0.4648
15659TIP3    H168468   2.704   0.471   2.038  0.1740 -0.9000 -0.9656
15659TIP3    H268469   2.609   0.376   2.108 -0.2480  0.9439  1.1040
15660TIP3   OH268470   2.421   3.207  16.540 -0.7156 -0.1362 -0.3196
15660TIP3    H168471   2.465   3.156  16.472 -0.7635 -0.1942 -0.3074
15660TIP3    H268472   2.382   3.142  16.597 -0.5011 -0.0921 -0.1205
15661TIP3   OH268473   5.148   6.306  16.621 -0.0414 -0.1814  0.0747
15661TIP3    H168474   5.202   6.240  16.663  0.0424 -0.0896  0.1119
15661TIP3    H268475   5.206   6.381  16.608  0.1235 -0.4522 -0.8306
15662TIP3   OH268476   6.762   1.843  14.032  0.9319  0.2616 -0.4704
15662TIP3    H168477   6.675   1.813  14.060  1.4338 -0.6285  0.2085
15662TIP3    H268478   6.819   1.822  14.107  1.2611  3.4105  0.3040
15663TIP3   OH268479   4.136   2.364   5.906  0.4826 -0.2220  0.5809
15663TIP3    H168480   4.162   2.431   5.843 -0.2484 -0.0684  0.4314
15663TIP3    H268481   4.144   2.408   5.991 -1.1317  0.4723  0.4152
15664TIP3   OH268482   1.676   2.675  15.822 -0.6868  0.4082 -0.3375
15664TIP3    H168483   1.613   2.701  15.890 -0.6015 -0.0190 -0.0890
15664TIP3    H268484   1.697   2.756  15.776 -1.3619  0.5649 -0.3716
15665TIP3   OH268485   4.289   0.113   3.093  0.5318  0.6164 -0.5263
15665TIP3    H168486   4.214   0.158   3.134  1.1085  0.6436  0.5400
15665TIP3    H268487   4.268   0.111   3.000  0.0992  2.3869 -0.5038
15666TIP3   OH268488   3.251   0.358  15.425  0.4161 -0.0813 -0.4321
15666TIP3    H168489   3.249   0.276  15.375  2.1282 -1.8609  2.1672
15666TIP3    H268490   3.344   0.373  15.442  0.2576  3.1876 -1.9034
15667TIP3   OH268491   1.190   5.759  16.929 -0.3602 -0.2352 -0.0378
15667TIP3    H168492   1.122   5.820  16.901  0.5343  0.6226 -0.3938
15667TIP3    H268493   1.221   5.794  17.013 -0.2812 -0.5577  0.0707
15668TIP3   OH268494   5.862   0.630  16.566  0.2640 -0.1175 -0.8051
15668TIP3    H168495   5.824   0.542  16.557 -0.7793  0.3279 -0.9100
15668TIP3    H268496   5.821   0.665  16.645 -0.5516  0.8637 -1.6411
15669TIP3   OH268497   2.726   5.995  14.930  0.1992 -0.4128  0.7439
15669TIP3    H168498   2.701   6.040  14.849  1.4074 -0.4064  0.3543
15669TIP3    H268499   2.711   5.902  14.911 -0.8497 -0.3100  1.0158
15670TIP3   OH268500   1.508   3.027  14.201 -0.5126  0.1144 -0.1782
15670TIP3    H168501   1.579   2.991  14.255  0.4959  0.4326 -1.2452
15670TIP3    H268502   1.448   2.954  14.188  0.0735 -0.4103  0.0100
15671TIP3   OH268503   6.321   2.317   3.767 -0.5854 -0.6261  0.3247
15671TIP3    H168504   6.407   2.331   3.728  0.0386 -1.4296  1.3656
15671TIP3    H268505   6.268   2.391   3.737  0.8290  0.5863  0.7297
15672TIP3   OH268506   0.373   5.884  13.457 -0.5488 -0.0048  0.1147
15672TIP3    H168507   0.354   5.819  13.524  0.0025  0.2563  0.5414
15672TIP3    H268508   0.429   5.838  13.394  1.8029  0.6180  1.6029
15673TIP3   OH268509   5.561   5.136   0.629 -0.2841  0.4616 -0.0611
15673TIP3    H168510   5.564   5.175   0.717  3.8623  1.0055 -0.2486
15673TIP3    H268511   5.533   5.046   0.644  1.1708  0.2800  2.0117
15674TIP3   OH268512   2.820   5.329  16.971 -0.5845  0.6275 -0.3416
15674TIP3    H168513   2.763   5.259  17.003 -1.0200  0.0014 -2.3256
15674TIP3    H268514   2.760   5.396  16.940 -0.1711  1.5070  0.6889
15675TIP3   OH268515   4.068   0.177  14.348 -0.2229 -0.6699  0.2289
15675TIP3    H168516   4.055   0.271  14.337 -1.6441 -0.9136 -0.3610
15675TIP3    H268517   4.163   0.165  14.344 -0.0163  0.7567  0.5037
15676TIP3   OH268518   6.593   6.505  15.120  0.0876  0.3112 -0.1203
15676TIP3    H168519   6.545   6.567  15.066  0.6214  0.9443  0.1115
15676TIP3    H268520   6.627   6.441  15.058  1.6730  1.6563 -0.7496
15677TIP3   OH268521   3.001   0.146   0.302 -0.5564  0.8818  0.8133
15677TIP3    H168522   3.024   0.238   0.287  1.0918  0.2305 -1.0427
15677TIP3    H268523   3.051   0.121   0.380  0.4573  1.0999  0.2538
15678TIP3   OH268524   5.442   3.253   0.035 -0.4761 -0.4183  0.0810
15678TIP3    H168525   5.395   3.194  -0.023  0.3175 -0.8405 -0.1417
15678TIP3    H268526   5.441   3.209   0.120  0.0511 -0.7265 -0.0677
15679TIP3   OH268527   0.480   1.471   2.965 -0.2620 -0.1406 -0.5327
15679TIP3    H168528   0.420   1.441   2.896  1.0772 -3.8067 -0.3476
15679TIP3    H268529   0.481   1.398   3.028  0.8404  1.8205  1.8682
15680TIP3   OH268530   2.951   5.674  14.399  0.5033  0.2762  0.0671
15680TIP3    H168531   2.954   5.633  14.312 -0.6879 -0.2899  0.2661
15680TIP3    H268532   3.039   5.664  14.433  0.8976  0.1901 -0.9376
15681TIP3   OH268533   0.854   6.082   5.414  0.7489  0.2724  0.3491
15681TIP3    H168534   0.852   6.135   5.335 -0.7854 -0.2326  0.0047
15681TIP3    H268535   0.915   6.011   5.395  2.3214  1.5061  0.5827
15682TIP3   OH268536   1.752   5.089  11.667 -0.2736 -0.1852  0.0278
15682TIP3    H168537   1.804   5.123  11.740 -0.2205  1.6360 -0.7863
15682TIP3    H268538   1.662   5.117  11.686 -0.3700 -0.2889 -0.2691
15683TIP3   OH268539   3.829   3.366   0.553  0.7061 -0.6672  0.0061
15683TIP3    H168540   3.739   3.364   0.587  0.7558  0.4068  0.2378
15683TIP3    H268541   3.825   3.425   0.478  1.9436  2.6922  2.3570
15684TIP3   OH268542   6.740   2.060  17.204 -0.0624 -0.3763  0.0043
15684TIP3    H168543   6.739   2.138  17.260  1.3897 -0.2708 -0.0638
15684TIP3    H268544   6.752   1.987  17.265 -0.0156 -0.4063 -0.0409
15685TIP3   OH268545   0.553   3.040  15.215  0.3812  0.2534 -0.1350
15685TIP3    H168546   0.609   3.117  15.221  1.4948 -0.5486  0.2031
15685TIP3    H268547   0.613   2.966  15.225 -0.4916 -0.6966 -1.4355
15686TIP3   OH268548   1.908   3.724   4.674  0.4801  0.2070 -0.1991
15686TIP3    H168549   1.884   3.749   4.585 -2.3261 -0.3849  0.2732
15686TIP3    H268550   1.832   3.750   4.727  0.8284 -2.0016  1.5364
15687TIP3   OH268551   3.813   5.104   5.528  0.4622  0.1303  1.1819
15687TIP3    H168552   3.898   5.101   5.571  1.0737 -2.7418  0.0093
15687TIP3    H268553   3.821   5.174   5.463  1.4387  0.7984  2.0069
15688TIP3   OH268554   4.723   0.234   1.376 -0.1135  0.8770  0.1290
15688TIP3    H168555   4.661   0.163   1.392 -0.1441  1.3310  2.2096
15688TIP3    H268556   4.688   0.278   1.298 -1.7912  0.4327  0.5756
15689TIP3   OH268557   1.999   4.799  12.068  0.1717 -0.6023 -0.1219
15689TIP3    H168558   2.028   4.749  11.992 -2.9799 -1.4319 -0.9109
15689TIP3    H268559   1.988   4.733  12.137 -1.0239 -0.5533 -0.2454
15690TIP3   OH268560   3.070   6.336   0.021  0.2516  0.2025  0.1926
15690TIP3    H168561   3.124   6.316   0.097  0.6544  2.5392  0.5892
15690TIP3    H268562   2.984   6.359   0.058 -0.7897 -2.4235 -0.3665
15691TIP3   OH268563   0.409   6.407  13.574 -0.1823  0.2320 -0.2832
15691TIP3    H168564   0.447   6.395  13.487  0.8945 -1.2337  0.3464
15691TIP3    H268565   0.443   6.492  13.603  0.8557 -0.0513 -0.6185
15692TIP3   OH268566   1.246   4.864   5.987 -0.2813  0.4158 -0.3781
15692TIP3    H168567   1.177   4.859   5.921  0.5244  0.7873 -1.2665
15692TIP3    H268568   1.211   4.925   6.053 -0.5508  1.1236 -1.1526
15693TIP3   OH268569   3.162   2.345  11.787 -0.2807 -0.6701  0.1354
15693TIP3    H168570   3.068   2.359  11.772 -0.4618  1.1273  2.4663
15693TIP3    H268571   3.174   2.251  11.773 -2.3258 -0.8793 -0.5906
15694TIP3   OH268572   4.509   2.864   1.045 -0.1014 -0.1122  0.4482
15694TIP3    H168573   4.462   2.840   1.125  0.4000 -0.3283  0.6851
15694TIP3    H268574   4.538   2.954   1.061  2.2746 -1.0123  1.6394
15695TIP3   OH268575   5.499   2.659  12.761 -0.2451 -0.0252 -0.2156
15695TIP3    H168576   5.572   2.711  12.794 -0.9862  1.2542 -0.4975
15695TIP3    H268577   5.421   2.708  12.786 -0.9156 -0.0785 -2.0121
15696TIP3   OH268578   0.449   4.430  15.643 -0.2049 -0.3959 -0.4656
15696TIP3    H168579   0.455   4.501  15.707  0.7296 -0.8131 -0.0654
15696TIP3    H268580   0.461   4.350  15.695  2.1079 -0.6867 -1.3086
15697TIP3   OH268581   1.798   3.368   3.856  0.3610  0.0729 -0.7570
15697TIP3    H168582   1.725   3.397   3.912  0.1705 -1.5784 -0.0994
15697TIP3    H268583   1.814   3.442   3.798 -1.1545  0.8657 -0.2243
15698TIP3   OH268584   4.670   3.426  13.419  0.7184  0.1848 -0.9144
15698TIP3    H168585   4.752   3.475  13.420  0.1916  1.0874 -0.1915
15698TIP3    H268586   4.625   3.456  13.340  0.2293  1.1755 -0.2732
15699TIP3   OH268587   0.845   4.320  15.611  0.4416  0.4002  0.2148
15699TIP3    H168588   0.881   4.249  15.558  0.7307  0.4994  0.2725
15699TIP3    H268589   0.809   4.276  15.688  2.7199  0.4499  1.4219
15700TIP3   OH268590   6.145   0.624  15.379  0.5693 -0.1410  0.1886
15700TIP3    H168591   6.203   0.574  15.321 -0.2249 -0.0708 -0.7058
15700TIP3    H268592   6.091   0.557  15.422 -0.8712 -0.1142 -1.4170
15701TIP3   OH268593   5.428   0.468   1.841  0.0827  0.2595  0.2959
15701TIP3    H168594   5.452   0.435   1.754 -1.4993 -1.8945  0.5679
15701TIP3    H268595   5.492   0.536   1.860  3.2460 -2.1672 -0.7058
15702TIP3   OH268596   6.696   6.589   3.795 -0.6929 -0.1502  0.3291
15702TIP3    H168597   6.700   6.587   3.891  2.4190  0.4856  0.3302
15702TIP3    H268598   6.725   6.502   3.768  1.9022  0.7021  0.0714
15703TIP3   OH268599   5.586   1.669   2.939  0.3715  0.1470 -0.1501
15703TIP3    H168600   5.606   1.591   2.887  0.0032  0.6965 -1.1331
15703TIP3    H268601   5.568   1.737   2.875 -1.8803  0.4058  0.6643
15704TIP3   OH268602   5.223   3.619   4.939 -0.2176  0.1335 -0.2125
15704TIP3    H168603   5.157   3.672   4.895  0.1777  0.7092 -0.1390
15704TIP3    H268604   5.220   3.534   4.895 -0.2084  0.5216 -0.9787
15705TIP3   OH268605   4.379   2.155  14.583 -0.0812 -0.8674  0.3239
15705TIP3    H168606   4.377   2.129  14.492  0.7000  1.0277 -0.2915
15705TIP3    H268607   4.294   2.197  14.598  0.6063  0.8361 -0.2415
15706TIP3   OH268608   1.208   4.482   5.817 -0.1151  0.3084 -0.5413
15706TIP3    H168609   1.276   4.458   5.880  1.4818  1.1045 -1.8832
15706TIP3    H268610   1.245   4.556   5.769  0.0288 -1.9885 -4.3907
15707TIP3   OH268611   3.839   4.298   6.473  0.0973  0.5444 -0.6514
15707TIP3    H168612   3.881   4.365   6.527  3.7492 -1.3857 -0.7904
15707TIP3    H268613   3.838   4.335   6.385  0.4349  1.1145 -0.4226
15708TIP3   OH268614   2.584   6.029  13.494 -0.1899 -0.4787  0.5973
15708TIP3    H168615   2.524   5.956  13.508 -0.2314 -0.3352  1.1752
15708TIP3    H268616   2.553   6.098  13.552  0.9412 -0.6413  1.4370
15709TIP3   OH268617   0.010   0.066   2.426  0.4061  0.1958  0.2025
15709TIP3    H168618   0.080   0.008   2.396 -0.3426 -0.0987 -1.0407
15709TIP3    H268619  -0.062   0.007   2.450  0.0312  0.5494 -0.0348
15710TIP3   OH268620   6.090   5.331   5.471 -0.1898  0.6543  0.3365
15710TIP3    H168621   6.097   5.363   5.381  2.6478 -1.0644 -0.1627
15710TIP3    H268622   6.107   5.409   5.525  1.3785  1.0878 -0.7124
15711TIP3   OH268623   6.733   2.614  12.847  0.0687  0.6391 -0.4990
15711TIP3    H168624   6.790   2.624  12.924  1.6375  0.0245 -1.5302
15711TIP3    H268625   6.725   2.520  12.835 -3.0422  0.6113  0.8834
15712TIP3   OH268626   1.401   1.397   0.560  0.1429  0.6754  0.0837
15712TIP3    H168627   1.325   1.372   0.613  1.1979 -1.4553  0.7257
15712TIP3    H268628   1.472   1.342   0.593  1.1636  0.1356 -2.7300
15713TIP3   OH268629   1.218   1.929   4.309 -0.6683 -0.7838 -0.4993
15713TIP3    H168630   1.173   2.003   4.268 -0.6521 -1.6327 -2.1658
15713TIP3    H268631   1.238   1.958   4.397 -0.9882  1.0557 -0.9940
15714TIP3   OH268632   2.302   0.258  16.531  0.2937  0.2707 -0.3011
15714TIP3    H168633   2.322   0.348  16.560  0.0874  0.4613 -0.7458
15714TIP3    H268634   2.208   0.250  16.544  0.1810  0.3945 -1.0167
15715TIP3   OH268635   3.167   0.720  12.723  1.2306  0.5334  0.0342
15715TIP3    H168636   3.078   0.686  12.723  1.0819  0.7699  2.1570
15715TIP3    H268637   3.216   0.659  12.668 -0.1333  0.1316 -0.7702
15716TIP3   OH268638   4.427   5.584   2.781  0.1999 -0.1750  0.1742
15716TIP3    H168639   4.354   5.523   2.767  0.7923 -0.8262 -0.1442
15716TIP3    H268640   4.419   5.609   2.873  0.3524 -1.2856  0.5036
15717TIP3   OH268641   4.046   4.583  13.673 -0.3983  0.5420  0.2978
15717TIP3    H168642   3.964   4.623  13.701 -0.7003  1.0089 -1.1474
15717TIP3    H268643   4.089   4.651  13.622  0.7832  0.2100  0.8276
15718TIP3   OH268644   3.156   4.218   1.270  0.6594  0.1012  0.5670
15718TIP3    H168645   3.078   4.164   1.256 -1.5171  2.6695  1.7491
15718TIP3    H268646   3.153   4.239   1.364  1.0155  2.6509  0.0732
15719TIP3   OH268647   3.719   4.936  11.466  0.2636 -0.3582  0.2709
15719TIP3    H168648   3.643   4.962  11.519 -0.6146  0.0762 -1.1417
15719TIP3    H268649   3.681   4.899  11.386  1.5226 -2.5925  0.6192
15720TIP3   OH268650   0.329   4.317   0.775  0.4274  0.0673  0.1583
15720TIP3    H168651   0.307   4.305   0.682  3.9056  4.8997 -1.7462
15720TIP3    H268652   0.254   4.364   0.811 -0.5765 -1.0581 -0.3642
15721TIP3   OH268653   5.905   2.431   1.002  0.1498 -0.0213  0.1000
15721TIP3    H168654   5.888   2.347   1.043  2.9531 -2.0920 -2.4567
15721TIP3    H268655   5.825   2.481   1.014 -2.2221 -3.5863  0.5193
15722TIP3   OH268656   5.563   5.853   1.744  0.1060  0.2406  0.0820
15722TIP3    H168657   5.604   5.790   1.685 -0.2811  0.4651 -0.4324
15722TIP3    H268658   5.625   5.862   1.817  0.1319 -0.7905  0.2041
15723TIP3   OH268659   3.019   0.436  11.973  0.5412  0.6287  0.2226
15723TIP3    H168660   3.036   0.409  11.884  2.1467  0.1130  0.6593
15723TIP3    H268661   2.932   0.402  11.993  1.0457 -1.1309 -0.4342
15724TIP3   OH268662   5.816   5.985   0.435  0.0359  0.1182 -0.1061
15724TIP3    H168663   5.847   5.907   0.389 -1.0139  0.1503 -0.9115
15724TIP3    H268664   5.845   6.059   0.380  0.3165  0.2523  0.2209
15725TIP3   OH268665   3.824   1.987   2.411  0.2968  0.6193 -0.2076
15725TIP3    H168666   3.845   1.945   2.328  1.4773  1.8458 -0.5534
15725TIP3    H268667   3.853   1.923   2.477 -2.2054 -1.1228 -0.6497
15726TIP3   OH268668   3.247   1.643  13.423  0.6704  0.2863 -0.0071
15726TIP3    H168669   3.334   1.639  13.462 -0.1125 -2.0848  1.7177
15726TIP3    H268670   3.257   1.601  13.338  1.0004 -1.1067  0.6949
15727TIP3   OH268671   1.347   1.177   3.549 -0.4258 -0.0709 -0.1687
15727TIP3    H168672   1.277   1.219   3.498  0.9793  1.8834 -0.6092
15727TIP3    H268673   1.410   1.147   3.483  0.0401 -0.0956  0.2835
15728TIP3   OH268674   2.350   4.091   0.677 -0.4440  0.8767 -1.1596
15728TIP3    H168675   2.360   4.117   0.586  1.2187  2.1763 -0.6493
15728TIP3    H268676   2.265   4.046   0.680  0.5797 -1.4963 -3.8111
15729TIP3   OH268677   3.536   2.362   4.216  0.6445  0.5452  0.0159
15729TIP3    H168678   3.500   2.274   4.207  1.4822  0.2271 -0.3449
15729TIP3    H268679   3.501   2.411   4.142 -2.6567  1.5635  2.0553
15730TIP3   OH268680   0.642   4.035  15.092 -0.2311 -0.2401 -0.3619
15730TIP3    H168681   0.576   4.068  15.153 -0.6312 -0.1907 -0.8143
15730TIP3    H268682   0.592   3.984  15.028  0.3073 -1.3248  0.0363
15731TIP3   OH268683   6.053   4.490   2.049 -0.3559 -0.2279  0.5552
15731TIP3    H168684   6.075   4.575   2.011  0.9457 -0.6297  0.3522
15731TIP3    H268685   5.989   4.510   2.117  1.0172  1.1058  1.5232
15732TIP3   OH268686   1.993   2.983   5.833  0.2449  0.1354  0.2629
15732TIP3    H168687   1.961   2.893   5.834 -0.9160  0.5115 -0.5063
15732TIP3    H268688   2.050   2.988   5.756 -0.9963  0.4473 -0.6764
15733TIP3   OH268689   6.457   1.802  12.232  0.1881  0.0124 -0.2454
15733TIP3    H168690   6.424   1.892  12.234  0.6189  0.2621 -2.2504
15733TIP3    H268691   6.541   1.809  12.185  0.8669 -1.2531  0.7406
15734TIP3   OH268692   0.289   5.986   1.214  0.1151 -0.1361 -0.1040
15734TIP3    H168693   0.250   6.072   1.201  0.3261 -0.0476 -0.1679
15734TIP3    H268694   0.369   5.988   1.161 -0.7597 -0.9818 -1.5230
15735TIP3   OH268695   6.348   4.794   1.132  0.1148  0.3994 -0.0010
15735TIP3    H168696   6.276   4.768   1.075  0.3814 -0.6935  0.1425
15735TIP3    H268697   6.401   4.852   1.078  0.4115 -0.6843 -0.9154
15736TIP3   OH268698   3.099   0.857  11.612 -0.3423  0.2461 -0.2071
15736TIP3    H168699   3.183   0.830  11.651 -0.2654  0.0965 -0.4778
15736TIP3    H268700   3.115   0.858  11.518 -1.4676 -2.7899 -0.5463
15737TIP3   OH268701   5.239   6.346  12.950  0.8288  0.3340  0.6188
15737TIP3    H168702   5.173   6.380  12.890  0.9300 -0.5851 -0.0412
15737TIP3    H268703   5.226   6.395  13.031 -2.0822 -1.2256  1.2376
15738TIP3   OH268704   1.381   0.474  11.583 -0.3227 -0.3891  0.0578
15738TIP3    H168705   1.360   0.495  11.492 -1.0085 -1.8980 -0.1747
15738TIP3    H268706   1.431   0.392  11.577  0.6049  0.0903  0.9815
15739TIP3   OH268707   2.786   6.135  13.841 -0.7265  0.2411  0.2144
15739TIP3    H168708   2.827   6.155  13.756 -0.7447  0.9152  0.3636
15739TIP3    H268709   2.785   6.039  13.844 -1.1714  0.2048 -0.7645
15740TIP3   OH268710   2.071   3.204  15.844 -0.8845  0.1333 -0.3706
15740TIP3    H168711   2.068   3.250  15.928 -0.8883 -1.1616  0.3762
15740TIP3    H268712   2.042   3.115  15.865  0.1763 -0.5165 -1.5239
15741TIP3   OH268713   0.188   4.347  11.590 -0.0613 -0.4782 -0.7642
15741TIP3    H168714   0.114   4.394  11.551 -0.6088 -1.9681 -1.6168
15741TIP3    H268715   0.185   4.370  11.682 -0.8518  0.4534 -1.0018
15742TIP3   OH268716   5.793   1.098  13.793  0.4427 -0.4074 -0.1933
15742TIP3    H168717   5.786   1.147  13.711  0.5475  1.0181  0.6061
15742TIP3    H268718   5.871   1.134  13.835  0.4283 -1.1709  0.5096
15743TIP3   OH268719   6.401   1.668   2.901  0.5648  0.1993 -0.2244
15743TIP3    H168720   6.361   1.594   2.948 -0.1246  1.1400  0.7116
15743TIP3    H268721   6.494   1.647   2.899  0.6534  0.2191  1.7802
15744TIP3   OH268722   4.265   1.495  15.010 -0.0321 -0.7651  0.1802
15744TIP3    H168723   4.282   1.429  15.078  1.7169  1.2626  1.8254
15744TIP3    H268724   4.325   1.473  14.939  0.6455 -0.8694  0.7803
15745TIP3   OH268725   4.694   6.258  11.969 -0.7228  0.1225 -0.3867
15745TIP3    H168726   4.760   6.197  12.002 -0.9707  0.4476  0.7517
15745TIP3    H268727   4.710   6.339  12.017  0.0032  1.1984 -2.3168
15746TIP3   OH268728   5.511   5.971  12.221 -0.6462 -0.2820  0.5730
15746TIP3    H168729   5.477   6.003  12.304  1.1289 -0.9044  1.6122
15746TIP3    H268730   5.438   5.924  12.181 -1.6860  0.4803  1.5344
15747TIP3   OH268731   2.595   0.893  11.450 -0.3825  0.1343 -0.4409
15747TIP3    H168732   2.563   0.845  11.526 -1.4981  1.0412 -0.3107
15747TIP3    H268733   2.553   0.852  11.375 -0.4419  0.1836 -0.4344
15748TIP3   OH268734   4.850   0.493   5.111  0.3420  0.4345 -0.0137
15748TIP3    H168735   4.790   0.566   5.096 -0.2649  0.2619  1.4166
15748TIP3    H268736   4.932   0.535   5.138  0.6780  0.6459 -1.3086
15749TIP3   OH268737   6.529   1.929   0.854  0.4030 -0.1392 -0.1939
15749TIP3    H168738   6.574   1.967   0.779 -0.3978 -1.7057 -1.5432
15749TIP3    H268739   6.509   1.839   0.827 -2.1361  0.0030  0.9143
15750TIP3   OH268740   5.354   0.652   0.546 -0.0760 -0.6210  0.8538
15750TIP3    H168741   5.448   0.670   0.554 -0.1464 -0.0597  0.4930
15750TIP3    H268742   5.350   0.569   0.498  0.2338  0.5737 -1.3973
15751TIP3   OH268743   0.784   3.051   5.927  0.5040 -0.1350 -0.6659
15751TIP3    H168744   0.799   2.957   5.918 -0.0757 -0.2486 -0.4842
15751TIP3    H268745   0.871   3.088   5.941  0.5854 -0.8053  0.7178
15752TIP3   OH268746   3.985   2.290   3.602 -0.1180  0.4927  0.0793
15752TIP3    H168747   3.981   2.370   3.550 -0.0095  1.5548  1.6323
15752TIP3    H268748   3.895   2.275   3.630 -0.0165  0.5197  0.4257
15753TIP3   OH268749   2.596   5.218   1.580  1.0118  0.1722  0.8930
15753TIP3    H168750   2.512   5.197   1.623  0.3446 -0.0330 -0.4698
15753TIP3    H268751   2.608   5.311   1.596 -0.2973  0.5624 -0.2542
15754TIP3   OH268752   6.533   1.022  13.581  0.0453  0.1722 -0.2603
15754TIP3    H168753   6.580   1.086  13.633 -0.6995  0.0464  0.5815
15754TIP3    H268754   6.601   0.978  13.530  0.5904  1.4434 -0.6619
15755TIP3   OH268755   1.385   6.610   5.016 -0.4749  0.5204 -0.0979
15755TIP3    H168756   1.444   6.535   5.024  1.7621  2.1953 -0.1085
15755TIP3    H268757   1.365   6.634   5.107 -1.3101 -0.1258 -0.0950
15756TIP3   OH268758   1.654   0.279   2.283 -0.4725  0.0164 -0.2026
15756TIP3    H168759   1.610   0.353   2.325  0.0930 -0.7371  1.8564
15756TIP3    H268760   1.727   0.318   2.235 -1.2933  0.9425 -0.7292
15757TIP3   OH268761   6.681   0.843   5.900  0.1448  0.4159  0.1500
15757TIP3    H168762   6.773   0.845   5.874 -0.1313  0.0757 -0.8664
15757TIP3    H268763   6.673   0.916   5.962  1.0772  0.4962  0.1912
15758TIP3   OH268764   5.018   0.580   0.821 -0.3173 -0.5505  0.6424
15758TIP3    H168765   5.005   0.557   0.913 -0.1412 -1.0246  0.5512
15758TIP3    H268766   5.058   0.502   0.783 -0.3048 -0.3191  0.1847
15759TIP3   OH268767   6.355   1.214   1.159  0.1263 -0.3387 -0.0599
15759TIP3    H168768   6.272   1.167   1.156 -0.3904  0.4956 -3.5214
15759TIP3    H268769   6.336   1.295   1.206 -0.7628 -0.6152  0.0731
15760TIP3   OH268770   0.400   6.351  13.295 -0.2602  0.0684  0.0294
15760TIP3    H168771   0.494   6.363  13.276 -0.4082  0.4565 -0.4913
15760TIP3    H268772   0.382   6.261  13.269  0.3619 -0.6281  1.8425
15761TIP3   OH268773   3.324   5.400   3.775  0.1731 -0.0661 -0.2198
15761TIP3    H168774   3.297   5.397   3.683  3.0908 -1.1432 -1.1788
15761TIP3    H268775   3.369   5.317   3.789  0.7156  0.5317  1.8535
15762TIP3   OH268776   3.482   3.140   3.686 -0.5340 -0.2491  0.5436
15762TIP3    H168777   3.485   3.231   3.658 -1.4917 -0.1581  0.6938
15762TIP3    H268778   3.508   3.142   3.778 -1.2153 -0.0345  0.7347
15763TIP3   OH268779   3.028   0.952  14.595 -0.0718 -0.4796 -0.4544
15763TIP3    H168780   3.071   0.912  14.519 -0.3609 -1.8264  0.0689
15763TIP3    H268781   2.974   0.883  14.632 -0.3383  0.3069  0.6946
15764TIP3   OH268782   6.071   0.395   2.863 -0.0703  0.0641  0.2074
15764TIP3    H168783   6.011   0.442   2.805  1.7471 -0.3160 -2.1329
15764TIP3    H268784   6.057   0.303   2.843  1.1268 -0.0372 -0.2489
15765TIP3   OH268785   5.978   4.306   4.843 -0.4868 -0.4657  0.0282
15765TIP3    H168786   5.969   4.383   4.787 -0.7901 -1.5189 -1.4567
15765TIP3    H268787   5.899   4.255   4.824  1.4818 -3.0177 -2.1131
15766TIP3   OH268788   3.810   3.861  12.485 -0.9218 -0.5031 -0.0875
15766TIP3    H168789   3.869   3.850  12.560  1.2455 -1.5928 -1.8279
15766TIP3    H268790   3.795   3.956  12.481  0.7689 -0.1745  0.4249
15767TIP3   OH268791   2.089   6.548  13.220 -0.7715 -0.4182  0.0712
15767TIP3    H168792   2.131   6.603  13.287 -0.2693  0.4958 -0.9618
15767TIP3    H268793   2.118   6.459  13.240 -0.2915 -0.1037  0.8188
15768TIP3   OH268794   0.361   5.939   1.895 -0.0181 -0.0642  0.0964
15768TIP3    H168795   0.396   6.005   1.955 -0.4571  0.9780 -0.7530
15768TIP3    H268796   0.434   5.915   1.839  0.4297 -1.1421  1.0962
15769TIP3   OH268797   4.336   0.946   1.502 -0.5807 -0.5209  0.1414
15769TIP3    H168798   4.324   1.036   1.473  2.6670  0.3030  0.8899
15769TIP3    H268799   4.314   0.893   1.426 -1.2921  0.9871 -0.7469
15770TIP3   OH268800   5.610   2.472   5.162  0.4821 -0.2472 -0.1973
15770TIP3    H168801   5.571   2.498   5.079  0.2077  0.0010  0.0051
15770TIP3    H268802   5.574   2.534   5.226  1.5988  0.2939 -0.0827
15771TIP3   OH268803   5.497   5.590   5.328 -0.2812 -0.2812 -0.3888
15771TIP3    H168804   5.563   5.613   5.393 -2.2294 -0.6966  1.8745
15771TIP3    H268805   5.487   5.669   5.275 -0.5415  1.0835  1.5739
15772TIP3   OH268806   3.892   4.335   0.392 -0.3048  0.1303  0.1840
15772TIP3    H168807   3.848   4.263   0.437 -0.1072 -0.3441 -0.3709
15772TIP3    H268808   3.892   4.406   0.456 -1.4800 -0.0022  0.3615
15773TIP3   OH268809   3.915   6.303  14.441 -0.0304  0.5385  0.4242
15773TIP3    H168810   3.987   6.287  14.380  0.7219 -1.1721  1.6776
15773TIP3    H268811   3.842   6.253  14.406  0.8718 -1.8219  1.6831
15774TIP3   OH268812   0.171   2.307   0.428  0.7272  0.1791  0.2559
15774TIP3    H168813   0.127   2.317   0.513  2.1939  1.1897  0.9362
15774TIP3    H268814   0.222   2.227   0.436 -0.1389 -0.4251 -0.1557
15775TIP3   OH268815   3.444   4.653   0.234 -0.2043 -0.0093 -0.1627
15775TIP3    H168816   3.418   4.717   0.168  2.0180  1.9505  0.7448
15775TIP3    H268817   3.410   4.570   0.200 -1.5099  1.3029 -2.3596
15776TIP3   OH268818   3.459   5.389   5.348  0.3357  0.2820 -0.0627
15776TIP3    H168819   3.476   5.341   5.429  1.9103 -1.4671 -1.3449
15776TIP3    H268820   3.535   5.446   5.338 -0.5263  1.5582  0.3613
15777TIP3   OH268821   4.852   2.392   2.443  0.6549  0.4692  0.4231
15777TIP3    H168822   4.766   2.367   2.409  1.1274  0.2801 -0.6799
15777TIP3    H268823   4.835   2.424   2.531 -0.2920 -1.4408  0.9659
15778TIP3   OH268824   5.250   6.518   5.386  0.2690  0.0769 -0.2637
15778TIP3    H168825   5.245   6.575   5.463 -0.5217  0.9422 -0.9326
15778TIP3    H268826   5.164   6.477   5.381  0.9772 -1.5630  0.4712
15779TIP3   OH268827   6.255   3.152  16.634 -0.0119  0.3121  0.2918
15779TIP3    H168828   6.299   3.233  16.659 -1.0748  0.3777  2.1026
15779TIP3    H268829   6.162   3.173  16.638 -0.2762 -0.6344 -0.5497
15780TIP3   OH268830   1.551   4.741   4.237  0.3475 -0.7881 -0.2093
15780TIP3    H168831   1.467   4.712   4.202 -0.2362 -2.2132  2.0972
15780TIP3    H268832   1.616   4.687   4.193  0.3117  1.2051 -2.9725
15781TIP3   OH268833   3.767   2.838  15.747  0.2484  0.3125  0.0143
15781TIP3    H168834   3.849   2.820  15.794  0.4261 -1.6216 -0.9495
15781TIP3    H268835   3.738   2.922  15.781  1.9775  0.4329  1.3125
15782TIP3   OH268836   0.596   0.276   5.043 -0.1367 -0.7774  0.3808
15782TIP3    H168837   0.621   0.184   5.038 -1.0210 -0.9987 -0.0622
15782TIP3    H268838   0.500   0.276   5.037 -0.2116  0.1028  1.3027
15783TIP3   OH268839   3.867   5.849  16.881 -0.6315  0.6602  0.2847
15783TIP3    H168840   3.862   5.934  16.925 -0.6427  1.4021 -1.0914
15783TIP3    H268841   3.893   5.870  16.791 -2.0391 -0.6457 -0.4748
15784TIP3   OH268842   5.699   4.021  15.289  0.1791 -0.3033  0.5428
15784TIP3    H168843   5.708   4.050  15.380  0.4039 -1.8711  1.0459
15784TIP3    H268844   5.777   4.057  15.245 -0.7133  1.8060  0.5488
15785TIP3   OH268845   4.064   4.551   1.766  0.1736  0.4345 -0.0232
15785TIP3    H168846   4.128   4.583   1.703 -2.0506  3.1070 -1.1220
15785TIP3    H268847   4.013   4.486   1.717 -0.1647  0.8895 -0.2768
15786TIP3   OH268848   2.862   3.714  16.351  0.7417 -0.0255  0.1462
15786TIP3    H168849   2.872   3.756  16.437  1.6167 -2.3349  1.2745
15786TIP3    H268850   2.846   3.786  16.290 -1.5881  1.6002  2.4613
15787TIP3   OH268851   3.919   3.683   2.481  0.6706 -0.1718 -0.3702
15787TIP3    H168852   3.931   3.733   2.400  0.4077  0.2642 -0.1448
15787TIP3    H268853   3.825   3.688   2.498  0.4587 -1.6439 -0.9171
15788TIP3   OH268854   2.173   5.123   0.618  0.0288 -0.1729 -1.1411
15788TIP3    H168855   2.266   5.117   0.598  0.1529 -0.1109 -0.5886
15788TIP3    H268856   2.136   5.172   0.544  0.5996  0.6816 -0.8780
15789TIP3   OH268857   3.340   2.825   4.428  0.3605 -0.1707  0.6064
15789TIP3    H168858   3.330   2.848   4.520  0.1657 -0.7797  0.7437
15789TIP3    H268859   3.427   2.786   4.421  0.0042 -1.0208  0.7358
15790TIP3   OH268860   4.066   4.903   0.309  0.3352  0.4000  0.2509
15790TIP3    H168861   4.005   4.840   0.271 -0.3866  2.0722 -1.5473
15790TIP3    H268862   4.144   4.898   0.253  0.5501  0.5994  0.5312
15791TIP3   OH268863   3.489   5.731   0.359  0.5981  0.4380 -0.1664
15791TIP3    H168864   3.573   5.775   0.345  0.8269 -0.1733 -0.7948
15791TIP3    H268865   3.445   5.783   0.425  0.2533  2.4364 -1.8806
15792TIP3   OH268866   0.484   4.031  11.632 -0.4632  0.1776 -0.1233
15792TIP3    H168867   0.462   4.112  11.679  1.6914  0.0536  1.2435
15792TIP3    H268868   0.436   3.963  11.678 -0.8952  0.4645 -0.1456
15793TIP3   OH268869   2.674   0.365  16.666  0.1915  0.2552 -0.6795
15793TIP3    H168870   2.651   0.404  16.750  2.3719  0.8838 -0.3379
15793TIP3    H268871   2.724   0.432  16.620  0.8200 -0.8212 -1.6281
15794TIP3   OH268872   6.527   0.439   4.417 -0.5673 -0.1610  0.0397
15794TIP3    H168873   6.587   0.366   4.433 -1.3336 -1.1115 -1.2289
15794TIP3    H268874   6.528   0.451   4.322 -1.8073  0.2935  0.0589
15795TIP3   OH268875   2.008   2.140  15.874  0.4674  0.3617 -0.0887
15795TIP3    H168876   2.033   2.210  15.814  3.0600  0.8021  1.3655
15795TIP3    H268877   2.045   2.166  15.958 -0.1634 -1.8337  0.9447
15796TIP3   OH268878   5.476   3.543   0.257 -0.4735  0.6415 -0.6712
15796TIP3    H168879   5.418   3.469   0.235  0.7967 -0.4016 -0.6067
15796TIP3    H268880   5.521   3.563   0.175 -0.4506  1.0260 -0.5642
15797TIP3   OH268881   3.775   1.328   1.125  0.0166 -0.4227 -0.4651
15797TIP3    H168882   3.699   1.273   1.144 -0.3146 -0.5826 -2.1101
15797TIP3    H268883   3.738   1.408   1.089  0.5004  0.9101  1.7706
15798TIP3   OH268884   5.554   2.822  15.185  0.1990 -0.7685  0.4426
15798TIP3    H168885   5.535   2.735  15.221  1.8038 -0.5897  1.8374
15798TIP3    H268886   5.567   2.877  15.262  1.1407  0.2560 -0.4244
15799TIP3   OH268887   3.000   1.089   5.296 -0.2504 -0.0557 -0.0003
15799TIP3    H168888   2.979   1.090   5.389  0.8161  0.6234  0.2493
15799TIP3    H268889   3.075   1.148   5.287 -1.3033  1.1508 -1.5227
15800TIP3   OH268890   4.340   5.408  13.780 -1.0031 -0.3177 -0.0658
15800TIP3    H168891   4.426   5.371  13.762 -0.7206  1.0601 -1.7926
15800TIP3    H268892   4.281   5.333  13.774 -0.0584 -1.0766 -0.0877
15801TIP3   OH268893   0.641   6.788   5.974 -0.0012  0.1513 -0.1378
15801TIP3    H168894   0.577   6.720   5.995 -1.5339  1.0818 -1.5436
15801TIP3    H268895   0.641   6.845   6.051 -0.7771  0.0630 -0.0631
15802TIP3   OH268896   3.052   1.826   4.717 -0.4447 -0.6432  0.2883
15802TIP3    H168897   3.045   1.922   4.722  0.0867 -0.5250 -0.8052
15802TIP3    H268898   3.145   1.808   4.728 -0.6882 -1.1508  1.7180
15803TIP3   OH268899   3.450   6.219  12.326 -0.0614 -1.1098 -0.3126
15803TIP3    H168900   3.407   6.277  12.264  1.3181  1.2466  0.8257
15803TIP3    H268901   3.405   6.233  12.409  0.8082 -1.0461  0.1585
15804TIP3   OH268902   1.904   1.281  16.816 -0.3847 -0.0360  0.2722
15804TIP3    H168903   1.868   1.331  16.743 -0.8858  0.1916  0.6648
15804TIP3    H268904   1.905   1.343  16.889  2.4162  0.5027 -0.1103
15805TIP3   OH268905   3.492   4.096  12.006 -0.5628  0.0413  0.0231
15805TIP3    H168906   3.510   4.188  12.027  0.7445  0.0190 -0.8680
15805TIP3    H268907   3.457   4.099  11.917  2.3343 -0.4754 -1.2684
15806TIP3   OH268908   4.242   0.338   2.856 -0.1834 -0.8830  0.1144
15806TIP3    H168909   4.217   0.429   2.840 -0.5354 -1.1103 -0.6652
15806TIP3    H268910   4.158   0.292   2.867 -0.0011 -0.7983  2.4562
15807TIP3   OH268911   5.297   3.421  11.667  0.6195  0.7526  0.0806
15807TIP3    H168912   5.307   3.451  11.577  2.5563  0.4800  0.1671
15807TIP3    H268913   5.348   3.340  11.672  0.2266  0.5502  1.3212
15808TIP3   OH268914   0.849   3.656   0.752 -0.0651  0.5397  0.3372
15808TIP3    H168915   0.916   3.626   0.690  0.0675  0.4740  0.5078
15808TIP3    H268916   0.897   3.667   0.834  0.2533  2.8554 -0.1023
15809TIP3   OH268917   1.931   0.392  14.137 -0.3382 -0.1001  0.6815
15809TIP3    H168918   1.981   0.407  14.057 -0.1929  0.9674  0.9461
15809TIP3    H268919   1.996   0.398  14.207 -0.6217 -0.0174  0.9404
15810TIP3   OH268920   2.841   6.423   1.130  0.5577 -0.2873  0.0641
15810TIP3    H168921   2.911   6.380   1.180 -1.0355  0.0180  2.7787
15810TIP3    H268922   2.778   6.451   1.197 -1.4576  0.7691 -2.1318
15811TIP3   OH268923   3.511   4.518  16.562 -0.7536 -0.6323 -0.1362
15811TIP3    H168924   3.553   4.442  16.522 -0.1119 -0.2368 -0.2303
15811TIP3    H268925   3.583   4.564  16.606 -0.5435  1.5019 -2.5086
15812TIP3   OH268926   1.011   0.880   3.902 -0.5504  0.8068  0.7299
15812TIP3    H168927   0.969   0.966   3.909 -0.6123  0.8409 -0.0508
15812TIP3    H268928   1.103   0.896   3.922 -0.4186  1.1908 -0.1481
15813TIP3   OH268929   1.840   5.651   2.076  0.0895 -0.4032 -0.0571
15813TIP3    H168930   1.882   5.729   2.038 -0.0817  0.0128  0.5957
15813TIP3    H268931   1.881   5.578   2.030  2.6176 -0.1048  1.5329
15814TIP3   OH268932   2.010   2.971   5.525 -0.0873 -0.9465  0.7369
15814TIP3    H168933   1.970   3.056   5.510 -0.0880 -0.9584  0.6704
15814TIP3    H268934   1.946   2.908   5.492  0.7103 -0.9104 -1.0104
15815TIP3   OH268935   1.859   2.154   5.670 -0.7010  0.3115 -0.1647
15815TIP3    H168936   1.944   2.130   5.708 -0.7301  1.2754  0.5462
15815TIP3    H268937   1.844   2.089   5.601  0.3950 -0.1465  0.0118
15816TIP3   OH268938   5.654   1.295   0.459 -0.3975 -0.1761 -0.3871
15816TIP3    H168939   5.618   1.349   0.389 -2.7013 -0.0592  0.7905
15816TIP3    H268940   5.660   1.354   0.535  0.2462 -0.7549  0.0246
15817TIP3   OH268941   4.837   5.316  13.330  0.3172  0.0787  0.0938
15817TIP3    H168942   4.751   5.329  13.371 -0.2845 -1.2785 -0.6494
15817TIP3    H268943   4.816   5.288  13.241  1.5765  2.4586 -1.0440
15818TIP3   OH268944   1.004   4.352   2.103  0.6494 -0.1667  0.1290
15818TIP3    H168945   0.949   4.342   2.181 -1.5220 -1.2880 -1.4338
15818TIP3    H268946   1.058   4.429   2.122 -2.0813  1.5845  1.4579
15819TIP3   OH268947   3.727   5.369   4.669 -0.0723 -0.6241 -0.2234
15819TIP3    H168948   3.736   5.463   4.658  1.2861 -0.7228 -0.0511
15819TIP3    H268949   3.660   5.359   4.736 -1.5210  0.1620 -1.4723
15820TIP3   OH268950   5.038   1.866  14.542 -0.1138  0.0880  0.2141
15820TIP3    H168951   5.071   1.945  14.498 -2.3702  2.2641  2.1325
15820TIP3    H268952   4.964   1.837  14.489  1.2295 -1.3702 -0.9644
15821TIP3   OH268953   2.054   4.233  12.119 -0.4588 -0.5502 -0.4748
15821TIP3    H168954   2.108   4.203  12.192 -0.8009  0.9947  0.4705
15821TIP3    H268955   2.101   4.203  12.040  0.7727 -0.8630  0.3467
15822TIP3   OH268956   4.997   6.269  17.138 -0.2805 -0.7315 -0.1269
15822TIP3    H168957   4.905   6.255  17.116 -0.1350 -0.4743 -0.9207
15822TIP3    H268958   4.997   6.352  17.186 -0.5437 -1.0726  0.4741
15823TIP3   OH268959   3.116   0.842   4.458 -0.0314 -0.5054  0.4146
15823TIP3    H168960   3.062   0.822   4.535  1.2840  0.4276  1.6352
15823TIP3    H268961   3.073   0.918   4.418  0.2555  0.1286  1.2812
15824TIP3   OH268962   3.853   5.869  15.302 -0.1885  0.1749 -0.1052
15824TIP3    H168963   3.788   5.926  15.343  0.2548  0.7249 -0.1563
15824TIP3    H268964   3.924   5.863  15.365 -0.3479 -0.5405  0.0095
15825TIP3   OH268965   6.749   5.198  15.460 -0.4214 -0.5990  0.3287
15825TIP3    H168966   6.685   5.173  15.526 -0.3069  0.8358  1.0039
15825TIP3    H268967   6.831   5.209  15.508  0.1583 -1.5527 -0.3926
15826TIP3   OH268968   3.504   4.321  16.048  0.0959 -0.1855 -0.1871
15826TIP3    H168969   3.418   4.292  16.081  0.3881 -0.2484  0.5433
15826TIP3    H268970   3.486   4.353  15.960 -0.6181 -0.5497 -0.1872
15827TIP3   OH268971   6.091   1.058   0.874  0.2545  0.4099 -0.0494
15827TIP3    H168972   6.096   0.975   0.827  0.0468  0.5342 -0.2951
15827TIP3    H268973   6.032   1.112   0.821  2.0425  1.4671 -1.0256
15828TIP3   OH268974   4.219   1.328  11.940 -0.4267  0.4646 -0.1717
15828TIP3    H168975   4.246   1.298  11.853 -0.6841 -2.2935  0.6217
15828TIP3    H268976   4.301   1.342  11.987 -0.2460 -1.6215  0.2231
15829TIP3   OH268977   2.578   3.716   6.004  0.1448 -0.3526 -0.3574
15829TIP3    H168978   2.660   3.689   5.964 -0.2317  1.4716 -2.5557
15829TIP3    H268979   2.605   3.780   6.070  0.5003  1.5607 -2.2446
15830TIP3   OH268980   4.788   5.421  14.921  0.4199 -0.0930 -0.1454
15830TIP3    H168981   4.795   5.403  14.827  0.0000 -0.0652 -0.1850
15830TIP3    H268982   4.825   5.509  14.932 -0.3516  0.2758 -0.4259
15831TIP3   OH268983   1.100   2.778   4.989  0.4105  0.0622  0.0634
15831TIP3    H168984   1.015   2.800   4.951  0.4838 -0.5710 -0.4849
15831TIP3    H268985   1.116   2.688   4.961  2.0681  0.7451 -1.3030
15832TIP3   OH268986   5.939   3.543  13.095 -0.6952 -0.5155  0.3982
15832TIP3    H168987   6.009   3.593  13.053 -2.0499  1.3877  0.2815
15832TIP3    H268988   5.959   3.549  13.188 -1.2563  0.9833  0.4508
15833TIP3   OH268989   2.228   6.426  16.296  0.4532 -0.1082  0.1773
15833TIP3    H168990   2.202   6.455  16.209 -0.6274 -0.6152  0.3079
15833TIP3    H268991   2.316   6.391  16.285  0.3648 -0.0677 -0.6872
15834TIP3   OH268992   0.375   1.334   5.489 -0.2265 -0.6312 -0.2534
15834TIP3    H168993   0.462   1.344   5.528 -0.8618  3.5676  0.6419
15834TIP3    H268994   0.317   1.322   5.564 -0.9351  2.6951 -0.1202
15835TIP3   OH268995   0.740   6.432  14.001 -0.3139 -0.5256 -0.2539
15835TIP3    H168996   0.766   6.367  14.066  1.1402 -3.1033 -3.1624
15835TIP3    H268997   0.796   6.508  14.018  3.4396 -2.8474 -1.1565
15836TIP3   OH268998   3.922   2.741  13.690 -0.4135 -0.5925  0.3485
15836TIP3    H168999   4.009   2.778  13.710  0.1042 -0.9218 -1.1384
15836TIP3    H269000   3.941   2.652  13.660 -1.0068  0.0061 -2.0163
15837TIP3   OH269001   6.268   0.145  11.731 -0.1146 -0.0150 -0.2043
15837TIP3    H169002   6.211   0.175  11.802  0.9430 -3.2775  2.2411
15837TIP3    H269003   6.208   0.123  11.660 -1.2146  3.2119 -0.4717
15838TIP3   OH269004   2.422   0.509  13.152  0.9788  0.4363  0.4953
15838TIP3    H169005   2.377   0.435  13.110  0.4826  0.5149  0.8750
15838TIP3    H269006   2.382   0.587  13.112  0.8782  0.5051  0.7272
15839TIP3   OH269007   4.616   3.157   0.267  0.0590 -0.2312 -0.2246
15839TIP3    H169008   4.575   3.070   0.271  1.6018 -0.9662  1.6076
15839TIP3    H269009   4.708   3.138   0.247  0.1004  1.1528 -1.5110
15840TIP3   OH269010   1.929   3.566  16.794 -0.1520 -1.0453  0.0540
15840TIP3    H169011   1.991   3.563  16.721 -0.0289 -0.3384  0.1215
15840TIP3    H269012   1.949   3.489  16.846  1.6822 -0.0484  0.8873
15841TIP3   OH269013   0.357   0.052  13.514 -0.5646 -0.2341  0.5908
15841TIP3    H169014   0.403   0.117  13.462 -1.5547 -0.0848 -0.1299
15841TIP3    H269015   0.426   0.003  13.559  0.3980 -0.9520 -1.5553
15842TIP3   OH269016   5.219   0.711  13.978  0.3095  0.6396  0.1085
15842TIP3    H169017   5.266   0.766  14.040 -0.3040  2.2169 -0.7642
15842TIP3    H269018   5.280   0.640  13.959  1.8172  1.8809  0.0433
15843TIP3   OH269019   2.649   1.795  15.813 -0.3754  0.6766 -0.0674
15843TIP3    H169020   2.627   1.832  15.727 -0.3570  0.9024  0.0230
15843TIP3    H269021   2.729   1.744  15.798  1.1691  2.8485  0.3150
15844TIP3   OH269022   2.654   6.738  11.850 -0.8628 -0.8906 -0.1208
15844TIP3    H169023   2.698   6.807  11.899 -1.9499 -1.9170  2.4850
15844TIP3    H269024   2.721   6.671  11.838 -0.4351 -0.3930 -0.5709
15845TIP3   OH269025   2.786   5.296  11.324  0.0619  0.6766  0.1793
15845TIP3    H169026   2.850   5.243  11.276 -0.4769  1.4202 -1.4366
15845TIP3    H269027   2.794   5.267  11.414  0.8589 -1.0688 -0.4051
15846TIP3   OH269028   6.398   3.089  13.094  0.2502 -0.2755  0.3700
15846TIP3    H169029   6.319   3.134  13.065  0.4090 -1.1449 -1.5585
15846TIP3    H269030   6.466   3.117  13.033  0.8999 -1.2936  0.5922
15847TIP3   OH269031   1.163   3.702   0.297 -0.3557  0.0369 -0.2371
15847TIP3    H169032   1.210   3.780   0.268  0.4184  0.1796  1.3187
15847TIP3    H269033   1.171   3.641   0.223  0.2183  0.9254 -0.9275
15848TIP3   OH269034   1.996   1.669   5.005 -0.1896  0.2705 -0.1014
15848TIP3    H169035   2.049   1.641   4.931 -0.6854 -0.2112 -0.2792
15848TIP3    H269036   1.977   1.761   4.987 -0.7693  0.0123 -0.8637
15849TIP3   OH269037   0.205   0.436   3.478  0.4896  0.1210  0.1856
15849TIP3    H169038   0.118   0.455   3.512 -0.1058  1.4260 -1.8530
15849TIP3    H269039   0.265   0.486   3.533 -0.1420  0.1317  0.8789
15850TIP3   OH269040   6.757   1.566  12.131  0.4331  0.3004  0.0038
15850TIP3    H169041   6.695   1.634  12.104  2.8116  1.8403 -2.1403
15850TIP3    H269042   6.823   1.613  12.182  1.0567 -0.7898  0.2261
15851TIP3   OH269043   1.269   4.774  11.057  0.1850 -0.1477  0.2808
15851TIP3    H169044   1.201   4.831  11.091 -1.7117 -1.7724 -0.6271
15851TIP3    H269045   1.348   4.828  11.059 -0.7663  1.3423  2.7217
15852TIP3   OH269046   6.621   5.084  13.652  0.5632  0.0052  0.5809
15852TIP3    H169047   6.591   5.143  13.583  2.2630  1.8813  1.3453
15852TIP3    H269048   6.548   5.023  13.665  0.1296 -0.3282 -2.6831
15853TIP3   OH269049   6.323   5.789   0.844 -0.1566 -0.3050  0.9442
15853TIP3    H169050   6.235   5.764   0.872 -0.4689  0.0801  0.3177
15853TIP3    H269051   6.333   5.751   0.757 -0.7216  1.8512 -0.1363
15854TIP3   OH269052   5.268   3.094  16.858  0.0043  0.2299  0.7866
15854TIP3    H169053   5.312   3.155  16.917  1.8896 -0.7052  0.3909
15854TIP3    H269054   5.334   3.030  16.834 -1.2680 -0.6011 -0.7440
15855TIP3   OH269055   6.682   2.457  13.785  0.2636 -0.1426  0.8694
15855TIP3    H169056   6.742   2.507  13.840  0.0755 -0.0038  0.9485
15855TIP3    H269057   6.738   2.391  13.742  0.3257 -0.5910  1.6242
15856TIP3   OH269058   1.435   1.802  14.328  0.2021  0.3526 -0.0361
15856TIP3    H169059   1.360   1.742  14.326 -0.0222  0.6316 -0.0965
15856TIP3    H269060   1.469   1.796  14.417  0.5564 -0.3199 -0.2051
15857TIP3   OH269061   4.175   5.570  11.494  0.1323 -0.2900 -0.1671
15857TIP3    H169062   4.152   5.480  11.519  0.9896 -0.3337  0.4867
15857TIP3    H269063   4.107   5.594  11.431 -0.8197 -0.9588  0.5584
15858TIP3   OH269064   0.373   4.802  16.902 -0.1919 -0.2144  0.0726
15858TIP3    H169065   0.373   4.707  16.896 -1.5563 -0.2029 -0.7578
15858TIP3    H269066   0.325   4.831  16.824  1.0818  1.2129 -0.2388
15859TIP3   OH269067   5.843   6.799  14.862 -0.4791 -0.2844  0.0612
15859TIP3    H169068   5.806   6.845  14.787 -0.0141 -0.1629 -0.0943
15859TIP3    H269069   5.852   6.708  14.833  0.9784  0.0149 -0.5170
15860TIP3   OH269070   3.776   2.166   0.041  0.7038 -0.2752  0.1402
15860TIP3    H169071   3.822   2.129  -0.034  1.2313 -1.2313  0.9024
15860TIP3    H269072   3.800   2.258   0.041  3.0924 -0.8378  0.8124
15861TIP3   OH269073   0.983   5.962   5.822 -0.0658 -0.1686 -0.3010
15861TIP3    H169074   0.945   6.047   5.801 -2.0311 -1.2090 -1.1671
15861TIP3    H269075   0.971   5.953   5.917  0.7154  0.7349 -0.0941
15862TIP3   OH269076   2.316   5.821  16.434 -0.0223  0.9124 -0.5108
15862TIP3    H169077   2.308   5.765  16.512  1.1438  1.0775 -0.2430
15862TIP3    H269078   2.272   5.902  16.458 -0.2865  0.7059 -0.2871
15863TIP3   OH269079   4.878   5.701  15.277 -0.0971 -0.0543  0.2510
15863TIP3    H169080   4.848   5.698  15.368 -1.1286 -0.4587 -0.0961
15863TIP3    H269081   4.824   5.768  15.236  0.0595 -0.1885 -0.1774
15864TIP3   OH269082   5.481   5.353  16.614 -0.2155  0.3135  0.1940
15864TIP3    H169083   5.387   5.370  16.622 -0.6038 -1.1260 -0.9896
15864TIP3    H269084   5.491   5.315  16.527  1.6432  1.5181 -0.1654
15865TIP3   OH269085   2.045   0.576   4.612  0.1977 -0.0934  0.1903
15865TIP3    H169086   2.058   0.571   4.518  1.1745 -0.9053  0.3478
15865TIP3    H269087   1.963   0.528   4.627 -2.0303  3.1244 -0.5710
15866TIP3   OH269088   2.007   3.001  17.271  0.0877  0.6005 -0.3144
15866TIP3    H169089   1.915   3.010  17.297  0.4021  0.1191  1.0419
15866TIP3    H269090   2.006   2.937  17.200 -0.5771  0.2901 -0.0323
15867TIP3   OH269091   6.720   3.146   4.172  0.1881  0.3074 -0.1447
15867TIP3    H169092   6.628   3.118   4.166  0.3891 -1.0997  2.0878
15867TIP3    H269093   6.718   3.222   4.230  0.3566  0.7294 -0.6934
15868TIP3   OH269094   5.509   4.286   5.614 -0.3258  0.2607 -0.3626
15868TIP3    H169095   5.572   4.213   5.613 -1.7592 -1.0167 -0.3249
15868TIP3    H269096   5.487   4.300   5.522 -1.2190 -0.4264 -0.2676
15869TIP3   OH269097   5.357   5.281   0.893  0.4100  0.0226 -0.4024
15869TIP3    H169098   5.298   5.341   0.938  0.1773  0.4603 -1.2722
15869TIP3    H269099   5.301   5.233   0.832  0.6628 -0.7956 -0.0159
15870TIP3   OH269100   0.317   5.150   6.662 -0.0932 -0.0507  0.4220
15870TIP3    H169101   0.371   5.072   6.675 -0.2876  0.0172  1.6769
15870TIP3    H269102   0.288   5.175   6.749 -1.8098  0.1646 -0.1674
15871TIP3   OH269103   2.582   2.486   1.139  0.0035 -0.1128 -0.1226
15871TIP3    H169104   2.556   2.411   1.085  0.7497 -0.2622 -0.2993
15871TIP3    H269105   2.676   2.473   1.153 -0.1767 -0.0977  1.2502
15872TIP3   OH269106   4.376   4.973   1.103  0.3030 -0.3482  0.1621
15872TIP3    H169107   4.401   4.953   1.193 -1.8605 -1.0956  0.6677
15872TIP3    H269108   4.337   4.892   1.070  0.5175  0.0896 -1.2521
15873TIP3   OH269109   6.805   4.464   1.406 -0.0865 -0.6731 -1.0636
15873TIP3    H169110   6.891   4.480   1.367  0.0957 -1.1704 -0.8727
15873TIP3    H269111   6.748   4.447   1.331 -0.3643  1.1372 -1.3011
15874TIP3   OH269112   2.621   5.797   0.715  0.2751 -0.1780 -0.3719
15874TIP3    H169113   2.573   5.811   0.633 -2.8372 -0.1783  1.3062
15874TIP3    H269114   2.657   5.709   0.707 -0.6171 -0.4630 -1.4659
15875TIP3   OH269115   3.541   5.002   3.915 -0.0996  0.0516 -0.1034
15875TIP3    H169116   3.565   5.052   3.993 -0.4613  0.7085 -0.4147
15875TIP3    H269117   3.523   4.914   3.949 -0.5458  0.4022  0.5966
15876TIP3   OH269118   5.937   3.494  13.443  0.2636  0.4694  0.0831
15876TIP3    H169119   5.937   3.588  13.426  1.1607  0.4800  0.0429
15876TIP3    H269120   5.895   3.484  13.528  0.7970  0.9820  0.4143
15877TIP3   OH269121   5.303   2.025  16.185 -0.0466 -0.3045  0.6814
15877TIP3    H169122   5.301   1.932  16.163 -1.5478 -0.0427 -0.4160
15877TIP3    H269123   5.383   2.058  16.145  0.5263 -1.1179  1.1384
15878TIP3   OH269124   1.992   5.080  14.237  0.5157  0.1914  0.1566
15878TIP3    H169125   1.913   5.034  14.265  0.7520 -0.4646 -0.2248
15878TIP3    H269126   2.050   5.077  14.313  0.9578 -1.1378 -0.2050
15879TIP3   OH269127   1.040   5.625  13.332 -0.5114 -0.0476 -0.3177
15879TIP3    H169128   0.949   5.647  13.350  0.1391  2.3681  0.2850
15879TIP3    H269129   1.048   5.634  13.237 -0.5759  1.1274 -0.2198
15880TIP3   OH269130   2.531   2.592   4.725 -0.0961 -0.4808  0.4436
15880TIP3    H169131   2.440   2.561   4.725  0.1507 -1.2468  0.7868
15880TIP3    H269132   2.550   2.609   4.818  0.3629 -1.1274  0.4775
15881TIP3   OH269133   4.053   0.954  12.828 -0.0550  0.4952 -0.2411
15881TIP3    H169134   4.075   0.972  12.919  2.1567  0.3048 -0.6820
15881TIP3    H269135   3.997   0.877  12.832  0.0624  0.4520  0.9580
15882TIP3   OH269136   6.681   0.328  14.752  0.4517  0.6927  0.0166
15882TIP3    H169137   6.638   0.248  14.783 -0.2768  0.1292 -2.2539
15882TIP3    H269138   6.772   0.318  14.778  0.9168 -2.0496 -2.1740
15883TIP3   OH269139   0.146   3.442  13.950 -0.0427 -0.3773 -0.0886
15883TIP3    H169140   0.151   3.356  13.908  0.8796 -0.8160  0.8897
15883TIP3    H269141   0.233   3.480  13.938  0.6599 -1.0128  2.3937
15884TIP3   OH269142   3.219   1.600  14.101 -0.5719 -0.2494  0.0439
15884TIP3    H169143   3.127   1.605  14.129  0.0221 -1.2079  2.3911
15884TIP3    H269144   3.216   1.558  14.015 -2.2221 -1.9705  0.8895
15885TIP3   OH269145   4.168   6.060  12.041 -0.5411 -0.1539 -0.7226
15885TIP3    H169146   4.220   5.988  12.006 -1.9990 -1.6879  0.1624
15885TIP3    H269147   4.195   6.067  12.132 -3.1674 -2.3200  0.3416
15886TIP3   OH269148   5.966   5.874   0.085 -0.0045  0.4814  0.1323
15886TIP3    H169149   5.955   5.875  -0.010  0.4835 -0.3656  0.0561
15886TIP3    H269150   6.061   5.874   0.098 -0.0640  0.9866  0.6372
15887TIP3   OH269151   6.593   3.355  11.990 -0.4509 -0.5475  0.6783
15887TIP3    H169152   6.549   3.408  11.923 -1.0212 -2.5602 -0.6070
15887TIP3    H269153   6.557   3.387  12.072 -1.7468  0.1812 -0.1347
15888TIP3   OH269154   2.404   2.744  12.151 -0.6612  0.1980 -0.4319
15888TIP3    H169155   2.326   2.747  12.206 -0.5510  0.0691 -0.2684
15888TIP3    H269156   2.369   2.735  12.062 -0.8361  0.2818 -0.3733
15889TIP3   OH269157   0.396   2.215   5.054 -0.1538 -0.4066 -0.0761
15889TIP3    H169158   0.436   2.239   5.138 -0.4097  1.1464 -0.3665
15889TIP3    H269159   0.321   2.161   5.078  0.7842 -1.4722  0.5842
15890TIP3   OH269160   4.132   4.056   5.450  0.4428 -0.1713  0.1141
15890TIP3    H169161   4.174   4.141   5.444 -0.3174  0.1712 -0.5236
15890TIP3    H269162   4.146   4.016   5.364 -1.3185  0.3451 -0.4537
15891TIP3   OH269163   6.482   3.066   1.316 -0.1427  0.2829  0.0478
15891TIP3    H169164   6.503   3.106   1.232 -0.8302  0.7694  0.0973
15891TIP3    H269165   6.493   2.972   1.302 -1.4728  0.2616 -0.9426
15892TIP3   OH269166   1.663   5.031   3.978  0.1514 -0.1567  0.3402
15892TIP3    H169167   1.745   4.982   3.970 -0.1386 -0.8123  1.2299
15892TIP3    H269168   1.660   5.058   4.070  1.0168  2.8552 -0.4001
15893TIP3   OH269169   3.407   4.476   1.920  0.0692  0.1498  0.1844
15893TIP3    H169170   3.397   4.557   1.971  1.6523  0.2506  0.3660
15893TIP3    H269171   3.361   4.494   1.838 -0.8088  0.7062  0.7801
15894TIP3   OH269172   4.783   3.751  12.485  0.2844  0.3651  0.0288
15894TIP3    H169173   4.817   3.840  12.487 -1.2341  1.1237 -2.6212
15894TIP3    H269174   4.697   3.757  12.528  0.7053 -0.1229  0.9643
15895TIP3   OH269175   5.810   3.146   2.476 -0.2257  0.0938 -0.1112
15895TIP3    H169176   5.754   3.209   2.521 -0.1508 -0.3116  0.5611
15895TIP3    H269177   5.811   3.070   2.533  1.4342  0.2821  0.1643
15896TIP3   OH269178   6.253   1.161  13.217 -0.6370  0.2027 -0.5262
15896TIP3    H169179   6.284   1.182  13.305  2.0739 -2.0595 -0.7802
15896TIP3    H269180   6.168   1.121  13.230 -0.4553  0.2793  1.0440
15897TIP3   OH269181   1.209   0.779   5.549  0.1297 -0.7096  0.3323
15897TIP3    H169182   1.175   0.690   5.555  0.0539 -0.6374  1.0855
15897TIP3    H269183   1.227   0.792   5.456  3.1110 -2.6252  0.5230
15898TIP3   OH269184   1.184   3.406   4.436  0.5336  0.1757  0.0513
15898TIP3    H169185   1.206   3.439   4.349  0.5496 -0.0214 -0.0199
15898TIP3    H269186   1.161   3.314   4.422 -0.8434  0.5026  0.0463
15899TIP3   OH269187   6.421   2.878  10.940 -0.2349  0.0140  0.4528
15899TIP3    H169188   6.389   2.880  11.030  0.4890  1.1963  0.7112
15899TIP3    H269189   6.402   2.790  10.909 -1.5235 -0.0583  1.3797
15900TIP3   OH269190   6.197   6.086  16.431  0.6901 -0.2653 -0.0882
15900TIP3    H169191   6.226   6.064  16.342  0.8135 -0.9142  0.1017
15900TIP3    H269192   6.107   6.054  16.436  1.3814 -2.2756  0.6943
15901TIP3   OH269193   0.726   0.032   1.791  0.2871 -0.1421  0.4223
15901TIP3    H169194   0.670   0.052   1.717  0.1352  1.6847  0.9974
15901TIP3    H269195   0.702  -0.058   1.815 -1.6857  0.2362  0.0469
15902TIP3   OH269196   2.758   0.302  13.567  0.0700  0.5889 -0.1116
15902TIP3    H169197   2.768   0.382  13.619  1.7262  0.8595 -0.7755
15902TIP3    H269198   2.769   0.331  13.477  1.6866 -0.5029 -0.3124
15903TIP3   OH269199   2.806   4.262  13.194  0.0899  0.2789  0.3929
15903TIP3    H169200   2.855   4.197  13.245  0.6745  1.3732  1.2918
15903TIP3    H269201   2.716   4.255  13.227  0.4455  0.9241  1.5839
15904TIP3   OH269202   3.076   4.609   7.146 -0.4821 -0.3167  0.2377
15904TIP3    H169203   3.139   4.652   7.089 -1.0707 -1.1536 -1.0692
15904TIP3    H269204   3.098   4.517   7.142 -0.8537 -0.4538  0.9816
15905TIP3   OH269205   3.703   5.776  12.204 -0.0521 -0.9557  0.0335
15905TIP3    H169206   3.693   5.733  12.119 -0.5083 -0.4542 -0.1754
15905TIP3    H269207   3.784   5.826  12.196  0.2162 -1.3818  0.1017
15906TIP3   OH269208   6.720   3.268  14.961  0.1007 -0.3160 -0.1129
15906TIP3    H169209   6.698   3.289  15.051 -0.6472 -0.2125 -0.3129
15906TIP3    H269210   6.812   3.241  14.964  0.2114  0.1248  0.6035
15907TIP3   OH269211   1.939   1.868   3.853  0.1055 -0.2594  0.7632
15907TIP3    H169212   1.999   1.846   3.924  1.8605 -1.8126 -1.0925
15907TIP3    H269213   1.906   1.784   3.823  1.4489  0.0734 -1.9244
15908TIP3   OH269214   4.788   1.775  14.436  0.1021  0.2808  0.0794
15908TIP3    H169215   4.714   1.789  14.378 -1.0661 -1.5111  1.0414
15908TIP3    H269216   4.823   1.690  14.410  1.0752  0.5541  0.4396
15909TIP3   OH269217   2.915   4.724  15.818  0.1134  0.3649  0.0376
15909TIP3    H169218   2.875   4.780  15.751 -1.1646  0.7753  1.1021
15909TIP3    H269219   2.981   4.779  15.859  1.4825 -0.1463 -1.3783
15910TIP3   OH269220   1.328   5.295  12.709 -0.5418  0.0071  0.6341
15910TIP3    H169221   1.300   5.233  12.641  1.1938  0.4880 -0.5998
15910TIP3    H269222   1.254   5.354  12.721 -0.9741 -0.2472 -0.6708
15911TIP3   OH269223   4.312   4.269   0.142  0.4663  0.3148 -0.1513
15911TIP3    H169224   4.385   4.263   0.204  0.2056 -0.1048  0.1216
15911TIP3    H269225   4.344   4.224   0.064  0.4239 -0.0638  0.0467
15912TIP3   OH269226   4.678   4.977  14.079 -0.3969  0.0681 -0.4910
15912TIP3    H169227   4.670   4.883  14.061  2.9466 -0.8250  1.6672
15912TIP3    H269228   4.744   5.007  14.017 -0.4685  0.6452 -0.2890
15913TIP3   OH269229   2.045   2.751  16.394  0.3053 -0.3302 -0.2400
15913TIP3    H169230   2.111   2.812  16.426  0.4497  0.0818 -1.2887
15913TIP3    H269231   2.058   2.749  16.299 -1.8094  0.5485 -0.6185
15914TIP3   OH269232   3.408   0.658   2.022 -0.2707 -0.0787  0.2032
15914TIP3    H169233   3.500   0.639   2.003 -0.3252  0.5651 -0.7772
15914TIP3    H269234   3.411   0.738   2.075 -0.2631 -0.2051  0.3971
15915TIP3   OH269235   4.209   2.950  14.713  0.4784 -0.3148  0.3358
15915TIP3    H169236   4.130   2.976  14.760 -0.0120 -0.3101 -0.4803
15915TIP3    H269237   4.278   3.006  14.750  0.3338 -1.0366  1.7912
15916TIP3   OH269238   4.277   3.125  13.608  0.0475  0.3364 -0.0827
15916TIP3    H169239   4.351   3.156  13.555 -0.8345  2.2466 -0.2826
15916TIP3    H269240   4.200   3.148  13.556 -0.8615  2.4562  2.0685
15917TIP3   OH269241   4.140   4.938   4.731  0.4238 -0.1959  0.2128
15917TIP3    H169242   4.216   4.914   4.784  0.4113 -0.0483  0.2985
15917TIP3    H269243   4.080   4.865   4.741  1.5026 -1.4212 -1.7420
15918TIP3   OH269244   0.513   0.293  11.532  0.0680  0.6355 -1.2014
15918TIP3    H169245   0.506   0.283  11.627 -2.0613  1.6530 -1.2006
15918TIP3    H269246   0.573   0.366  11.520  0.0984  0.7087 -0.6171
15919TIP3   OH269247   1.592   0.577  17.064  0.1265 -0.0334  0.3060
15919TIP3    H169248   1.570   0.489  17.034  0.5807 -0.2984  0.7446
15919TIP3    H269249   1.631   0.619  16.987 -1.0895  0.1597 -0.2358
15920TIP3   OH269250   0.746   1.791  13.848  0.6749 -0.6892  0.3558
15920TIP3    H169251   0.743   1.696  13.855 -1.2206 -0.6951  0.0306
15920TIP3    H269252   0.731   1.822  13.937 -0.0124 -0.7229  0.2615
15921TIP3   OH269253   1.446   6.536  15.044 -0.3914 -0.3432  0.4731
15921TIP3    H169254   1.371   6.586  15.074 -0.9084 -1.0974  0.4652
15921TIP3    H269255   1.413   6.486  14.969  0.1500 -0.5874  0.3929
15922TIP3   OH269256   0.068   5.990  14.642 -0.5015 -0.6519  0.6135
15922TIP3    H169257  -0.009   6.039  14.611 -0.3755 -1.2484 -0.7095
15922TIP3    H269258   0.034   5.904  14.665 -0.4527 -0.4653  1.4201
15923TIP3   OH269259   1.250   3.554  14.794  0.0176  0.3798  0.1534
15923TIP3    H169260   1.209   3.527  14.711  0.7279  0.4052 -0.2103
15923TIP3    H269261   1.241   3.649  14.795  0.6920  0.4544 -0.2690
15924TIP3   OH269262   3.950   2.343   2.803 -0.4874 -0.0647 -0.0883
15924TIP3    H169263   3.918   2.289   2.875  1.4003 -0.8006  0.2726
15924TIP3    H269264   3.908   2.308   2.725  0.4627 -1.9292  0.1743
15925TIP3   OH269265   1.902   3.561  13.448 -0.1991  0.3119 -0.2239
15925TIP3    H169266   1.885   3.477  13.405 -0.5379  1.3103 -2.1814
15925TIP3    H269267   1.976   3.597  13.400  0.8820  0.5374  1.5322
15926TIP3   OH269268   5.302   0.013   4.905  0.2183  0.3942 -0.2810
15926TIP3    H169269   5.318   0.107   4.901 -0.0290  0.3978 -1.7473
15926TIP3    H269270   5.208   0.005   4.920  0.4186  0.3607  1.0827
15927TIP3   OH269271   6.217   1.826   6.391 -0.3352  0.2706 -0.1994
15927TIP3    H169272   6.133   1.842   6.350 -0.6559  1.5381  0.8529
15927TIP3    H269273   6.206   1.743   6.439 -0.2341 -0.7372 -1.8633
15928TIP3   OH269274   3.103   3.745   5.024  0.0551  0.0496 -0.1578
15928TIP3    H169275   3.024   3.710   5.065  0.8845 -2.2968 -0.3771
15928TIP3    H269276   3.072   3.816   4.968 -1.5788  0.7084  1.4836
15929TIP3   OH269277   1.386   5.306   2.658 -0.0044  0.0568 -0.1609
15929TIP3    H169278   1.398   5.341   2.746 -1.0595 -1.5800  0.6840
15929TIP3    H269279   1.340   5.375   2.611  0.3441  0.8532  0.6197
15930TIP3   OH269280   3.198   6.292  15.848  0.2697  0.5757 -0.4115
15930TIP3    H169281   3.104   6.306  15.835 -0.5195 -0.7576  2.7108
15930TIP3    H269282   3.213   6.203  15.818 -0.0866 -0.1019  1.2970
15931TIP3   OH269283   0.192   4.137   5.460 -0.5604 -0.6479 -0.1961
15931TIP3    H169284   0.173   4.087   5.381 -1.5931  1.2896 -1.2450
15931TIP3    H269285   0.220   4.071   5.524 -0.4647 -2.3601 -1.9083
15932TIP3   OH269286   2.391   4.189  12.877  0.1627  0.0565 -0.4244
15932TIP3    H169287   2.325   4.191  12.807  0.0076  2.6001 -0.2777
15932TIP3    H269288   2.463   4.243  12.844  0.5883  0.3489  0.9260
15933TIP3   OH269289   5.129   2.622  14.284 -0.5770 -0.3684 -0.6902
15933TIP3    H169290   5.136   2.710  14.321 -0.7983 -0.6085 -0.0603
15933TIP3    H269291   5.054   2.627  14.224 -0.7153 -0.1807 -0.5013
15934TIP3   OH269292   2.078   3.304  13.030 -0.2017  0.3779 -0.7862
15934TIP3    H169293   1.984   3.315  13.019 -0.6000 -2.7338 -1.4671
15934TIP3    H269294   2.111   3.293  12.941  0.8577  1.5231 -0.5590
15935TIP3   OH269295   2.937   6.422   0.491  0.0855  0.2233  0.2607
15935TIP3    H169296   2.968   6.504   0.452  2.1658  0.6134  2.4475
15935TIP3    H269297   2.936   6.440   0.585 -1.2818 -1.7085  0.6832
15936TIP3   OH269298   1.673   5.420  15.443 -0.2388  0.3626  0.1649
15936TIP3    H169299   1.628   5.467  15.372  0.1914 -0.2227 -0.5064
15936TIP3    H269300   1.602   5.384  15.496 -0.5714  1.2922  0.3769
15937TIP3   OH269301   4.737   6.613  14.623  0.6292  0.2830 -0.5065
15937TIP3    H169302   4.768   6.643  14.538 -1.6974  1.2815 -1.0744
15937TIP3    H269303   4.695   6.529  14.605 -0.7531  0.9540 -0.6021
15938TIP3   OH269304   2.223   0.688   4.261 -0.2755 -0.2342 -0.0811
15938TIP3    H169305   2.133   0.667   4.283  0.0082 -1.6652 -0.1959
15938TIP3    H269306   2.239   0.643   4.178 -0.3835  2.5716 -1.7838
15939TIP3   OH269307   0.230   3.201  11.653  0.6553 -0.4495  0.2001
15939TIP3    H169308   0.290   3.274  11.635  2.4799 -1.6648  1.0160
15939TIP3    H269309   0.161   3.239  11.707  0.0152  1.2445 -1.6890
15940TIP3   OH269310   4.256   4.197   0.477 -0.0107 -0.3668 -0.0327
15940TIP3    H169311   4.222   4.285   0.493  0.5763 -0.2647  0.7676
15940TIP3    H269312   4.180   4.140   0.487 -0.6354  0.1216 -1.6783
15941TIP3   OH269313   1.670   0.436  14.226 -0.1087 -0.2684  0.7319
15941TIP3    H169314   1.657   0.504  14.160 -0.1506  0.1193  1.1413
15941TIP3    H269315   1.762   0.411  14.217  0.7457  1.8990  2.5243
15942TIP3   OH269316   3.105   1.916  11.434  0.4416 -0.2431 -0.3089
15942TIP3    H169317   3.163   1.977  11.390 -1.0926  1.5181 -0.0168
15942TIP3    H269318   3.026   1.915  11.379 -0.4777 -0.0514  0.9697
15943TIP3   OH269319   0.796   6.289  12.717  0.0545 -0.2288 -0.0803
15943TIP3    H169320   0.861   6.333  12.772 -0.3416 -0.4805  0.6007
15943TIP3    H269321   0.773   6.354  12.651  0.9477 -0.1137 -0.2878
15944TIP3   OH269322   0.652   2.535  15.809  0.5839 -0.1107 -0.1770
15944TIP3    H169323   0.714   2.605  15.788  0.7590 -0.6199 -1.4690
15944TIP3    H269324   0.568   2.579  15.820  0.7809  0.3545 -0.5267
15945TIP3   OH269325   3.799   6.808   0.746 -0.5699  0.5776 -0.0716
15945TIP3    H169326   3.816   6.714   0.745 -0.2438  0.6370 -0.0718
15945TIP3    H269327   3.736   6.821   0.818 -0.1041  0.4492  0.3621
15946TIP3   OH269328   3.906   1.485  12.182 -0.2837 -0.0046 -0.4301
15946TIP3    H169329   3.873   1.552  12.242  1.0742 -0.8140  1.3135
15946TIP3    H269330   3.999   1.506  12.172 -0.1928 -0.7077 -1.1464
15947TIP3   OH269331   1.530   5.404   0.079 -0.6309 -0.3267  0.1547
15947TIP3    H169332   1.518   5.415   0.173 -2.5071 -0.5191 -0.0097
15947TIP3    H269333   1.457   5.453   0.040  1.0548  1.2010 -1.2996
15948TIP3   OH269334   1.459   4.184   1.942  0.5777 -0.6294 -1.1941
15948TIP3    H169335   1.393   4.128   1.900  0.7185 -0.4203 -1.7088
15948TIP3    H269336   1.462   4.262   1.887  2.1870 -1.1885 -1.9834
15949TIP3   OH269337   6.141   1.768  15.329  0.7150  0.6369 -0.5819
15949TIP3    H169338   6.234   1.779  15.346  0.2163  2.2690  1.6254
15949TIP3    H269339   6.127   1.674  15.327  2.5120  0.3489 -1.8907
15950TIP3   OH269340   3.368   1.583  14.368 -0.0710  0.2838  0.2446
15950TIP3    H169341   3.349   1.612  14.278  0.5734  2.0784  0.6629
15950TIP3    H269342   3.341   1.491  14.369  1.0142 -0.1396 -2.1389
15951TIP3   OH269343   4.912   0.387  12.459  0.3278  0.4142  0.7691
15951TIP3    H169344   4.966   0.309  12.472  0.8961  0.9669  1.8279
15951TIP3    H269345   4.916   0.433  12.543 -1.8050  0.4669  0.8771
15952TIP3   OH269346   1.999   1.370   5.190 -0.3153 -0.0634 -0.1963
15952TIP3    H169347   1.916   1.390   5.233 -0.7964  0.0343 -1.1373
15952TIP3    H269348   2.065   1.415   5.243 -0.9371  0.4412  0.1622
15953TIP3   OH269349   5.668   5.248  13.470  0.3309  0.6417 -0.2918
15953TIP3    H169350   5.600   5.267  13.534  0.3521  1.3038 -0.4608
15953TIP3    H269351   5.625   5.194  13.404  0.0708  0.7474 -0.2065
15954TIP3   OH269352   5.158   2.019   5.926 -0.2123  0.5727  0.9513
15954TIP3    H169353   5.227   2.060   5.978  1.2739  2.2054 -2.0667
15954TIP3    H269354   5.094   2.089   5.912 -0.5522  0.1822  0.5344
15955TIP3   OH269355   3.222   5.714   5.066  0.0451  0.1018  0.1786
15955TIP3    H169356   3.168   5.790   5.088  0.4660  0.0324  1.5064
15955TIP3    H269357   3.163   5.639   5.076 -0.2812  0.2120 -0.8183
15956TIP3   OH269358   5.985   4.621   5.619 -0.6452  0.0901  0.2459
15956TIP3    H169359   5.973   4.663   5.704  0.2923 -0.8462  0.8731
15956TIP3    H269360   5.926   4.546   5.620 -1.2342  0.5383 -0.2712
15957TIP3   OH269361   5.760   3.395  14.223 -0.3233 -0.3607  0.4034
15957TIP3    H169362   5.670   3.427  14.212 -0.3663  0.0007  1.5809
15957TIP3    H269363   5.814   3.460  14.179 -0.6356 -0.5625 -0.2856
15958TIP3   OH269364   5.974   3.132  16.622 -0.2108 -0.0760 -0.2378
15958TIP3    H169365   5.885   3.109  16.648  0.2346 -1.6527 -0.0148
15958TIP3    H269366   6.009   3.052  16.584  0.9418  0.6814 -0.8296
15959TIP3   OH269367   1.789   3.208   6.791 -0.4803 -0.2599  0.1170
15959TIP3    H169368   1.754   3.269   6.855  0.0099 -0.5738  0.6990
15959TIP3    H269369   1.882   3.231   6.785 -0.2618 -1.0219  0.4432
15960TIP3   OH269370   2.471   5.977   5.256 -0.4093  0.5081 -0.5835
15960TIP3    H169371   2.460   6.065   5.220  1.8830  0.3125 -1.9695
15960TIP3    H269372   2.507   5.926   5.184  1.3230 -0.7581  1.0840
15961TIP3   OH269373   3.755   6.361  13.941  0.3129 -0.6064  0.1994
15961TIP3    H169374   3.836   6.378  13.989  0.7590  0.2941 -0.8368
15961TIP3    H269375   3.709   6.445  13.943  0.0631 -0.7242 -0.4214
15962TIP3   OH269376   3.037   6.281   2.677  0.0988  0.0716  0.3473
15962TIP3    H169377   3.102   6.217   2.706 -0.6476 -0.5667  0.6497
15962TIP3    H269378   3.067   6.364   2.714  0.6612 -0.2336  0.5933
15963TIP3   OH269379   0.997   3.941  16.549  0.1056 -0.1474  0.5724
15963TIP3    H169380   0.923   3.990  16.583 -0.2448 -0.0085 -0.3462
15963TIP3    H269381   1.069   3.959  16.609  0.0934  1.7837  0.0784
15964TIP3   OH269382   3.485   2.032   3.318  0.0566  0.4661  0.5554
15964TIP3    H169383   3.414   2.056   3.259 -1.2704 -1.5415  1.2123
15964TIP3    H269384   3.550   1.991   3.261 -0.7787 -0.5736  0.2994
15965TIP3   OH269385   2.381   4.930  10.547 -0.5788  0.2824  0.3064
15965TIP3    H169386   2.341   5.007  10.588  0.1359  1.2500 -0.7947
15965TIP3    H269387   2.472   4.931  10.576 -0.3520  0.3388 -0.3892
15966TIP3   OH269388   2.414   2.871   1.867  0.0874 -0.0264 -0.0394
15966TIP3    H169389   2.447   2.798   1.919 -0.3249 -0.6097 -0.5822
15966TIP3    H269390   2.346   2.911   1.921 -1.6259 -1.7417 -0.8065
15967TIP3   OH269391   5.758   4.398  15.857  0.7442 -0.4566 -0.5008
15967TIP3    H169392   5.705   4.328  15.819  1.3485 -0.3705 -1.5492
15967TIP3    H269393   5.693   4.460  15.891  0.1160 -0.1822 -2.0638
15968TIP3   OH269394   3.916   3.679  12.207  0.2743 -0.0983 -0.0824
15968TIP3    H169395   3.975   3.654  12.136  0.7130  1.0421 -0.1394
15968TIP3    H269396   3.892   3.596  12.249 -0.5569 -0.8751 -1.9796
15969TIP3   OH269397   6.069   1.642  14.369  0.2454 -0.1157  0.0213
15969TIP3    H169398   5.979   1.674  14.375  0.1956 -0.2666  0.0936
15969TIP3    H269399   6.060   1.547  14.361  0.3275 -0.0166 -1.6670
15970TIP3   OH269400   5.684   1.974  14.335 -0.4318 -0.1477 -0.0125
15970TIP3    H169401   5.721   2.040  14.276 -1.0129  0.7946  0.6595
15970TIP3    H269402   5.611   2.018  14.379 -1.4690 -1.5388 -0.2686
15971TIP3   OH269403   6.007   5.909   0.845 -0.1115  0.3755 -0.3791
15971TIP3    H169404   5.985   5.824   0.808 -1.7073  1.0569 -1.0967
15971TIP3    H269405   5.948   5.971   0.802  1.7452  2.0439 -0.6892
15972TIP3   OH269406   3.714   0.219  11.211 -0.2172 -0.0279  0.2170
15972TIP3    H169407   3.623   0.241  11.191 -0.5221 -0.8106  0.7156
15972TIP3    H269408   3.709   0.155  11.282  0.6978 -0.7683 -0.3571
15973TIP3   OH269409   4.006   4.333  14.800 -0.4454 -0.3014 -0.2112
15973TIP3    H169410   4.007   4.237  14.792  1.5222 -0.4228  0.7524
15973TIP3    H269411   3.926   4.360  14.755 -0.3140 -2.2889 -1.8059
15974TIP3   OH269412   1.146   1.619  11.251 -0.3070  0.0546 -0.2026
15974TIP3    H169413   1.079   1.552  11.254 -0.6718  0.4517  1.2808
15974TIP3    H269414   1.100   1.701  11.267  0.5884  0.2442  1.8082
15975TIP3   OH269415   0.612   2.837   3.607 -0.2386  0.7709  0.0098
15975TIP3    H169416   0.563   2.877   3.535  2.6371  1.9600 -1.4730
15975TIP3    H269417   0.578   2.879   3.685 -2.2259  0.7697 -0.7870
15976TIP3   OH269418   5.998   4.635   4.860  0.7397  0.7940 -0.4876
15976TIP3    H169419   6.009   4.564   4.796 -2.3913  0.1961 -0.5056
15976TIP3    H269420   5.973   4.711   4.808  1.3560  1.1925 -0.2185
15977TIP3   OH269421   2.602   2.541   4.987 -0.0715 -0.2877 -0.1124
15977TIP3    H169422   2.580   2.531   5.080 -1.2364 -1.4645 -0.4962
15977TIP3    H269423   2.686   2.495   4.978 -0.9574 -1.9996 -0.0199
15978TIP3   OH269424   6.387   2.849  13.239 -0.4540  0.1912 -0.1847
15978TIP3    H169425   6.467   2.840  13.290  0.3476  2.5844 -0.8883
15978TIP3    H269426   6.393   2.936  13.200 -3.3630  0.4125 -0.3647
15979TIP3   OH269427   4.775   5.551   5.071  0.2294  0.1914  0.2434
15979TIP3    H169428   4.860   5.575   5.034  0.7068  0.3357  1.4164
15979TIP3    H269429   4.724   5.521   4.995  1.5817 -0.6700 -0.3604
15980TIP3   OH269430   4.052   1.180  14.286 -0.0121 -0.6169  0.7275
15980TIP3    H169431   4.061   1.270  14.316  1.5636 -0.0314 -1.3627
15980TIP3    H269432   4.123   1.133  14.330 -0.6539 -0.8199  1.5859
15981TIP3   OH269433   5.727   2.624   4.277 -0.3384  0.0533 -0.1755
15981TIP3    H169434   5.795   2.678   4.317  1.1325  1.6969 -4.3464
15981TIP3    H269435   5.724   2.545   4.332  2.1090  1.5496  2.4235
15982TIP3   OH269436   3.014   2.597   1.362  0.3023  0.6399  0.2197
15982TIP3    H169437   2.940   2.611   1.420 -0.7182  2.2750 -1.3610
15982TIP3    H269438   2.978   2.548   1.288  1.0303  0.5847 -0.1126
15983TIP3   OH269439   0.049   5.243   0.004  0.3938  0.2410 -0.1194
15983TIP3    H169440   0.007   5.217  -0.079  0.8638  1.5847 -0.8095
15983TIP3    H269441   0.129   5.286  -0.023 -0.5504  2.8039  0.8919
15984TIP3   OH269442   5.899   2.899   5.209  0.5426 -0.2766  0.1659
15984TIP3    H169443   5.913   2.871   5.118 -1.5086  1.6892 -0.8882
15984TIP3    H269444   5.961   2.971   5.222 -1.3894  1.7652 -1.0171
15985TIP3   OH269445   2.452   4.136   0.178 -0.0962 -0.0456  0.3552
15985TIP3    H169446   2.539   4.118   0.142 -1.0383  1.4973 -3.0671
15985TIP3    H269447   2.392   4.119   0.106 -2.8291 -1.7837  2.8216
15986TIP3   OH269448   2.639   0.628   0.308  0.8455  0.4360  0.1278
15986TIP3    H169449   2.549   0.652   0.331  0.9571  0.8736  0.1231
15986TIP3    H269450   2.686   0.712   0.306  0.6846  0.5403 -2.4513
15987TIP3   OH269451   5.587   3.418   4.476  0.3472 -0.9091 -0.0199
15987TIP3    H169452   5.550   3.402   4.390  0.4152  0.9982 -0.4436
15987TIP3    H269453   5.535   3.363   4.535 -0.0299 -1.8402 -1.1801
15988TIP3   OH269454   2.808   5.370  12.722  0.2747  0.0365 -0.0216
15988TIP3    H169455   2.750   5.399  12.652 -0.1100 -1.4606 -0.3467
15988TIP3    H269456   2.768   5.291  12.756  1.6772 -0.5661  0.3132
15989TIP3   OH269457   5.204   5.933  12.598  0.2321  0.7362 -0.0531
15989TIP3    H169458   5.205   5.837  12.589 -1.1761  0.7337 -0.5301
15989TIP3    H269459   5.121   5.952  12.641 -0.3696  1.8455 -1.6153
15990TIP3   OH269460   4.832   1.827  11.925 -0.4273 -0.0776 -0.5778
15990TIP3    H169461   4.790   1.876  11.996 -1.4554 -1.0014 -0.5265
15990TIP3    H269462   4.920   1.865  11.919 -0.4620  0.3152  0.9007
15991TIP3   OH269463   6.391   1.877  14.977 -0.3605  0.8849 -0.4194
15991TIP3    H169464   6.455   1.939  14.942 -1.2769  1.4831 -1.0772
15991TIP3    H269465   6.432   1.842  15.056  1.6392 -0.2868 -1.9187
15992TIP3   OH269466   0.246   1.712  16.681  0.1934 -0.3251 -0.4517
15992TIP3    H169467   0.319   1.655  16.658 -1.4403 -2.5221 -0.5072
15992TIP3    H269468   0.209   1.672  16.760 -0.5396  1.1602 -0.0011
15993TIP3   OH269469   5.307   3.553   2.258 -0.7155 -0.0888  0.1302
15993TIP3    H169470   5.244   3.530   2.326 -1.3995  0.6087 -0.2647
15993TIP3    H269471   5.381   3.493   2.273 -0.1904  1.0137  2.3949
15994TIP3   OH269472   4.043   6.048   5.089  0.0001  0.2315  0.1733
15994TIP3    H169473   4.020   5.983   5.022  0.7114 -0.4032  0.5313
15994TIP3    H269474   4.118   6.010   5.135 -1.7088 -0.3028  2.6994
15995TIP3   OH269475   2.945   6.432  11.573  0.2113  0.2605  0.3124
15995TIP3    H169476   2.982   6.494  11.510 -0.2344 -0.5006 -0.7444
15995TIP3    H269477   2.869   6.394  11.528  0.4892 -1.0659  0.8941
15996TIP3   OH269478   2.071   1.104   5.350 -0.0601 -0.6144 -0.3146
15996TIP3    H169479   2.093   1.160   5.276 -1.6333  0.6471  0.1228
15996TIP3    H269480   2.141   1.120   5.413  0.4853 -0.5585 -0.9251
15997TIP3   OH269481   1.982   3.465  12.692  0.3848  0.5027 -0.2273
15997TIP3    H169482   1.890   3.481  12.671  0.3939 -1.1593 -1.8016
15997TIP3    H269483   1.995   3.507  12.777 -1.9958  0.2612  0.3206
15998TIP3   OH269484   6.586   2.503   5.570 -0.4591 -0.3487  0.1813
15998TIP3    H169485   6.538   2.500   5.487 -0.5728 -1.6779  0.2688
15998TIP3    H269486   6.678   2.492   5.545 -0.5708 -1.6212  0.2729
15999TIP3   OH269487   4.513   0.221  15.256  0.0862 -0.2829  0.1474
15999TIP3    H169488   4.593   0.183  15.292  0.4786  0.5779  0.2118
15999TIP3    H269489   4.530   0.228  15.162 -0.1270 -0.6068  0.0841
16000TIP3   OH269490   6.346   4.351   6.151  0.1598  0.1898  0.0018
16000TIP3    H169491   6.295   4.309   6.220  1.3634  0.8473  1.3507
16000TIP3    H269492   6.433   4.311   6.158  0.0982 -0.3203 -1.6982
16001TIP3   OH269493   0.222   4.125   4.028  0.0296  0.0735  0.0771
16001TIP3    H169494   0.187   4.137   4.116  0.0515  1.5573 -0.0875
16001TIP3    H269495   0.181   4.045   3.996 -0.8085  0.1005  1.0344
16002TIP3   OH269496   2.554   5.678  16.356 -0.5498  0.5356  0.1526
16002TIP3    H169497   2.575   5.617  16.427 -0.9205  0.5568  0.2836
16002TIP3    H269498   2.485   5.734  16.393  0.1455  1.3741  0.2167
16003TIP3   OH269499   0.235   0.091  16.603 -0.6117  0.1925 -0.4910
16003TIP3    H169500   0.306   0.027  16.593 -1.2977 -1.0254  1.8227
16003TIP3    H269501   0.158   0.046  16.570 -1.0019 -0.0020  0.6509
16004TIP3   OH269502   5.966   6.103  15.052 -0.0276 -0.1712  0.3149
16004TIP3    H169503   5.991   6.143  15.135  1.6651 -1.1095  0.3079
16004TIP3    H269504   5.966   6.009  15.070  1.1871 -0.4438 -0.9160
16005TIP3   OH269505   2.234   5.503  10.478 -0.7187  0.6641  0.1693
16005TIP3    H169506   2.230   5.409  10.498  0.0453  0.9817  2.0182
16005TIP3    H269507   2.311   5.512  10.423  0.2839  0.4072  1.4798
16006TIP3   OH269508   5.654   2.570   3.858 -0.1448 -0.2734 -0.5060
16006TIP3    H169509   5.707   2.574   3.778  0.6751 -0.4330  0.0176
16006TIP3    H269510   5.717   2.581   3.929 -0.8918  0.0678  0.1178
16007TIP3   OH269511   2.088   5.738  10.651 -0.2968 -0.7695 -0.4297
16007TIP3    H169512   2.150   5.715  10.720  0.6381 -0.4252 -1.1265
16007TIP3    H269513   2.108   5.677  10.580  0.4987  0.4982 -1.3398
16008TIP3   OH269514   4.718   0.719   2.347  0.4752  0.2290 -0.0580
16008TIP3    H169515   4.774   0.660   2.397 -1.2757 -0.1705  1.5522
16008TIP3    H269516   4.666   0.765   2.413 -0.1984  1.5194 -1.4181
16009TIP3   OH269517   0.862   3.012   1.704 -0.1310 -0.0988  0.0644
16009TIP3    H169518   0.824   3.091   1.741 -1.7805 -0.2432 -1.1940
16009TIP3    H269519   0.919   3.043   1.633 -2.3558 -0.0183 -1.8051
16010TIP3   OH269520   1.974   4.882   4.853 -0.0458  0.0324  0.4615
16010TIP3    H169521   1.981   4.889   4.949 -2.5280 -0.8485  0.7840
16010TIP3    H269522   2.020   4.959   4.820  1.2404  0.1391  2.3185
16011TIP3   OH269523   4.041   6.724  12.149 -0.0407 -0.5401  0.1114
16011TIP3    H169524   4.121   6.694  12.105 -1.0744 -1.5020 -1.2107
16011TIP3    H269525   4.041   6.677  12.232  1.3878  0.4478  0.7102
16012TIP3   OH269526   6.791   2.878   3.203  0.1905  0.6100 -0.2308
16012TIP3    H169527   6.777   2.926   3.121 -0.5653  0.9162  0.0684
16012TIP3    H269528   6.863   2.817   3.183 -0.2993  0.3448 -1.2631
16013TIP3   OH269529   5.104   1.925   1.086  0.1062 -0.4709 -0.0661
16013TIP3    H169530   5.033   1.862   1.100  0.5526 -0.6021  1.8954
16013TIP3    H269531   5.068   1.988   1.023 -1.8710 -0.3648  1.0961
16014TIP3   OH269532   1.696   2.930  15.676 -0.8094 -0.1365 -0.2123
16014TIP3    H169533   1.732   2.900  15.592  0.2744  2.4712 -0.7735
16014TIP3    H269534   1.618   2.979  15.652  0.5648  2.3137  0.0072
16015TIP3   OH269535   2.877   0.951  16.024  0.3164 -0.4172 -0.2349
16015TIP3    H169536   2.926   0.905  15.956 -2.4186 -2.0142 -1.2966
16015TIP3    H269537   2.871   0.888  16.096 -0.8722 -0.6109 -0.4838
16016TIP3   OH269538   2.131   1.609  16.952 -0.3861 -0.2943  0.0080
16016TIP3    H169539   2.142   1.670  16.879 -0.9266  2.0285  1.7494
16016TIP3    H269540   2.039   1.582  16.946 -0.3352 -0.4035 -0.3545
16017TIP3   OH269541   3.110   2.045   1.033 -0.6044  0.5856  0.3583
16017TIP3    H169542   3.129   2.061   0.941  2.9780 -1.6754  0.5303
16017TIP3    H269543   3.039   1.981   1.033  0.6673 -0.8665 -0.9311
16018TIP3   OH269544   4.439   4.348  12.602 -0.1470 -0.3665 -0.9729
16018TIP3    H169545   4.456   4.338  12.696 -2.0905  0.0856 -0.5307
16018TIP3    H269546   4.488   4.277  12.561  1.0408 -0.3506  0.3370
16019TIP3   OH269547   3.607   0.858  16.116 -0.0514  0.6214 -0.4503
16019TIP3    H169548   3.543   0.880  16.184 -0.5812 -1.0542 -0.3581
16019TIP3    H269549   3.601   0.763  16.107  1.8382  0.5123 -1.0538
16020TIP3   OH269550   4.371   1.105  11.806 -0.1414  0.6124 -0.5330
16020TIP3    H169551   4.333   1.017  11.812 -1.1632  0.9750 -1.3698
16020TIP3    H269552   4.393   1.128  11.896 -0.3426 -0.2942 -0.2394
16021TIP3   OH269553   1.839   1.343  12.084  0.5695 -0.1297 -0.0476
16021TIP3    H169554   1.844   1.315  11.993  0.6722 -0.8503  0.1732
16021TIP3    H269555   1.886   1.427  12.087  0.1797  0.1216 -0.7378
16022TIP3   OH269556   5.195   4.279  14.621 -0.2621  0.1093  0.0240
16022TIP3    H169557   5.171   4.216  14.553 -2.5763  0.8988  0.0292
16022TIP3    H269558   5.186   4.230  14.703  1.2796 -0.4726 -0.1161
16023TIP3   OH269559   2.138   4.690   3.616  0.1529 -0.3020 -0.3926
16023TIP3    H169560   2.226   4.682   3.579 -0.1444 -0.6265 -1.0326
16023TIP3    H269561   2.141   4.636   3.695  0.9973  0.9572  0.4815
16024TIP3   OH269562   0.963   4.082   4.823  1.0561  0.1588 -0.0288
16024TIP3    H169563   0.899   4.153   4.834  2.2411  1.7675 -2.5074
16024TIP3    H269564   1.009   4.104   4.742  0.5522 -4.1919 -1.8043
16025TIP3   OH269565   6.572   5.239   5.744  0.1874 -0.4021 -0.6065
16025TIP3    H169566   6.522   5.202   5.817  2.0656 -0.0208  0.9613
16025TIP3    H269567   6.505   5.272   5.684 -1.4768 -2.8804 -0.2601
16026TIP3   OH269568   6.649   3.115   2.653 -0.3717 -0.2654  0.1578
16026TIP3    H169569   6.670   3.144   2.742 -1.0335  0.3516  0.1188
16026TIP3    H269570   6.654   3.194   2.599  1.6141 -0.8894 -0.6845
16027TIP3   OH269571   5.117   5.593  15.463 -0.1955  0.4819  0.1014
16027TIP3    H169572   5.139   5.513  15.415  1.6446  0.7110  0.4554
16027TIP3    H269573   5.030   5.577  15.498 -0.1928 -1.0520 -0.4869
16028TIP3   OH269574   2.868   0.844  13.138 -0.0571  0.0280  0.0248
16028TIP3    H169575   2.899   0.934  13.149  0.1738 -0.0875  0.3436
16028TIP3    H269576   2.779   0.845  13.174 -0.2843  0.2695 -0.5377
16029TIP3   OH269577   1.402   2.736   1.876  0.2105  1.0764  1.1199
16029TIP3    H169578   1.487   2.780   1.876  0.2249  1.0556  0.5083
16029TIP3    H269579   1.347   2.788   1.818  0.4774 -0.1648 -0.2909
16030TIP3   OH269580   5.183   3.083  16.594  0.1975  0.7464  0.2591
16030TIP3    H169581   5.200   3.087  16.689 -1.4223  1.7775  0.5439
16030TIP3    H269582   5.195   3.173  16.565 -1.5390  0.8954 -0.0767
16031TIP3   OH269583   3.104   6.689   4.659  0.2897 -0.5552  0.8083
16031TIP3    H169584   3.063   6.733   4.585  2.0065 -0.8690 -0.3929
16031TIP3    H269585   3.128   6.759   4.719 -1.2644 -0.3112  1.1904
16032TIP3   OH269586   1.034   3.157   5.950 -0.1708 -0.7304 -0.0997
16032TIP3    H169587   1.051   3.251   5.953 -0.4886 -0.6638 -0.3266
16032TIP3    H269588   1.093   3.120   6.016  0.6650 -0.4838 -0.6907
16033TIP3   OH269589   1.363   0.734  16.632  0.2094  0.5476 -0.2737
16033TIP3    H169590   1.395   0.753  16.544 -0.3615  1.1839 -0.3498
16033TIP3    H269591   1.422   0.781  16.690  0.5967  0.1140 -0.3118
16034TIP3   OH269592   5.469   2.312  11.753  0.2302  0.2041  0.0064
16034TIP3    H169593   5.508   2.267  11.678  0.5390 -0.2439  0.4296
16034TIP3    H269594   5.406   2.373  11.715 -0.6157 -0.9835 -0.5620
16035TIP3   OH269595   1.456   6.023  13.847  0.1914 -0.0488 -0.0656
16035TIP3    H169596   1.522   5.989  13.787  2.6920  1.3652  1.7161
16035TIP3    H269597   1.419   5.945  13.888  1.1024 -0.8766 -0.7662
16036TIP3   OH269598   4.146   5.143   5.211 -0.3021  0.8545  0.3799
16036TIP3    H169599   4.225   5.161   5.161  0.6388 -1.6400  0.8143
16036TIP3    H269600   4.074   5.165   5.152  0.7527 -0.3015 -1.4274
16037TIP3   OH269601   1.223   2.416   3.382 -0.4737 -0.5912 -1.0506
16037TIP3    H169602   1.154   2.361   3.420  0.1607  1.0424  3.0418
16037TIP3    H269603   1.196   2.506   3.402  2.0642  0.1592 -0.6300
16038TIP3   OH269604   6.502   1.838  15.655  0.5204 -0.1370  0.0808
16038TIP3    H169605   6.452   1.781  15.597 -1.0738 -0.5100  1.7205
16038TIP3    H269606   6.447   1.915  15.668  0.5827 -0.2963  1.4870
16039TIP3   OH269607   0.677   2.726  12.741  0.2407  0.9666  0.5909
16039TIP3    H169608   0.709   2.677  12.817 -1.9089 -3.3894 -0.9196
16039TIP3    H269609   0.755   2.738  12.686  0.8515 -1.5958  0.7659
16040TIP3   OH269610   0.072   5.056  16.629  0.0510 -0.0352 -0.5216
16040TIP3    H169611   0.094   5.096  16.545 -0.5680  3.3510  0.7541
16040TIP3    H269612  -0.023   5.069  16.637  0.2290  0.4626  1.0407
16041TIP3   OH269613   1.888   2.338  13.741 -0.4821 -0.0653 -0.8556
16041TIP3    H169614   1.930   2.422  13.724 -0.7634  0.2534 -0.0409
16041TIP3    H269615   1.883   2.296  13.655  2.2894 -0.5190 -0.9049
16042TIP3   OH269616   5.157   6.079   1.979 -0.1790 -0.3033  0.8105
16042TIP3    H169617   5.147   6.048   2.069 -2.3114 -1.7659  0.1436
16042TIP3    H269618   5.226   6.024   1.942  2.1448  1.5925  1.9866
16043TIP3   OH269619   3.854   3.912  13.332 -0.0072  0.2759 -0.5566
16043TIP3    H169620   3.794   3.944  13.399  2.0157  1.3437  0.8385
16043TIP3    H269621   3.912   3.852  13.379  0.6702  0.0537 -1.6479
16044TIP3   OH269622   3.007   4.870   0.720 -0.0467 -0.0300  0.0607
16044TIP3    H169623   2.991   4.784   0.760  1.5458  0.1126  1.1047
16044TIP3    H269624   3.088   4.858   0.670  0.0956  0.8122  0.0712
16045TIP3   OH269625   5.206   6.488  15.673 -0.2398  0.0497  0.6245
16045TIP3    H169626   5.160   6.533  15.603 -0.8454  0.1150  1.0492
16045TIP3    H269627   5.137   6.438  15.718  0.4716 -1.5929 -0.0628
16046TIP3   OH269628   2.471   4.842   3.018 -0.5166  0.4269 -0.2328
16046TIP3    H169629   2.435   4.759   3.050  1.3385 -0.5133 -0.4573
16046TIP3    H269630   2.405   4.874   2.956 -1.4849 -0.6324  0.2144
16047TIP3   OH269631   6.124   4.130   4.707 -0.4039 -0.1792  0.5453
16047TIP3    H169632   6.065   4.137   4.631 -0.9881  0.1071  1.0219
16047TIP3    H269633   6.087   4.189   4.772  0.5671  0.2149  0.7582
16048TIP3   OH269634   2.982   1.867  16.571 -0.1646 -0.4764 -0.2802
16048TIP3    H169635   2.921   1.853  16.645  0.0755 -1.3573 -0.2349
16048TIP3    H269636   2.939   1.934  16.518 -2.6746 -3.0787 -1.8058
16049TIP3   OH269637   5.167   6.453  13.868  0.0492 -0.2546  0.0091
16049TIP3    H169638   5.079   6.471  13.835  0.6205  0.9828 -0.9448
16049TIP3    H269639   5.155   6.384  13.933 -1.7924  0.8063  0.8667
16050TIP3   OH269640   4.269   2.118  12.197 -0.0901 -0.2929  0.1254
16050TIP3    H169641   4.297   2.193  12.144 -1.0899 -0.3252 -0.4707
16050TIP3    H269642   4.287   2.145  12.287  2.1036 -0.4322 -0.2026
16051TIP3   OH269643   0.965   0.120   2.955 -0.4005  0.5348 -0.6325
16051TIP3    H169644   1.022   0.134   3.030 -1.0388  1.4576 -0.2970
16051TIP3    H269645   1.025   0.105   2.881  0.2366 -1.9803  0.2904
16052TIP3   OH269646   0.813   4.428   6.625  0.1192  0.0397 -0.4948
16052TIP3    H169647   0.722   4.407   6.604  0.1180 -0.3973 -0.0847
16052TIP3    H269648   0.863   4.352   6.592  0.2750  0.0380 -0.2599
16053TIP3   OH269649   1.118   4.322  16.676 -0.1121 -0.2343 -0.6094
16053TIP3    H169650   1.072   4.341  16.594  1.1061  0.4387 -1.1709
16053TIP3    H269651   1.123   4.407  16.721  0.4537 -0.3216 -0.4984
16054TIP3   OH269652   0.495   0.833   2.577  0.1913 -0.2648 -0.0082
16054TIP3    H169653   0.493   0.799   2.487 -0.7440 -1.1380  0.3250
16054TIP3    H269654   0.419   0.793   2.619  0.0898  0.8643  0.9185
16055TIP3   OH269655   5.587   6.706   1.700 -0.1077 -0.0193 -0.1105
16055TIP3    H169656   5.572   6.612   1.712  0.9597 -0.3318 -1.0330
16055TIP3    H269657   5.682   6.715   1.691 -0.0134  1.3923  1.7533
16056TIP3   OH269658   3.783   1.502   6.299  0.4771  0.7803 -0.0752
16056TIP3    H169659   3.757   1.570   6.237  1.3290  0.0771 -1.2535
16056TIP3    H269660   3.879   1.502   6.294  0.4887 -0.5241 -0.1335
16057TIP3   OH269661   0.601   2.735   4.217  0.9339 -0.3293  0.0374
16057TIP3    H169662   0.587   2.647   4.252 -2.5588  0.2639  0.5677
16057TIP3    H269663   0.607   2.722   4.122 -0.5206 -1.1200  0.0213
16058TIP3   OH269664   2.570   0.459  11.472  0.4972 -0.2527 -0.5462
16058TIP3    H169665   2.564   0.363  11.472  2.8206 -0.4597  0.1580
16058TIP3    H269666   2.543   0.485  11.560  0.9949 -0.3862 -0.3477
16059TIP3   OH269667   0.549   1.624   2.484 -0.1252 -0.6601 -0.1917
16059TIP3    H169668   0.545   1.530   2.463 -1.5662 -0.2571 -1.9724
16059TIP3    H269669   0.637   1.637   2.520  0.6885 -2.3980 -1.4387
16060TIP3   OH269670   1.607   4.843  16.302 -0.0847  0.6384  0.2513
16060TIP3    H169671   1.697   4.831  16.271 -0.2855  0.4767 -0.2879
16060TIP3    H269672   1.555   4.843  16.222 -0.4682  1.6468  0.4932
16061TIP3   OH269673   6.295   3.484  13.371 -0.3844 -0.0440  0.1405
16061TIP3    H169674   6.382   3.502  13.407 -1.0116  1.8898  0.7548
16061TIP3    H269675   6.313   3.445  13.285  1.0874 -0.3372  0.5602
16062TIP3   OH269676   3.076   1.156   6.558 -0.2075  0.9755 -0.0101
16062TIP3    H169677   3.030   1.240   6.552  1.6263  1.9954 -0.5546
16062TIP3    H269678   3.006   1.090   6.560 -1.7536  2.5563  1.9031
16063TIP3   OH269679   6.516   2.500  15.104 -0.4614  0.2396  0.2491
16063TIP3    H169680   6.539   2.433  15.168  1.0250  2.1277  1.7980
16063TIP3    H269681   6.499   2.451  15.023 -1.1006 -2.0985  1.7042
16064TIP3   OH269682   2.997   1.854  15.969 -0.0432  0.1137 -0.0433
16064TIP3    H169683   2.908   1.826  15.994  0.3389 -1.4827 -0.3350
16064TIP3    H269684   2.997   1.849  15.873  0.1286  0.9265 -0.0936
16065TIP3   OH269685   1.010   1.109   3.180  0.6455  0.4711  0.0297
16065TIP3    H169686   1.088   1.136   3.133  0.2576 -0.3057 -1.0971
16065TIP3    H269687   0.945   1.176   3.161  1.0025  1.1005  0.9415
16066TIP3   OH269688   0.106   6.540   1.409 -0.3643 -0.2865  0.0592
16066TIP3    H169689   0.077   6.577   1.326 -0.7989 -0.7177  0.0163
16066TIP3    H269690   0.035   6.481   1.436  0.9128 -2.2490 -0.6158
16067TIP3   OH269691   6.197   4.663  14.963  0.2740  0.6626 -0.1886
16067TIP3    H169692   6.179   4.570  14.977  0.1838  0.6518 -0.3710
16067TIP3    H269693   6.283   4.664  14.921 -0.7696  0.4969 -2.5036
16068TIP3   OH269694   1.782   6.633  15.688 -0.3339  0.2036  0.5670
16068TIP3    H169695   1.871   6.653  15.719  0.2928  0.1571 -1.1179
16068TIP3    H269696   1.767   6.695  15.617 -2.2270  1.1487  1.7135
16069TIP3   OH269697   0.179   3.677  11.397  0.4351  0.5305  0.0658
16069TIP3    H169698   0.208   3.630  11.475 -0.8626  2.1108  1.5874
16069TIP3    H269699   0.243   3.747  11.386  1.2629 -0.3712 -1.0125
16070TIP3   OH269700   4.457   0.666   1.317 -0.2131 -0.4782 -0.0410
16070TIP3    H169701   4.391   0.735   1.304 -0.0689 -0.5641 -1.4193
16070TIP3    H269702   4.421   0.591   1.269  0.0430 -1.1030  0.7264
16071TIP3   OH269703   6.034   0.929   1.428  0.2653 -0.0002 -0.0423
16071TIP3    H169704   6.101   0.920   1.496  0.4074  0.0827 -0.1730
16071TIP3    H269705   5.953   0.904   1.472  0.2729  0.5774  0.3090
16072TIP3   OH269706   2.717   2.851   4.932 -0.0462 -0.6576 -0.6948
16072TIP3    H169707   2.739   2.942   4.952 -1.3881 -0.6441  1.0425
16072TIP3    H269708   2.661   2.855   4.854 -1.3691  0.2151  0.2516
16073TIP3   OH269709   6.378   4.936  15.591  0.1514 -0.2302  0.5025
16073TIP3    H169710   6.297   4.933  15.642 -0.0057 -1.6464  0.1974
16073TIP3    H269711   6.443   4.892  15.646  0.6012  0.4445  0.5251
16074TIP3   OH269712   2.235   2.636   1.522  0.4027 -0.2357  0.0484
16074TIP3    H169713   2.175   2.696   1.566 -0.7844 -1.8297  0.7276
16074TIP3    H269714   2.303   2.692   1.486 -0.9387  1.5557  0.1471
16075TIP3   OH269715   4.008   5.148   2.702  0.1281 -0.6772 -0.1050
16075TIP3    H169716   4.071   5.159   2.630  0.5332 -1.6903  0.0686
16075TIP3    H269717   3.935   5.100   2.662 -0.0197 -0.5080 -0.0370
16076TIP3   OH269718   3.318   4.944   5.918  0.2739  0.0840  0.3596
16076TIP3    H169719   3.307   4.945   6.013 -0.6688 -1.7550  0.3301
16076TIP3    H269720   3.391   4.884   5.903  0.8305  0.8589 -0.0615
16077TIP3   OH269721   6.348   3.713  11.773  0.4169 -0.1552 -0.3115
16077TIP3    H169722   6.270   3.757  11.807 -2.0962 -4.7247  0.5321
16077TIP3    H269723   6.341   3.724  11.678 -0.0695  1.1762 -0.1529
16078TIP3   OH269724   4.720   0.060   4.384 -0.1198 -0.4660 -0.0462
16078TIP3    H169725   4.800   0.083   4.433 -0.8824 -0.8561  1.4492
16078TIP3    H269726   4.673   0.001   4.443 -0.8818 -1.3365 -1.4755
16079TIP3   OH269727   1.096   1.043  10.608 -0.1734 -0.3265  0.0924
16079TIP3    H169728   1.001   1.040  10.603 -0.1244 -0.3957 -1.0072
16079TIP3    H269729   1.126   0.985  10.539  0.6789 -1.0018  1.0035
16080TIP3   OH269730   4.291   1.282  15.779  0.5154  0.2058  0.6717
16080TIP3    H169731   4.292   1.260  15.872  2.1322  0.7761  0.8157
16080TIP3    H269732   4.383   1.285  15.754  0.2231  2.3723 -0.3821
16081TIP3   OH269733   4.978   1.152  13.054 -0.0161 -0.2430 -0.1318
16081TIP3    H169734   5.020   1.139  12.970 -3.4916 -0.0851 -2.0780
16081TIP3    H269735   4.905   1.090  13.054 -1.0157  0.8215  2.1171
16082TIP3   OH269736   4.192   1.876  11.714 -0.2569  0.2160 -0.0284
16082TIP3    H169737   4.281   1.870  11.679  0.0808 -1.0512  0.9735
16082TIP3    H269738   4.195   1.949  11.776  0.5631 -0.8372  1.2305
16083TIP3   OH269739   5.071   1.464   5.206 -0.0986  0.0842  0.3885
16083TIP3    H169740   5.016   1.415   5.267  1.0664 -0.1605  1.2908
16083TIP3    H269741   5.019   1.470   5.126 -1.1811 -0.6434  1.0042
16084TIP3   OH269742   6.606   6.681  14.649 -0.0312 -0.4577 -0.7356
16084TIP3    H169743   6.657   6.752  14.688 -0.1887 -0.3138 -0.7897
16084TIP3    H269744   6.547   6.725  14.588  1.7316 -0.8273 -2.8367
16085TIP3   OH269745   3.172   5.459  15.109 -0.3643 -0.1594 -0.4298
16085TIP3    H169746   3.236   5.436  15.176  0.3988  0.8356 -0.7806
16085TIP3    H269747   3.114   5.522  15.152 -0.7280 -0.5815 -0.2978
16086TIP3   OH269748   2.638   0.762  16.352 -0.2771  0.0321 -0.2392
16086TIP3    H169749   2.589   0.680  16.351  0.4303 -0.4013 -1.1751
16086TIP3    H269750   2.572   0.831  16.355 -0.8704 -0.5674  1.2644
16087TIP3   OH269751   2.688   0.850   2.975  0.0659 -0.3513  0.8653
16087TIP3    H169752   2.778   0.842   2.942 -0.3756 -0.2532 -0.4397
16087TIP3    H269753   2.693   0.918   3.042  1.1360 -1.0442  1.5227
16088TIP3   OH269754   5.235   0.396  11.568 -0.3159  0.0489 -0.1488
16088TIP3    H169755   5.250   0.477  11.518 -2.8142  0.0693 -0.9854
16088TIP3    H269756   5.149   0.408  11.608  0.0069 -1.5292  1.1104
16089TIP3   OH269757   0.423   3.819  13.109 -0.0073 -0.0264  0.1351
16089TIP3    H169758   0.472   3.741  13.082  0.2398  0.2961 -0.3623
16089TIP3    H269759   0.469   3.849  13.187 -0.7346 -0.9723  0.9602
16090TIP3   OH269760   3.395   0.187   3.319 -0.1405 -0.3876 -0.1564
16090TIP3    H169761   3.398   0.140   3.403 -2.3160 -1.8310 -0.8145
16090TIP3    H269762   3.350   0.128   3.260  0.8541  0.8417 -2.2382
16091TIP3   OH269763   4.022   5.617  16.553 -0.4255 -0.5549 -0.0214
16091TIP3    H169764   3.979   5.702  16.557  2.1882  1.0610 -2.2964
16091TIP3    H269765   4.099   5.627  16.609 -0.3474 -1.6289  0.0738
16092TIP3   OH269766   5.330   0.411  14.807  0.1865  0.0161 -0.0865
16092TIP3    H169767   5.394   0.471  14.768 -0.3639 -0.3707 -1.6762
16092TIP3    H269768   5.329   0.336  14.748  0.1378 -1.1415  1.3445
16093TIP3   OH269769   0.888   0.365  16.833 -0.3133  0.2713 -0.0449
16093TIP3    H169770   0.838   0.324  16.904  1.0606 -2.5913 -0.5987
16093TIP3    H269771   0.977   0.374  16.868  0.2040 -0.4766 -1.1227
16094TIP3   OH269772   2.898   4.975   5.262 -0.5548  0.2073  0.5511
16094TIP3    H169773   2.882   5.015   5.348 -3.0507  1.8376 -0.5406
16094TIP3    H269774   2.844   4.896   5.261  0.1584 -0.2941  0.7614
16095TIP3   OH269775   0.748   5.457  13.464 -0.0501 -0.7062 -0.2666
16095TIP3    H169776   0.820   5.423  13.516 -0.1728 -0.9035 -0.2232
16095TIP3    H269777   0.685   5.385  13.461 -0.1809 -0.5857 -0.4235
16096TIP3   OH269778   6.017   6.254   2.028  0.2078  0.2871 -0.4668
16096TIP3    H169779   5.983   6.218   2.110  0.4979  1.2084  0.0708
16096TIP3    H269780   6.062   6.180   1.987  0.4333 -0.0817  0.4116
16097TIP3   OH269781   6.622   0.865  17.152  0.3707 -0.5564 -0.1071
16097TIP3    H169782   6.591   0.815  17.076  1.1847 -1.3750  0.0748
16097TIP3    H269783   6.693   0.920  17.117  0.2437 -0.3813 -0.0874
16098TIP3   OH269784   6.537   2.335   2.137 -0.2781 -0.4213  0.2081
16098TIP3    H169785   6.531   2.358   2.044 -0.7151 -2.9061 -0.4573
16098TIP3    H269786   6.601   2.264   2.140  2.4555  1.8995  2.3740
16099TIP3   OH269787   6.565   0.856  16.896  0.2685  0.0859  0.0473
16099TIP3    H169788   6.646   0.805  16.886  0.1752 -0.2647  0.9894
16099TIP3    H269789   6.537   0.874  16.807  0.0439 -1.9288 -0.3446
16100TIP3   OH269790   3.820   0.962   2.700 -0.2271 -0.1201  0.0256
16100TIP3    H169791   3.844   1.024   2.631  1.3362 -1.5003 -0.7491
16100TIP3    H269792   3.724   0.963   2.702 -0.2531  1.5475 -0.6426
16101TIP3   OH269793   2.322   2.546  11.762  0.3368 -0.0103 -0.0140
16101TIP3    H169794   2.316   2.452  11.777 -1.1450  0.0497 -0.1673
16101TIP3    H269795   2.406   2.557  11.717  0.8255 -1.1718  0.5654
16102TIP3   OH269796   3.416   5.498  11.975 -0.5903 -0.1587  0.4782
16102TIP3    H169797   3.403   5.405  11.957  0.3005 -0.2201  0.0532
16102TIP3    H269798   3.402   5.507  12.069  0.0115 -0.8617  0.6441
16103TIP3   OH269799   1.015   3.895  13.348  0.0542  0.0774 -0.1392
16103TIP3    H169800   1.063   3.830  13.400  1.0451  0.1989 -0.8790
16103TIP3    H269801   0.983   3.846  13.272 -0.2300  0.1976 -0.0992
16104TIP3   OH269802   6.415   6.812   5.004  0.3388 -0.1355  0.9770
16104TIP3    H169803   6.349   6.882   4.999 -0.7454 -1.1587  0.4019
16104TIP3    H269804   6.409   6.781   5.094 -0.6837 -0.8615  0.6787
16105TIP3   OH269805   1.392   2.974   0.370  0.3837 -0.0218 -0.0483
16105TIP3    H169806   1.359   2.960   0.459 -1.8200  0.0427 -0.7854
16105TIP3    H269807   1.452   3.049   0.378 -0.1927  0.3325  1.3029
16106TIP3   OH269808   4.882   0.185  10.369 -0.5946 -0.1633 -0.2662
16106TIP3    H169809   4.893   0.240  10.291  0.2881  1.9680  1.2653
16106TIP3    H269810   4.958   0.128  10.369 -0.9479 -0.6625 -1.2984
16107TIP3   OH269811   0.281   6.008  12.024 -0.0733 -0.0451 -0.2102
16107TIP3    H169812   0.279   5.927  12.074  1.4968  0.9631  1.6520
16107TIP3    H269813   0.192   6.042  12.029 -0.6817 -1.4822 -0.7878
16108TIP3   OH269814   4.282   5.235   6.553 -0.0905  0.1900 -0.2564
16108TIP3    H169815   4.300   5.194   6.638  3.0165  0.0407 -0.8792
16108TIP3    H269816   4.229   5.170   6.506  1.6969 -1.6214  0.0886
16109TIP3   OH269817   2.666   2.087   3.583  0.1420 -0.2999 -0.4274
16109TIP3    H169818   2.620   2.007   3.558  0.3399 -0.2391 -1.0168
16109TIP3    H269819   2.597   2.144   3.617 -0.4004  0.0997 -2.0725
16110TIP3   OH269820   2.100   0.115  17.282 -0.3228  0.2155  0.0012
16110TIP3    H169821   2.166   0.052  17.254 -1.4248 -1.0594  0.1811
16110TIP3    H269822   2.108   0.119  17.377 -0.8416 -0.3455  0.0738
16111TIP3   OH269823   2.872   1.524   5.236  0.0357  0.2862  0.2400
16111TIP3    H169824   2.933   1.579   5.285  1.3392 -1.1078  0.2572
16111TIP3    H269825   2.821   1.479   5.303 -0.4938  0.8820  0.2409
16112TIP3   OH269826   0.705   4.454  12.981  0.1462 -0.0660  0.1790
16112TIP3    H169827   0.745   4.460  13.068  0.3419  1.1529  0.0244
16112TIP3    H269828   0.677   4.543  12.961  0.3137 -0.2722 -1.1033
16113TIP3   OH269829   4.448   2.632  12.964 -0.2916  0.4874  0.1053
16113TIP3    H169830   4.397   2.682  12.900 -0.6964  0.8486  0.7004
16113TIP3    H269831   4.411   2.544  12.960  0.2266  0.2875 -0.7335
16114TIP3   OH269832   4.579   2.031  13.842 -0.2965  0.2776  0.1669
16114TIP3    H169833   4.550   2.110  13.797 -1.6941 -0.6378 -0.6164
16114TIP3    H269834   4.501   1.999  13.887  0.0845 -0.9882 -0.0334
16115TIP3   OH269835   3.827   6.478   0.344  0.0846 -0.2166  0.1678
16115TIP3    H169836   3.911   6.459   0.301  0.1870 -0.8843  0.6399
16115TIP3    H269837   3.827   6.421   0.421  0.5696  1.9973  1.8944
16116TIP3   OH269838   5.176   4.078  14.032 -0.0873 -0.4983  0.5350
16116TIP3    H169839   5.108   4.074  13.965 -0.7835  0.3671  1.1635
16116TIP3    H269840   5.258   4.061  13.985 -0.7707 -2.1604 -0.1342
16117TIP3   OH269841   2.117   0.417  13.930  0.0306 -0.3571  0.3653
16117TIP3    H169842   2.205   0.385  13.948  0.6316  0.1924 -1.4470
16117TIP3    H269843   2.095   0.381  13.844 -2.1496 -1.7386  1.4060
16118TIP3   OH269844   1.286   5.496  14.609  0.1817  0.3375  0.4530
16118TIP3    H169845   1.272   5.563  14.676  1.6477  0.9421  0.1904
16118TIP3    H269846   1.331   5.426  14.655  1.6578  0.9714  0.0232
16119TIP3   OH269847   1.802   1.995  16.561 -0.2029 -0.4905  0.6104
16119TIP3    H169848   1.840   1.968  16.644  1.8706  0.6601  0.0972
16119TIP3    H269849   1.837   2.083  16.545 -1.5599 -0.1541 -0.8817
16120TIP3   OH269850   5.121   4.302   1.246 -0.1514  0.1160 -0.2795
16120TIP3    H169851   5.085   4.367   1.307 -0.7512 -1.0990  0.7111
16120TIP3    H269852   5.062   4.227   1.253  0.2867 -0.4021 -1.7061
16121TIP3   OH269853   1.275   6.289   0.758 -0.1649 -0.0532 -0.6982
16121TIP3    H169854   1.200   6.331   0.800 -0.6697 -0.9793 -0.6551
16121TIP3    H269855   1.350   6.337   0.791 -0.8111  1.9623 -1.9714
16122TIP3   OH269856   2.112   4.512   0.609  0.1157 -0.1731 -0.0386
16122TIP3    H169857   2.098   4.420   0.632 -2.3468 -0.1275 -1.0506
16122TIP3    H269858   2.140   4.510   0.518  0.0604  0.0771 -0.0617
16123TIP3   OH269859   6.257   0.920   2.746 -0.3759  0.4264 -0.2141
16123TIP3    H169860   6.231   0.880   2.829 -0.8948  2.6022  0.7462
16123TIP3    H269861   6.211   0.869   2.680 -1.5838 -0.1143  0.9879
16124TIP3   OH269862   1.313   3.028   1.408  0.4846  0.7315  0.6715
16124TIP3    H169863   1.367   3.099   1.373  1.0892 -0.2262 -0.4374
16124TIP3    H269864   1.375   2.955   1.420 -0.2584  0.1540  1.0503
16125TIP3   OH269865   3.635   0.814   0.628  0.2748 -0.3511  0.0026
16125TIP3    H169866   3.660   0.734   0.673 -1.2701 -0.4565  0.7346
16125TIP3    H269867   3.702   0.826   0.560  1.5048 -1.2912  1.0063
16126TIP3   OH269868   1.780   2.555   4.705  0.2096  0.1909 -0.6013
16126TIP3    H169869   1.760   2.641   4.669  0.6324  0.0057 -1.2906
16126TIP3    H269870   1.696   2.523   4.738 -0.3938  0.0017 -2.2136
16127TIP3   OH269871   1.935   3.378   4.311 -0.1174  0.2846  0.5209
16127TIP3    H169872   1.972   3.451   4.360 -0.8005  1.0705 -0.1137
16127TIP3    H269873   1.977   3.300   4.349  0.6940  1.0009  1.1286
16128TIP3   OH269874   5.499   0.213   1.911 -0.0881  0.2958  0.3434
16128TIP3    H169875   5.456   0.290   1.873 -1.5645 -0.0130  1.3101
16128TIP3    H269876   5.508   0.233   2.004 -0.5810 -0.7251  0.6283
16129TIP3   OH269877   3.175   5.656   3.338 -0.1994  0.1522 -0.6656
16129TIP3    H169878   3.218   5.686   3.418  2.0152 -1.4435 -1.1727
16129TIP3    H269879   3.199   5.722   3.272 -0.0182  0.1977 -0.5546
16130TIP3   OH269880   4.747   6.143  13.909  0.1432  0.6328 -0.0016
16130TIP3    H169881   4.745   6.111  13.819 -0.6117  0.6057  0.0157
16130TIP3    H269882   4.822   6.100  13.949  1.2868  1.6621 -0.9798
16131TIP3   OH269883   3.418   3.293   0.311  0.0692 -0.1438 -0.0200
16131TIP3    H169884   3.452   3.380   0.288 -3.4150  1.8776  1.5861
16131TIP3    H269885   3.352   3.274   0.244 -0.0474 -0.9912  0.3203
16132TIP3   OH269886   0.403   2.689  11.775 -0.0187 -0.1337  0.2898
16132TIP3    H169887   0.496   2.685  11.754  0.2029  0.4679  1.0778
16132TIP3    H269888   0.359   2.693  11.690  0.5098 -2.7042 -0.1692
16133TIP3   OH269889   6.178   3.261  12.998 -0.3190 -0.2364  0.1687
16133TIP3    H169890   6.106   3.290  12.942 -0.8087 -2.9231 -0.7169
16133TIP3    H269891   6.151   3.285  13.086 -2.0483 -0.6507 -0.2112
16134TIP3   OH269892   6.403   5.131  16.777 -0.6708 -0.6738 -0.3058
16134TIP3    H169893   6.323   5.089  16.811 -1.0867  1.3102  1.3358
16134TIP3    H269894   6.373   5.215  16.742  0.4676 -0.6938 -1.3882
16135TIP3   OH269895   2.396   1.595  17.010 -0.1320  0.1108 -0.2604
16135TIP3    H169896   2.425   1.657  17.077  2.3289 -1.2623  0.0747
16135TIP3    H269897   2.302   1.609  17.003 -0.0216  2.2087  1.4743
16136TIP3   OH269898   0.664   5.435   3.073 -0.3987  0.2083 -0.3597
16136TIP3    H169899   0.702   5.494   3.008 -0.5377  0.6067 -0.0822
16136TIP3    H269900   0.632   5.493   3.142  3.1647 -0.3220  2.0084
16137TIP3   OH269901   1.782   2.696   0.299  0.4658 -0.5230  0.1939
16137TIP3    H169902   1.786   2.770   0.360 -0.8774 -0.9059  0.7904
16137TIP3    H269903   1.729   2.630   0.345 -2.7822  0.0804 -2.2775
16138TIP3   OH269904   6.486   5.226  15.542  0.0605  0.4179 -0.1210
16138TIP3    H169905   6.406   5.279  15.540 -1.4392 -1.6935 -2.5392
16138TIP3    H269906   6.455   5.136  15.556  2.3537 -0.1477  2.1609
16139TIP3   OH269907   2.175   5.939   5.867 -0.0267 -0.0983  0.3586
16139TIP3    H169908   2.227   5.860   5.881  3.1398  1.9667  1.2817
16139TIP3    H269909   2.232   5.997   5.817 -1.2178  2.5103  1.7929
16140TIP3   OH269910   0.753   5.127  14.296 -0.3272 -0.4664  0.4789
16140TIP3    H169911   0.822   5.068  14.325  0.2941  0.2894  0.5601
16140TIP3    H269912   0.799   5.205  14.267 -1.1879  0.4212  1.4218
16141TIP3   OH269913   5.725   4.190   4.682 -0.1218 -0.5760  0.1053
16141TIP3    H169914   5.645   4.155   4.643 -0.2321 -0.0887 -0.1104
16141TIP3    H269915   5.757   4.253   4.617 -1.7327  2.2921  1.8668
16142TIP3   OH269916   3.072   0.888  14.086 -0.6476  0.1010 -0.8567
16142TIP3    H169917   3.008   0.960  14.083 -2.6840 -1.5413  0.2867
16142TIP3    H269918   3.020   0.811  14.109  1.5811 -1.6074 -1.2213
16143TIP3   OH269919   4.861   4.753   1.590 -0.6597 -0.7570  0.5959
16143TIP3    H169920   4.957   4.755   1.598 -0.4229  1.6570 -1.5598
16143TIP3    H269921   4.831   4.829   1.639 -1.0655  0.6774 -1.7375
16144TIP3   OH269922   6.769   4.257   4.177 -0.4695  0.2400  0.6610
16144TIP3    H169923   6.692   4.221   4.221 -0.6160  0.0269  0.2269
16144TIP3    H269924   6.741   4.273   4.087  0.3257 -0.9856  0.1715
16145TIP3   OH269925   4.375   0.619   1.610  0.1032 -0.1814 -0.3157
16145TIP3    H169926   4.396   0.678   1.537  2.1582  0.0307  0.3796
16145TIP3    H269927   4.293   0.578   1.584  0.2551  0.6185 -2.2907
16146TIP3   OH269928   2.821   6.706  13.773 -0.0306 -0.0014  0.2980
16146TIP3    H169929   2.850   6.731  13.861 -0.7054  1.6973  0.0741
16146TIP3    H269930   2.834   6.784  13.720 -0.9550 -0.5550 -0.7906
16147TIP3   OH269931   1.486   1.922  13.384 -0.3968 -0.6793 -0.1856
16147TIP3    H169932   1.424   1.912  13.311  0.0907 -0.2173 -0.6805
16147TIP3    H269933   1.451   1.867  13.453 -1.4091 -0.3635 -0.4256
16148TIP3   OH269934   2.206   3.752   1.083 -0.3014  0.5040 -0.5504
16148TIP3    H169935   2.200   3.755   0.987  0.5743 -0.2585 -0.6370
16148TIP3    H269936   2.115   3.761   1.112 -0.5200  1.3437 -1.4300
16149TIP3   OH269937   5.355   1.987  16.543  0.0171 -0.0500 -0.5512
16149TIP3    H169938   5.368   1.979  16.449 -0.1418 -1.9323 -0.4651
16149TIP3    H269939   5.308   1.906  16.567 -2.8391  1.7937  0.6568
16150TIP3   OH269940   3.866   5.450  13.460  0.5956 -0.1444 -0.3162
16150TIP3    H169941   3.937   5.509  13.436 -1.2691  1.5189 -2.2215
16150TIP3    H269942   3.836   5.482  13.545  1.5469 -0.3063  0.0874
16151TIP3   OH269943   1.275   0.708  17.080 -0.4930 -0.6368  0.3012
16151TIP3    H169944   1.306   0.696  17.170 -0.0814  1.6131  0.5047
16151TIP3    H269945   1.355   0.718  17.029 -0.6993  2.0101  0.3459
16152TIP3   OH269946   0.680   4.894   4.815 -0.1243  0.0040 -0.3500
16152TIP3    H169947   0.710   4.811   4.778  0.7306  0.1743 -0.0795
16152TIP3    H269948   0.715   4.894   4.904 -4.3423 -1.6249  1.5620
16153TIP3   OH269949   1.552   2.569  15.589 -0.3964 -0.2937 -0.5074
16153TIP3    H169950   1.598   2.603  15.665 -1.1398 -1.2798  0.4021
16153TIP3    H269951   1.622   2.548  15.526  0.4727 -2.1517  0.9976
16154TIP3   OH269952   6.263   3.347  13.884  0.3537 -0.5237  0.5203
16154TIP3    H169953   6.211   3.338  13.804  2.7392  0.0390 -1.1933
16154TIP3    H269954   6.288   3.439  13.886  0.5705 -0.5954  1.7932
16155TIP3   OH269955   4.862   4.884  13.659  0.3069 -0.3624 -0.2156
16155TIP3    H169956   4.844   4.920  13.572  0.6157  0.1554 -0.0705
16155TIP3    H269957   4.832   4.793  13.654 -2.7829  0.5226  0.1685
16156TIP3   OH269958   1.202   4.381  12.998 -0.3051 -0.2575 -0.4601
16156TIP3    H169959   1.231   4.467  12.966  3.7756 -1.0586  0.5738
16156TIP3    H269960   1.229   4.319  12.930  1.0680 -1.1188  0.8076
16157TIP3   OH269961   0.014   5.781  13.977  0.4256 -0.2599  0.2210
16157TIP3    H169962   0.033   5.765  14.069  0.1300 -1.7688  0.0390
16157TIP3    H269963  -0.019   5.871  13.975  1.3804  0.1520  1.4252
16158TIP3   OH269964   2.379   5.020   5.078  0.1908 -0.6633  0.2858
16158TIP3    H169965   2.354   5.107   5.046  0.1298 -1.0349 -0.7143
16158TIP3    H269966   2.461   5.034   5.126 -1.2159  0.3879  2.5793
16159TIP3   OH269967   1.504   6.041   1.628 -0.6863  0.0655 -0.1102
16159TIP3    H169968   1.553   6.100   1.571 -0.9963  1.5714  1.1187
16159TIP3    H269969   1.419   6.083   1.639 -0.5822 -0.0915  1.5613
16160TIP3   OH269970   5.219   1.808  14.314 -0.3170  0.0887 -0.2189
16160TIP3    H169971   5.275   1.821  14.237 -0.8950 -1.4080 -0.9473
16160TIP3    H269972   5.140   1.859  14.294 -0.6373 -0.6273 -0.8378
16161TIP3   OH269973   1.828   4.532   1.173 -0.3392  0.8912  0.2135
16161TIP3    H169974   1.863   4.550   1.260  3.1023  0.7980 -0.9896
16161TIP3    H269975   1.813   4.437   1.173  2.0138  0.4555  0.0464
16162TIP3   OH269976   2.611   1.034   1.296 -0.0646  0.5879 -0.0704
16162TIP3    H169977   2.648   1.121   1.311  0.6397  0.3199 -0.2087
16162TIP3    H269978   2.578   1.038   1.206 -0.6904  0.9333  0.1657
16163TIP3   OH269979   5.767   1.005  11.119 -0.0476  0.5003  0.0839
16163TIP3    H169980   5.810   0.938  11.066  1.3494  2.0894 -0.8500
16163TIP3    H269981   5.836   1.040  11.174 -1.0888  0.2011  1.6362
16164TIP3   OH269982   4.350   3.421  12.193  0.0846 -0.5572 -0.0266
16164TIP3    H169983   4.301   3.482  12.247 -1.1523 -1.1203 -0.4732
16164TIP3    H269984   4.432   3.407  12.241  0.1964  1.0646  0.3026
16165TIP3   OH269985   0.512   6.218  16.596  0.1440  0.0871 -0.4531
16165TIP3    H169986   0.591   6.256  16.556  0.8588 -0.4195  0.4354
16165TIP3    H269987   0.520   6.240  16.689 -0.7722  0.0159 -0.3496
16166TIP3   OH269988   6.115   0.537   5.004  0.1498  0.2397  0.0580
16166TIP3    H169989   6.026   0.507   4.986 -0.3940  1.3427  0.7695
16166TIP3    H269990   6.127   0.522   5.098  0.8548 -0.2041 -0.0878
16167TIP3   OH269991   1.200   1.552   5.614 -0.1605 -0.2617  0.6404
16167TIP3    H169992   1.294   1.531   5.618 -0.1200 -0.6527 -1.1477
16167TIP3    H269993   1.197   1.647   5.600  0.0331 -0.3535 -0.1090
16168TIP3   OH269994   3.969   0.716  11.983  0.5333  0.5918  0.3641
16168TIP3    H169995   3.944   0.773  11.910 -0.7208 -1.4039 -0.8736
16168TIP3    H269996   4.032   0.655  11.945  0.5525  0.0888  1.1777
16169TIP3   OH269997   2.260   1.899  11.867  0.5817  0.0916  0.2254
16169TIP3    H169998   2.333   1.958  11.886  0.9687 -0.3915  0.2787
16169TIP3    H269999   2.194   1.919  11.934  0.3084  1.1145 -0.3307
16170TIP3   OH270000   1.887   3.117   4.857 -0.4670 -0.1722 -0.0451
16170TIP3    H170001   1.822   3.097   4.925  0.4788  0.0754  0.9647
16170TIP3    H270002   1.862   3.061   4.784 -1.9196  0.0420  0.2444
16171TIP3   OH270003   3.533   2.270   2.940 -0.2261  0.0509  0.0601
16171TIP3    H170004   3.478   2.310   3.006 -0.5451  1.7707 -1.1782
16171TIP3    H270005   3.472   2.236   2.874  0.1177 -0.2535 -0.1087
16172TIP3   OH270006   2.605   2.532  13.191  0.0276  0.5382  0.8716
16172TIP3    H170007   2.557   2.538  13.109  0.1265 -0.0693  0.7656
16172TIP3    H270008   2.565   2.598  13.247 -1.9406 -0.8935  1.2907
16173TIP3   OH270009   2.397   4.339  13.680 -0.3283  0.2797 -0.0109
16173TIP3    H170010   2.371   4.281  13.608 -0.5980  1.9997 -1.3792
16173TIP3    H270011   2.316   4.385  13.704 -0.1444  0.0356  1.1212
16174TIP3   OH270012   5.592   5.564   6.603  0.2687 -0.0205  0.3318
16174TIP3    H170013   5.583   5.595   6.693  0.0870  0.4868  0.1443
16174TIP3    H270014   5.626   5.639   6.555  1.0451 -0.5068  0.1103
16175TIP3   OH270015   4.337   1.696   6.098 -0.4728 -0.4789 -0.1431
16175TIP3    H170016   4.352   1.658   6.185  0.4611 -0.8138 -0.4427
16175TIP3    H270017   4.253   1.659   6.071 -1.7790  1.1469  1.4106
16176TIP3   OH270018   3.756   3.957   1.721 -0.5033 -0.0218 -0.0242
16176TIP3    H170019   3.817   4.014   1.674 -1.1099 -0.7182 -1.7254
16176TIP3    H270020   3.729   4.009   1.798  1.1448  0.8192  0.0248
16177TIP3   OH270021   0.273   3.556   3.803  0.5340  0.3085  0.1822
16177TIP3    H170022   0.268   3.501   3.881  1.4702 -0.9680 -0.6172
16177TIP3    H270023   0.253   3.644   3.834  0.4509 -0.2434  1.7739
16178TIP3   OH270024   0.664   5.423   5.109 -0.4426  0.4083 -0.4009
16178TIP3    H170025   0.735   5.483   5.083  0.5389  0.1394  1.5044
16178TIP3    H270026   0.654   5.438   5.203 -1.5109 -1.0626 -0.2616
16179TIP3   OH270027   2.563   2.294  15.406  0.3160  0.0140  0.6139
16179TIP3    H170028   2.559   2.343  15.488 -1.4005 -0.7580  1.0494
16179TIP3    H270029   2.636   2.332  15.358 -1.1562  3.2671  0.7222
16180TIP3   OH270030   3.842   1.659   1.978  0.2034 -0.2675  0.3282
16180TIP3    H170031   3.815   1.749   1.958  1.4506  0.1606  0.4742
16180TIP3    H270032   3.937   1.663   1.982  0.2986 -1.6881 -0.0348
16181TIP3   OH270033   3.116   1.087   2.762  0.3037  0.2917 -0.1251
16181TIP3    H170034   3.160   1.147   2.822  0.1285 -0.4436  0.7537
16181TIP3    H270035   3.177   1.078   2.688  1.0018  0.3699  0.4339
16182TIP3   OH270036   1.653   6.792  15.053  0.0489 -0.2454  0.1829
16182TIP3    H170037   1.730   6.757  15.009 -0.5917 -1.4210 -0.0419
16182TIP3    H270038   1.588   6.802  14.983 -1.0750 -2.4103  0.8258
16183TIP3   OH270039   3.060   2.142  16.804  0.3583  0.2244 -0.0538
16183TIP3    H170040   2.987   2.115  16.859  0.8408  0.6014  0.7838
16183TIP3    H270041   3.106   2.208  16.855 -0.4990  2.3146 -1.8219
16184TIP3   OH270042   2.347   5.980  15.203  0.1359 -0.6923  0.0402
16184TIP3    H170043   2.330   6.068  15.237  0.3327 -0.0915 -1.3594
16184TIP3    H270044   2.271   5.960  15.148  0.1597 -1.3450  0.2376
16185TIP3   OH270045   4.295   6.581  17.028 -0.0511  0.2443  0.7547
16185TIP3    H170046   4.352   6.580  17.105 -1.2827  0.1589  1.6879
16185TIP3    H270047   4.217   6.629  17.056  0.5992  2.7587 -1.2985
16186TIP3   OH270048   2.783   4.424  15.352  0.5335 -0.3612 -0.2865
16186TIP3    H170049   2.783   4.408  15.258  0.2282  1.5086 -0.6507
16186TIP3    H270050   2.726   4.356  15.388 -0.6784 -0.1373 -1.6777
16187TIP3   OH270051   4.183   6.021  14.386  0.6392 -0.1665 -0.0973
16187TIP3    H170052   4.188   5.985  14.298  0.5063 -1.5595  0.4305
16187TIP3    H270053   4.163   5.945  14.442 -1.1515  0.9618  0.9151
16188TIP3   OH270054   1.731   4.178  10.627  0.1434  0.0627 -0.2758
16188TIP3    H170055   1.716   4.273  10.622 -1.6513 -0.0389  1.7306
16188TIP3    H270056   1.826   4.168  10.621  0.4362  2.0703  0.3118
16189TIP3   OH270057   5.886   1.456   4.593  0.8917  0.5908  0.8426
16189TIP3    H170058   5.939   1.510   4.535  0.8855  1.5476  1.7050
16189TIP3    H270059   5.948   1.422   4.658  1.0555 -1.1457 -0.1502
16190TIP3   OH270060   4.017   0.237   5.729  0.0039 -0.0177  0.4428
16190TIP3    H170061   4.042   0.184   5.805 -0.2859  1.1393  1.3696
16190TIP3    H270062   3.953   0.183   5.682  0.4395 -0.8877  0.8243
16191TIP3   OH270063   5.765   3.001  16.032  0.0349  0.2502 -0.0064
16191TIP3    H170064   5.676   2.966  16.024 -0.7312  2.0275  0.2243
16191TIP3    H270065   5.781   3.006  16.126 -0.3232  1.5338  0.0056
16192TIP3   OH270066   5.760   5.728  11.640 -0.1487 -0.3695 -0.3567
16192TIP3    H170067   5.852   5.745  11.660  0.1611 -1.8344 -0.4540
16192TIP3    H270068   5.729   5.674  11.712 -0.9915  0.2084 -0.2609
16193TIP3   OH270069   2.057   5.632  13.505  0.0451 -0.8681 -0.2354
16193TIP3    H170070   1.975   5.611  13.549  0.1034  2.9039  2.1469
16193TIP3    H270071   2.031   5.686  13.430  0.3012 -0.0346  0.2678
16194TIP3   OH270072   2.247   2.365  15.887 -0.4374  0.2834 -0.0013
16194TIP3    H170073   2.241   2.333  15.797 -0.9093 -0.8466  0.4075
16194TIP3    H270074   2.332   2.334  15.919  0.2358  1.6451 -0.3884
16195TIP3   OH270075   1.319   5.885   4.846 -0.0578 -0.3516  0.2847
16195TIP3    H170076   1.316   5.816   4.912  1.0483 -0.1389  0.5772
16195TIP3    H270077   1.397   5.936   4.868  1.4345 -1.3408 -2.2397
16196TIP3   OH270078   4.078   3.317  11.710 -0.2794 -0.2344  0.3057
16196TIP3    H170079   4.147   3.277  11.762 -0.2912 -0.6760 -0.0097
16196TIP3    H270080   4.119   3.394  11.670 -0.4712  0.5253  1.5268
16197TIP3   OH270081   2.335   5.607  16.637  0.0511  0.3050  0.3293
16197TIP3    H170082   2.389   5.664  16.691  1.5054 -1.1513  0.4687
16197TIP3    H270083   2.369   5.519  16.653 -1.3816 -0.4921 -0.7566
16198TIP3   OH270084   2.138   1.373  17.291  0.5175 -0.1172  0.7504
16198TIP3    H170085   2.139   1.297  17.350 -2.2139  1.5265  3.1409
16198TIP3    H270086   2.228   1.404  17.292  1.1741 -1.8667  1.6668
16199TIP3   OH270087   1.712   4.709  12.624 -0.1591  0.3280  0.0161
16199TIP3    H170088   1.808   4.706  12.621 -0.1174 -1.1216  1.3155
16199TIP3    H270089   1.692   4.769  12.696 -0.3094  2.4482 -1.7214
16200TIP3   OH270090   3.559   4.256   1.687  0.0486 -0.2464 -0.6124
16200TIP3    H170091   3.547   4.186   1.623  0.0682  0.1673 -1.0781
16200TIP3    H270092   3.643   4.295   1.663  0.1355 -0.1992 -0.2271
16201TIP3   OH270093   3.296   2.641   5.726 -0.2530  0.0899 -0.2289
16201TIP3    H170094   3.307   2.685   5.810  1.3932 -0.2220 -0.2523
16201TIP3    H270095   3.261   2.708   5.668 -0.7139  0.5033  0.5077
16202TIP3   OH270096   5.725   2.364   2.937 -0.1639  0.0159  0.6116
16202TIP3    H170097   5.793   2.321   2.886 -1.4415  0.2560 -1.4160
16202TIP3    H270098   5.657   2.298   2.948 -0.9297  0.6509 -0.1131
16203TIP3   OH270099   6.123   1.693  17.061  0.2238 -0.7780  0.0411
16203TIP3    H170100   6.069   1.703  16.983  1.4503 -1.3756 -0.9081
16203TIP3    H270101   6.125   1.780  17.100  0.7871 -0.1100 -1.4074
16204TIP3   OH270102   2.735   4.167  16.965 -0.2267  0.4547  0.0632
16204TIP3    H170103   2.735   4.191  16.872 -0.6776 -1.6413 -0.5178
16204TIP3    H270104   2.783   4.084  16.968  0.3416  0.8093  1.8179
16205TIP3   OH270105   6.082   5.630   1.317  0.4310 -0.4233  0.0721
16205TIP3    H170106   6.139   5.656   1.245  0.8321  0.2125  0.6180
16205TIP3    H270107   6.130   5.652   1.396 -0.3948 -0.2626  0.5436
16206TIP3   OH270108   1.528   5.783  11.395 -0.1658 -0.1240  0.0285
16206TIP3    H170109   1.504   5.760  11.485 -3.3136  0.1220 -0.6177
16206TIP3    H270110   1.498   5.874  11.385  1.5355  0.3828 -0.8588
16207TIP3   OH270111   1.403   0.611  13.475  0.3016 -0.0950  0.3158
16207TIP3    H170112   1.486   0.647  13.507 -0.1238  2.3280 -1.0922
16207TIP3    H270113   1.418   0.593  13.383 -0.3230 -1.0882  0.3880
16208TIP3   OH270114   3.371   3.967   2.299 -0.6776  0.0135  0.1725
16208TIP3    H170115   3.381   3.922   2.215  0.3248  0.0598  0.2567
16208TIP3    H270116   3.332   3.901   2.356  0.2665 -0.5951  0.1446
16209TIP3   OH270117   4.620   4.141   1.152  0.8646 -0.3321 -0.1682
16209TIP3    H170118   4.636   4.060   1.104  1.7831 -0.2421 -0.0319
16209TIP3    H270119   4.629   4.117   1.244 -0.7777 -0.4769 -0.0091
16210TIP3   OH270120   4.715   5.865   4.013  0.2515 -0.3617  0.1666
16210TIP3    H170121   4.687   5.776   3.990  0.6599 -0.8112  1.3211
16210TIP3    H270122   4.809   5.865   3.999  0.2903 -0.1915  0.4320
16211TIP3   OH270123   0.638   6.321   0.931  0.1147  0.2234  0.6491
16211TIP3    H170124   0.662   6.229   0.945  1.0403  0.5074  1.0051
16211TIP3    H270125   0.695   6.350   0.860 -1.1929  0.1339 -0.4666
16212TIP3   OH270126   2.240   2.124  11.084 -0.0107 -0.2648 -0.9787
16212TIP3    H170127   2.201   2.199  11.039  2.6197  0.1808 -2.7354
16212TIP3    H270128   2.189   2.049  11.053 -1.8675  0.5931 -0.1822
16213TIP3   OH270129   2.838   2.572   1.151  0.2655  0.6808 -0.1747
16213TIP3    H170130   2.923   2.537   1.126 -0.0978  0.8477 -1.7306
16213TIP3    H270131   2.843   2.666   1.131 -0.1642  0.7617  0.0717
16214TIP3   OH270132   3.630   1.910  14.276 -0.1912  0.1702  0.1236
16214TIP3    H170133   3.562   1.859  14.232 -1.7068  1.8975  0.3292
16214TIP3    H270134   3.675   1.956  14.205 -1.5087  1.6177  0.1525
16215TIP3   OH270135   4.359   0.178  14.256  0.1915 -0.7551 -0.3096
16215TIP3    H170136   4.424   0.137  14.314  0.3463 -2.3467 -1.5401
16215TIP3    H270137   4.412   0.232  14.197  0.0854  0.4021  0.6225
16216TIP3   OH270138   4.765   2.651  12.865  0.2873 -0.1943  0.2313
16216TIP3    H170139   4.719   2.734  12.863 -0.2371 -0.4888 -0.1576
16216TIP3    H270140   4.721   2.601  12.934 -0.6119 -0.8248 -0.7663
16217TIP3   OH270141   4.675   3.148   0.709 -0.1163 -0.1244 -0.4929
16217TIP3    H170142   4.601   3.208   0.711  0.4774  0.6153 -0.4506
16217TIP3    H270143   4.697   3.133   0.801  0.6434  0.7430 -0.5206
16218TIP3   OH270144   2.717   3.842   2.986 -0.8959 -0.1200 -1.0485
16218TIP3    H170145   2.812   3.835   2.974 -0.8920  0.4377 -1.3737
16218TIP3    H270146   2.685   3.753   2.977 -0.3810 -0.3378 -0.7626
16219TIP3   OH270147   6.178   2.487  15.583  0.1061  0.0510 -0.1485
16219TIP3    H170148   6.132   2.569  15.568  1.4969  1.1635  1.3756
16219TIP3    H270149   6.269   2.506  15.560  0.3634 -1.2355 -0.2729
16220TIP3   OH270150   0.281   2.547  11.990 -0.1897 -0.1832 -0.0778
16220TIP3    H170151   0.317   2.621  11.941 -1.1703 -0.3980 -1.1476
16220TIP3    H270152   0.206   2.583  12.037  0.3643 -0.1252  0.7873
16221TIP3   OH270153   4.597   1.862   1.400  0.2045  0.5958 -0.3661
16221TIP3    H170154   4.632   1.861   1.489  1.0620  2.4365 -0.6319
16221TIP3    H270155   4.502   1.856   1.412  0.3554 -0.0717  0.6087
16222TIP3   OH270156   5.584   3.913   6.407 -0.5377 -0.0620 -0.6807
16222TIP3    H170157   5.594   3.851   6.478  0.6598 -0.9090 -1.5384
16222TIP3    H270158   5.500   3.955   6.423 -0.6377 -0.7666  0.7957
16223TIP3   OH270159   4.928   0.835  16.795 -0.4260 -0.0667  0.3735
16223TIP3    H170160   4.847   0.871  16.760  0.6926  1.1585 -1.1306
16223TIP3    H270161   4.911   0.741  16.803 -1.6180 -0.0084 -1.0289
16224TIP3   OH270162   0.509   0.806  11.290 -0.2352  0.1834  0.1196
16224TIP3    H170163   0.483   0.746  11.360  1.7163  0.7923  1.4522
16224TIP3    H270164   0.565   0.753  11.233  1.4835  0.6857  1.2939
16225TIP3   OH270165   6.582   4.819   2.397 -0.2563 -0.2963  0.7870
16225TIP3    H170166   6.604   4.909   2.421  0.9824 -0.2606 -0.3713
16225TIP3    H270167   6.596   4.768   2.477  0.3715  0.3271  1.0854
16226TIP3   OH270168   3.008   6.558   5.072 -0.1005 -0.1054  0.2094
16226TIP3    H170169   2.959   6.640   5.080 -1.3465 -0.8972  0.9781
16226TIP3    H270170   3.044   6.543   5.160 -1.2520 -1.2010  0.5140
16227TIP3   OH270171   6.532   1.301  14.627  0.2475 -0.8221  0.5471
16227TIP3    H170172   6.612   1.334  14.667  1.7821  0.0974 -2.8419
16227TIP3    H270173   6.480   1.379  14.610 -0.4084 -1.1885  0.8438
16228TIP3   OH270174   2.000   5.203   4.903 -0.2965 -0.4503 -0.2392
16228TIP3    H170175   2.065   5.270   4.920  1.2059 -2.2437  1.4898
16228TIP3    H270176   2.022   5.170   4.816 -1.0888  1.2260 -1.1379
16229TIP3   OH270177   2.401   0.970   5.019  0.6908 -0.1742  0.1611
16229TIP3    H170178   2.452   0.988   4.940  0.2866 -0.4439 -0.1588
16229TIP3    H270179   2.357   1.052   5.038 -0.8635 -0.6760 -1.0931
16230TIP3   OH270180   5.222   1.629   3.575  0.2754 -0.2116  0.6141
16230TIP3    H170181   5.191   1.622   3.665  1.9372  1.8561  1.4387
16230TIP3    H270182   5.277   1.552   3.562 -1.2161 -1.3479  0.7787
16231TIP3   OH270183   0.540   1.349  17.119  0.6457 -0.1871  0.5330
16231TIP3    H170184   0.574   1.422  17.170 -0.7671  1.5965 -0.9284
16231TIP3    H270185   0.509   1.389  17.038 -2.6787 -1.9523  0.7458
16232TIP3   OH270186   4.117   1.495  13.845  0.4583  0.0291 -0.1763
16232TIP3    H170187   4.168   1.570  13.813 -0.4689  1.5321  1.7015
16232TIP3    H270188   4.040   1.493  13.787  0.3639  0.6938 -0.0833
16233TIP3   OH270189   6.327   2.618  16.994  0.1031  0.2218  0.5559
16233TIP3    H170190   6.405   2.623  16.939  0.7026  1.1355  1.4395
16233TIP3    H270191   6.269   2.686  16.959  0.0500  0.0975  0.4036
16234TIP3   OH270192   6.811   2.734   5.304 -0.0220  0.8129 -0.0644
16234TIP3    H170193   6.729   2.752   5.349  0.5446 -0.6595  1.6805
16234TIP3    H270194   6.874   2.714   5.374  0.9962 -1.1873 -1.4230
16235TIP3   OH270195   2.710   4.120  11.927 -0.4982 -0.0708 -0.1263
16235TIP3    H170196   2.749   4.168  11.854  0.1715 -0.8407 -0.2896
16235TIP3    H270197   2.734   4.029  11.911 -1.5934 -0.4401  0.2737
16236TIP3   OH270198   3.976   4.401   3.834  0.0413 -0.1313 -0.2058
16236TIP3    H170199   3.983   4.488   3.794  0.0005  0.5155  1.1262
16236TIP3    H270200   3.978   4.340   3.761  3.1157  0.8133 -1.0532
16237TIP3   OH270201   1.336   3.779  12.466  0.7672  0.4645  0.7356
16237TIP3    H170202   1.243   3.790  12.449  0.7959  0.5130  0.6075
16237TIP3    H270203   1.378   3.799  12.382  0.9472  1.1694  0.9880
16238TIP3   OH270204   6.136   1.797   4.114  0.4944 -0.1831  0.1259
16238TIP3    H170205   6.139   1.866   4.181 -0.1135  0.2031 -0.2364
16238TIP3    H270206   6.072   1.828   4.050  1.3064 -0.3910 -0.8202
16239TIP3   OH270207   5.539   3.963  16.555  0.5433  0.0052  0.2335
16239TIP3    H170208   5.531   3.999  16.467  1.2463 -0.4681 -0.0287
16239TIP3    H270209   5.497   3.877  16.550  1.4730 -0.4420  0.0993
16240TIP3   OH270210   2.991   1.807   3.836  1.0515 -0.1352  0.2332
16240TIP3    H170211   3.036   1.760   3.766  0.1215 -0.8130  0.0735
16240TIP3    H270212   2.986   1.898   3.804  0.6064 -0.4457 -0.6082
16241TIP3   OH270213   1.509   5.749  11.687  0.1109  0.4092  0.2488
16241TIP3    H170214   1.526   5.655  11.689  1.5046  0.6136 -0.1891
16241TIP3    H270215   1.526   5.779  11.776  0.3299  0.3296  0.2363
16242TIP3   OH270216   2.937   2.168   3.131  0.2093 -0.6700  0.5342
16242TIP3    H170217   3.013   2.200   3.082 -0.4407  1.0511  0.5755
16242TIP3    H270218   2.861   2.197   3.081 -0.4553 -1.9643  0.7316
16243TIP3   OH270219   4.589   1.991   2.914  0.2965 -0.0126  0.0517
16243TIP3    H170220   4.649   2.058   2.882 -0.2799  0.3650 -0.2594
16243TIP3    H270221   4.504   2.034   2.915 -0.3361 -1.1429 -1.4721
16244TIP3   OH270222   0.447   3.980   4.723 -0.1933 -0.4254 -0.5216
16244TIP3    H170223   0.497   3.898   4.718  0.9564  0.2602 -0.5942
16244TIP3    H270224   0.356   3.952   4.732  0.2303 -1.7111 -0.0108
16245TIP3   OH270225   5.191   5.522  11.175  0.8098  0.1173  0.3411
16245TIP3    H170226   5.212   5.471  11.096 -0.3535  0.4236 -0.1909
16245TIP3    H270227   5.200   5.613  11.148  1.6197  0.2186  0.9253
16246TIP3   OH270228   2.548   5.729  15.462 -0.5763  0.0504 -0.1582
16246TIP3    H170229   2.588   5.791  15.401 -0.5391  1.2165  1.0025
16246TIP3    H270230   2.618   5.669  15.485 -0.7233 -0.7266 -1.6350
16247TIP3   OH270231   3.002   0.531   1.901  0.2618  0.6057 -0.1144
16247TIP3    H170232   2.938   0.577   1.955 -0.2455 -2.0560  1.7512
16247TIP3    H270233   2.951   0.492   1.831 -0.3302 -1.5621  1.4029
16248TIP3   OH270234   5.230   4.363   2.053  0.2390  0.3122  0.3166
16248TIP3    H170235   5.320   4.330   2.061 -0.1683 -1.0929 -0.5815
16248TIP3    H270236   5.203   4.337   1.965 -1.1194  0.5501  0.6455
16249TIP3   OH270237   5.276   5.768   2.299 -0.4810 -0.0159  0.1103
16249TIP3    H170238   5.215   5.698   2.274 -0.3123  0.7671 -2.8569
16249TIP3    H270239   5.362   5.735   2.274 -0.4146  1.2238 -1.4909
16250TIP3   OH270240   6.189   4.971  13.802  0.3941 -0.2084  0.3923
16250TIP3    H170241   6.111   4.982  13.856  1.4272  0.1746  1.8781
16250TIP3    H270242   6.253   5.031  13.841  2.3058 -2.4871  0.9972
16251TIP3   OH270243   6.156   4.326   1.553 -0.3547  0.2124  0.2814
16251TIP3    H170244   6.085   4.335   1.490  0.6994  1.2093 -0.8062
16251TIP3    H270245   6.235   4.350   1.505  0.8698 -1.7120  1.2073
16252TIP3   OH270246   2.872   1.945  16.950 -0.3407  0.0809  0.6498
16252TIP3    H170247   2.825   1.874  16.993  0.2220 -0.2686  0.6934
16252TIP3    H270248   2.954   1.906  16.922 -0.2655  0.5733  0.1735
16253TIP3   OH270249   3.171   2.071  11.724  0.0847  0.0001 -0.4484
16253TIP3    H170250   3.192   2.009  11.653 -0.6203 -0.1507 -0.5354
16253TIP3    H270251   3.080   2.051  11.746  0.7112 -0.9500  1.5022
16254TIP3   OH270252   1.431   4.647  12.026 -0.2218  0.4339 -0.0740
16254TIP3    H170253   1.394   4.697  12.098 -0.5377  1.3436 -0.8448
16254TIP3    H270254   1.421   4.704  11.949 -2.1401 -1.4007 -1.3225
16255TIP3   OH270255   4.166   2.799  13.800 -0.0968  0.6157 -0.3165
16255TIP3    H170256   4.217   2.718  13.805 -0.3695  0.4398 -0.3755
16255TIP3    H270257   4.174   2.837  13.888 -1.0024 -0.1155  0.1101
16256TIP3   OH270258   1.175   6.538   3.766  0.1191  0.3532 -0.2524
16256TIP3    H170259   1.259   6.531   3.811 -0.2314  0.9380  0.5190
16256TIP3    H270260   1.141   6.448   3.765 -0.2622  0.4413  1.4692
16257TIP3   OH270261   3.314   1.754   1.473  0.1514  0.1179  0.3703
16257TIP3    H170262   3.340   1.679   1.422  0.6404  0.2039  0.4886
16257TIP3    H270263   3.353   1.829   1.428 -0.2369  0.2890  0.3156
16258TIP3   OH270264   0.747   1.273   3.128 -0.5520 -0.4965  0.0009
16258TIP3    H170265   0.748   1.368   3.129  0.5173 -0.4999  0.6249
16258TIP3    H270266   0.687   1.249   3.198 -0.4844 -0.2772  0.1352
16259TIP3   OH270267   6.155   5.043  11.815 -0.5089 -0.3499  0.0736
16259TIP3    H170268   6.100   4.964  11.818 -0.7897 -0.1275  1.0463
16259TIP3    H270269   6.172   5.063  11.907  0.6088  0.0032 -0.1997
16260TIP3   OH270270   3.279   1.056   1.592  0.3456  0.0701 -0.3714
16260TIP3    H170271   3.358   1.041   1.539  0.4876 -0.7524  0.0528
16260TIP3    H270272   3.285   0.991   1.662 -0.0032  0.9328  0.4798
16261TIP3   OH270273   4.743   4.989   1.678  0.7696 -0.5059 -0.2952
16261TIP3    H170274   4.729   5.082   1.697  1.9581 -0.5278  0.7978
16261TIP3    H270275   4.662   4.946   1.706 -0.2992  0.3015 -1.9551
16262TIP3   OH270276   2.910   4.466  16.057  0.3039  0.4056 -0.3101
16262TIP3    H170277   2.837   4.522  16.084 -0.2663 -0.1798 -0.6155
16262TIP3    H270278   2.976   4.527  16.024  0.1678  0.9810  0.4534
16263TIP3   OH270279   1.469   3.673  15.786 -0.2208  0.0278 -0.3846
16263TIP3    H170280   1.427   3.699  15.704 -0.9310 -2.6886 -0.9877
16263TIP3    H270281   1.411   3.606  15.823  0.0938  1.1602  2.3856
16264TIP3   OH270282   1.899   2.572   2.127  0.8911 -0.3456  0.7668
16264TIP3    H170283   1.861   2.499   2.177  0.9390  0.0095  1.3348
16264TIP3    H270284   1.985   2.539   2.099  0.7700 -0.6291  0.7303
16265TIP3   OH270285   3.252   2.751   2.755  0.1742 -0.2378 -0.1436
16265TIP3    H170286   3.305   2.723   2.829  3.2050  1.0494 -1.6395
16265TIP3    H270287   3.223   2.840   2.778  2.1742  0.6740 -0.8715
16266TIP3   OH270288   5.446   0.350  12.859  0.3501 -0.4111  0.5704
16266TIP3    H170289   5.370   0.403  12.884 -0.4905 -1.1214 -0.3780
16266TIP3    H270290   5.423   0.261  12.883 -0.1604 -1.0059 -1.8116
16267TIP3   OH270291   2.722   5.872  13.929 -0.1129 -0.4314  1.0216
16267TIP3    H170292   2.650   5.900  13.873  0.8257  0.7639  0.3603
16267TIP3    H270293   2.752   5.789  13.892  0.4952  0.3405 -0.2988
16268TIP3   OH270294   3.277   4.917   0.542  0.3647 -0.7027  0.0879
16268TIP3    H170295   3.303   4.826   0.529 -2.3799 -1.7312  1.0056
16268TIP3    H270296   3.245   4.945   0.456 -0.6524 -1.3188  0.2463
16269TIP3   OH270297   2.431   3.538   4.511 -0.6707  0.2318  0.4913
16269TIP3    H170298   2.344   3.579   4.512 -0.9393 -0.3049 -0.1101
16269TIP3    H270299   2.479   3.583   4.580 -1.7366 -0.1467  1.5265
16270TIP3   OH270300   2.491   3.684  16.804  0.0299  0.1258 -0.4248
16270TIP3    H170301   2.478   3.685  16.899  2.0698 -0.9826 -0.0610
16270TIP3    H270302   2.531   3.599  16.787  0.2714  0.5619 -2.1882
16271TIP3   OH270303   3.694   0.175  13.257  0.1355 -0.0807 -0.8429
16271TIP3    H170304   3.723   0.200  13.169  2.4061 -1.3276 -0.5350
16271TIP3    H270305   3.753   0.104  13.282  0.3454  1.0245  2.1858
16272TIP3   OH270306   1.183   4.911  15.684 -0.4692  0.7494 -0.4596
16272TIP3    H170307   1.243   4.974  15.644  0.9926 -0.3487 -0.0711
16272TIP3    H270308   1.194   4.922  15.778  2.3281 -2.2053 -0.2562
16273TIP3   OH270309   1.065   3.296   0.586 -0.0368  0.3714 -0.0620
16273TIP3    H170310   1.095   3.223   0.532 -0.5325 -1.3761  1.8576
16273TIP3    H270311   0.981   3.321   0.548  0.1833 -0.0019 -0.8139
16274TIP3   OH270312   2.005   1.389  14.293 -0.5041 -0.7495 -0.3060
16274TIP3    H170313   1.990   1.483  14.281 -2.7228 -1.0331 -0.3053
16274TIP3    H270314   2.062   1.364  14.221  1.8050  0.8975  0.8070
16275TIP3   OH270315   0.243   3.368   4.016  0.4866 -0.3558  0.5939
16275TIP3    H170316   0.264   3.348   4.107 -1.6502 -1.5185  0.8934
16275TIP3    H270317   0.230   3.282   3.975  1.6188  0.1332 -0.9026
16276TIP3   OH270318   6.632   4.120  14.922 -0.2499 -0.4186  0.1286
16276TIP3    H170319   6.663   4.180  14.854 -0.8543 -0.4875 -0.2165
16276TIP3    H270320   6.711   4.077  14.954 -0.0546 -1.1096 -1.2247
16277TIP3   OH270321   2.301   4.751  14.117 -0.0671 -0.0261 -0.0600
16277TIP3    H170322   2.319   4.842  14.141 -1.3208  0.2436 -0.0440
16277TIP3    H270323   2.332   4.700  14.192  1.7300  0.2668 -0.5770
16278TIP3   OH270324   0.144   5.063  16.881 -0.3110 -0.5933 -0.2886
16278TIP3    H170325   0.082   5.048  16.810  1.0895 -1.9369 -1.2881
16278TIP3    H270326   0.164   5.157  16.875 -1.8843 -0.2121 -0.1958
16279TIP3   OH270327   1.453   5.375   0.340 -0.5833 -0.4715  0.4400
16279TIP3    H170328   1.503   5.396   0.419 -0.0226 -1.7435  0.4436
16279TIP3    H270329   1.362   5.377   0.367 -0.4139 -0.5333  1.0229
16280TIP3   OH270330   2.983   3.512   2.464 -0.1173  0.0046  0.1908
16280TIP3    H170331   2.984   3.472   2.551  0.4543 -0.4021 -0.0013
16280TIP3    H270332   3.048   3.463   2.414 -1.7065 -0.9525 -0.9998
16281TIP3   OH270333   4.381   3.711  16.460  0.4255 -0.0803 -0.2434
16281TIP3    H170334   4.302   3.733  16.411 -0.7166  1.4269  2.0903
16281TIP3    H270335   4.352   3.704  16.551  2.5594 -2.0488  0.3868
16282TIP3   OH270336   3.530   0.188   2.019  0.2765  0.0382 -0.1374
16282TIP3    H170337   3.562   0.099   1.999  1.3544  0.0530  1.3100
16282TIP3    H270338   3.532   0.192   2.115 -1.1713  1.1502 -0.1324
16283TIP3   OH270339   5.843   3.935   5.519  0.0142  0.3889 -0.1368
16283TIP3    H170340   5.799   3.868   5.467  0.5072 -0.4642  0.5105
16283TIP3    H270341   5.799   4.017   5.495 -1.2581 -0.2902 -0.2263
16284TIP3   OH270342   0.035   3.856   0.841 -0.5763  0.2734  0.2053
16284TIP3    H170343   0.079   3.881   0.922  0.3120 -0.7301  0.0525
16284TIP3    H270344  -0.013   3.776   0.863  1.9474 -1.6754 -0.8900
16285TIP3   OH270345   5.029   2.769  12.809  0.3727 -0.0191 -0.1778
16285TIP3    H170346   4.989   2.836  12.754  1.3033  0.2668 -0.5409
16285TIP3    H270347   4.974   2.692  12.798  0.8447 -0.1496 -1.9986
16286TIP3   OH270348   6.769   5.097   2.186  0.4427 -0.0692  0.3981
16286TIP3    H170349   6.821   5.082   2.265  1.5314 -0.1659 -0.3242
16286TIP3    H270350   6.703   5.161   2.213 -0.9034 -2.0001  2.1030
16287TIP3   OH270351   4.816   0.505   0.021 -0.4414  0.8686  0.1079
16287TIP3    H170352   4.889   0.491  -0.039  0.2133  0.8390  0.8921
16287TIP3    H270353   4.739   0.483  -0.030  0.2897 -2.5362  0.2663
16288TIP3   OH270354   5.730   3.436  16.018 -0.2779 -0.4176  0.2137
16288TIP3    H170355   5.782   3.421  15.939  0.3689 -1.8273  0.8732
16288TIP3    H270356   5.775   3.506  16.065  0.0899 -0.5026 -0.0141
16289TIP3   OH270357   0.737   0.769   0.269  0.2859  0.3857 -0.1688
16289TIP3    H170358   0.696   0.846   0.310 -1.2714 -0.3700 -0.2430
16289TIP3    H270359   0.724   0.782   0.175  0.6337  0.3431 -0.2259
16290TIP3   OH270360   1.797   4.673   4.809 -0.3398  0.0773  0.5236
16290TIP3    H170361   1.871   4.734   4.811  0.9857 -1.3826 -0.8427
16290TIP3    H270362   1.722   4.728   4.785  0.3651  1.5076  1.4330
16291TIP3   OH270363   1.394   1.813   0.383 -0.1061  0.6220 -0.6865
16291TIP3    H170364   1.482   1.777   0.394  0.4337  2.0162 -0.1821
16291TIP3    H270365   1.395   1.851   0.295 -0.8587 -1.0295 -1.4420
16292TIP3   OH270366   3.146   5.477  12.158 -0.7370 -0.2464  0.0051
16292TIP3    H170367   3.134   5.471  12.063 -1.2235  0.6093  0.0086
16292TIP3    H270368   3.205   5.551  12.170  0.6225 -1.3416  0.2924
16293TIP3   OH270369   2.325   0.538  16.615 -0.7422  0.4234 -0.0083
16293TIP3    H170370   2.394   0.578  16.667 -0.2751 -0.7197  0.2903
16293TIP3    H270371   2.289   0.610  16.563  1.7713  0.8140 -1.3928
16294TIP3   OH270372   0.845   2.794   6.148  0.9365  0.1742  0.1046
16294TIP3    H170373   0.818   2.751   6.229  1.0232  1.9665  1.1465
16294TIP3    H270374   0.919   2.849   6.174  0.1536  1.7753 -0.8606
16295TIP3   OH270375   1.760   2.225  16.798 -0.3042 -0.8577  0.5201
16295TIP3    H170376   1.836   2.194  16.749 -0.4139  1.2272 -1.1324
16295TIP3    H270377   1.798   2.276  16.870 -0.1667 -2.6146  1.7639
16296TIP3   OH270378   6.121   4.094  14.181 -0.3839  0.3067 -0.1618
16296TIP3    H170379   6.139   4.163  14.118 -1.9989  1.0725  0.1904
16296TIP3    H270380   6.202   4.087  14.232  0.0568  1.4137 -0.6833
16297TIP3   OH270381   3.451   0.352  11.278 -0.3292 -0.3318  0.0769
16297TIP3    H170382   3.382   0.341  11.212 -0.1571 -1.1830  0.0387
16297TIP3    H270383   3.426   0.293  11.348  0.3339 -0.5965  0.0889
16298TIP3   OH270384   4.866   6.401  12.650 -0.2624 -0.4464  0.3516
16298TIP3    H170385   4.871   6.381  12.743  0.7531 -0.8423  0.2164
16298TIP3    H270386   4.953   6.434  12.627 -0.7957  0.6309 -0.2448
16299TIP3   OH270387   1.178   1.884  15.582  0.1349  0.2892  0.2339
16299TIP3    H170388   1.195   1.975  15.607 -2.3373  0.5511  1.2549
16299TIP3    H270389   1.172   1.886  15.487 -0.9126  1.4445  0.2936
16300TIP3   OH270390   4.478   3.758  14.539 -0.1874  0.4178  0.3009
16300TIP3    H170391   4.467   3.844  14.499 -0.2596  0.3389  0.1530
16300TIP3    H270392   4.462   3.696  14.469 -0.0019  0.2837  0.3762
16301TIP3   OH270393   2.188   3.531   2.855  0.2688  0.1706 -0.1967
16301TIP3    H170394   2.215   3.620   2.876 -2.0647  0.4818  1.9430
16301TIP3    H270395   2.236   3.476   2.918  0.7760  0.0140 -0.7077
16302TIP3   OH270396   5.295   6.399  16.345 -0.1157 -0.1369 -0.1174
16302TIP3    H170397   5.218   6.418  16.291  1.0800 -0.1232 -1.8787
16302TIP3    H270398   5.303   6.304  16.344  0.5446 -0.0801 -0.9058
16303TIP3   OH270399   3.264   3.782   2.473  0.5048  0.1826 -0.1740
16303TIP3    H170400   3.171   3.768   2.456  0.7856  1.2293 -3.0699
16303TIP3    H270401   3.299   3.694   2.493 -1.1220 -0.1421  1.5408
16304TIP3   OH270402   5.446   6.460   0.152 -0.3361 -0.6117 -0.0433
16304TIP3    H170403   5.402   6.436   0.233 -0.6450  0.0738  0.0030
16304TIP3    H270404   5.383   6.516   0.106  0.1117 -0.4069 -0.4216
16305TIP3   OH270405   2.719   5.197  16.148  0.0149  0.4088  0.0269
16305TIP3    H170406   2.652   5.261  16.170 -2.8118 -1.4459 -2.3668
16305TIP3    H270407   2.702   5.123  16.206  0.1145  0.0091 -0.4444
16306TIP3   OH270408   5.315   1.257  17.104 -0.6785  0.3980  0.1619
16306TIP3    H170409   5.306   1.230  17.195  2.1823  1.4098  0.8560
16306TIP3    H270410   5.319   1.352  17.107 -1.0370  0.4649 -1.0785
16307TIP3   OH270411   6.695   5.416  15.287  0.1770 -0.7200 -0.4308
16307TIP3    H170412   6.688   5.339  15.343  0.2325 -0.2682  0.2000
16307TIP3    H270413   6.779   5.456  15.310 -1.0456  1.0578  1.2339
16308TIP3   OH270414   2.505   2.210  11.054 -0.2914 -0.3214 -0.0305
16308TIP3    H170415   2.510   2.192  10.960 -1.5470 -1.0280  0.0021
16308TIP3    H270416   2.414   2.188  11.077  0.0463 -0.3365  1.3794
16309TIP3   OH270417   3.391   1.444  16.159  0.0349  0.0998 -0.2424
16309TIP3    H170418   3.473   1.427  16.114 -0.8769 -0.2882 -1.8462
16309TIP3    H270419   3.378   1.539  16.151  0.7548  0.3113  0.8478
16310TIP3   OH270420   1.167   5.623  10.697 -0.1672 -0.4717 -0.4686
16310TIP3    H170421   1.076   5.598  10.681 -0.2718  0.0736 -0.7598
16310TIP3    H270422   1.218   5.549  10.665 -0.5136 -0.8848 -0.0844
16311TIP3   OH270423   0.400   5.822   0.927 -0.6869 -0.5842 -0.1598
16311TIP3    H170424   0.313   5.861   0.940 -0.2296 -0.1450  2.0251
16311TIP3    H270425   0.399   5.743   0.982  0.4799 -0.2802  0.3206
16312TIP3   OH270426   1.945   6.581  13.532  0.3994  0.3829 -0.2810
16312TIP3    H170427   1.886   6.583  13.607  1.5972  3.7595  0.7388
16312TIP3    H270428   1.886   6.569  13.457 -1.2875  1.0305  0.8723
16313TIP3   OH270429   6.492   3.895   3.455  0.0107 -0.6310 -0.3913
16313TIP3    H170430   6.582   3.924   3.471 -0.2905 -0.0401  0.2381
16313TIP3    H270431   6.501   3.802   3.431  0.7279 -0.7594  0.3381
16314TIP3   OH270432   6.008   3.123  14.458  0.1707 -0.2974  0.1390
16314TIP3    H170433   5.993   3.080  14.542  0.2726 -1.4577 -0.4168
16314TIP3    H270434   5.972   3.062  14.394  1.5805 -0.1914 -0.7803
16315TIP3   OH270435   5.091   5.064  12.923  0.0428 -0.3199  0.1781
16315TIP3    H170436   5.158   5.073  12.855  1.0259 -0.7098  1.0718
16315TIP3    H270437   5.139   5.031  12.999 -0.9466  0.5958  1.2248
16316TIP3   OH270438   3.607   6.605  15.566 -0.5138  0.5255  0.1866
16316TIP3    H170439   3.516   6.575  15.566 -1.0660  2.1199 -0.3785
16316TIP3    H270440   3.639   6.584  15.654 -1.3496 -0.2446  0.3209
16317TIP3   OH270441   3.473   2.881  11.589  0.8051  0.1016 -0.3982
16317TIP3    H170442   3.494   2.798  11.631  3.0132 -0.3752 -2.2520
16317TIP3    H270443   3.381   2.873  11.565  0.7259 -1.4026  0.3072
16318TIP3   OH270444   2.380   4.965  16.448 -0.0141 -0.0709 -0.2326
16318TIP3    H170445   2.380   4.942  16.541  0.0751  0.3704 -0.1204
16318TIP3    H270446   2.328   5.045  16.443  1.1755  0.7136 -0.3528
16319TIP3   OH270447   4.774   3.457   6.703 -0.0225  0.4964 -0.6977
16319TIP3    H170448   4.718   3.515   6.755  1.4624  2.5702 -1.3341
16319TIP3    H270449   4.725   3.443   6.622 -0.2642  1.0789 -0.6550
16320TIP3   OH270450   5.682   0.597   4.432 -0.1659 -0.2365 -0.4347
16320TIP3    H170451   5.590   0.622   4.435  0.4190  2.0592  1.2100
16320TIP3    H270452   5.711   0.621   4.344 -0.4430  2.0688  0.0392
16321TIP3   OH270453   4.672   2.891   3.211  0.0219 -0.2402 -0.6667
16321TIP3    H170454   4.754   2.873   3.165  1.9000 -0.1675  2.3815
16321TIP3    H270455   4.625   2.808   3.210  1.5541 -1.1619  0.0928
16322TIP3   OH270456   3.278   5.143  15.927 -0.2936  0.2477  0.0691
16322TIP3    H170457   3.294   5.080  15.997  0.9862 -0.2759 -0.6510
16322TIP3    H270458   3.294   5.228  15.967  2.6350 -0.1423 -0.0587
16323TIP3   OH270459   1.668   3.380   4.941  0.1287 -0.1554 -0.1039
16323TIP3    H170460   1.619   3.449   4.987 -0.1389 -1.2144  1.2410
16323TIP3    H270461   1.755   3.419   4.926  0.2437  0.2165  1.3505
16324TIP3   OH270462   0.970   2.356  13.093 -0.8344  0.4188 -0.3200
16324TIP3    H170463   1.010   2.328  13.175  1.0003  1.4617 -0.7866
16324TIP3    H270464   0.971   2.452  13.097  2.6040  0.6815 -2.8925
16325TIP3   OH270465   0.347   3.764   4.251  0.7462 -0.2655 -0.5351
16325TIP3    H170466   0.352   3.690   4.310 -0.9445 -0.5736 -0.7304
16325TIP3    H270467   0.265   3.807   4.272  1.2604  1.0359 -1.0412
16326TIP3   OH270468   1.789   2.847   1.263 -0.1408  0.2475 -0.1591
16326TIP3    H170469   1.761   2.772   1.315  2.1492  0.4760  1.5672
16326TIP3    H270470   1.884   2.841   1.262 -0.0115  1.6097 -2.3875
16327TIP3   OH270471   3.847   5.997   5.832  0.0539  0.4607  0.2753
16327TIP3    H170472   3.792   6.031   5.762  1.0348 -0.2243 -0.8667
16327TIP3    H270473   3.858   5.904   5.811 -1.4872 -0.3301  2.5972
16328TIP3   OH270474   5.544   6.019  15.098 -0.4460 -0.4165 -0.0144
16328TIP3    H170475   5.567   6.111  15.083  0.5543 -0.9511 -2.2933
16328TIP3    H270476   5.612   5.987  15.158  0.8208 -0.2724 -1.3010
16329TIP3   OH270477   1.398   5.560   3.180  0.1073 -0.2035  0.2866
16329TIP3    H170478   1.316   5.515   3.162  0.5505 -1.1998  0.6681
16329TIP3    H270479   1.372   5.647   3.212 -0.7589 -0.0936 -0.6832
16330TIP3   OH270480   2.634   2.673  13.898 -0.3745 -0.3107 -0.7988
16330TIP3    H170481   2.585   2.679  13.980  1.9344 -0.1928  0.6857
16330TIP3    H270482   2.568   2.680  13.829 -2.5574 -1.6346  1.0291
16331TIP3   OH270483   6.206   4.150  12.917  0.2814  0.4223  0.2613
16331TIP3    H170484   6.298   4.124  12.917 -0.1977 -1.4864 -1.2020
16331TIP3    H270485   6.193   4.191  12.831 -0.3861 -0.0110  0.1418
16332TIP3   OH270486   5.832   3.840  16.439 -0.8925  0.3880 -0.6005
16332TIP3    H170487   5.806   3.748  16.440  1.8432 -0.4446 -0.4917
16332TIP3    H270488   5.795   3.876  16.520  1.3457 -1.6654  1.4737
16333TIP3   OH270489   1.044   2.473  10.530 -0.3878  0.2334 -0.3733
16333TIP3    H170490   0.956   2.438  10.544 -0.2752  0.3042  0.6010
16333TIP3    H270491   1.102   2.412  10.575  0.1000  0.0067 -1.2944
16334TIP3   OH270492   2.094   1.922   3.307 -0.0480  0.1405  0.3752
16334TIP3    H170493   2.115   1.962   3.391 -1.0138  0.8532  0.2901
16334TIP3    H270494   2.078   1.830   3.327 -2.3842  0.7073  1.3481
16335TIP3   OH270495   6.644   2.854  12.749  0.8196  0.0539 -0.2686
16335TIP3    H170496   6.698   2.781  12.780  1.3806  0.5377 -0.0865
16335TIP3    H270497   6.707   2.915  12.711  0.5619  1.1945  1.0540
16336TIP3   OH270498   0.871   5.930  17.149 -0.2886  0.4804  0.3707
16336TIP3    H170499   0.923   5.931  17.068  0.1486  1.3278  0.6504
16336TIP3    H270500   0.816   5.852  17.141 -0.3313  0.6084 -0.7981
16337TIP3   OH270501   6.363   1.861  13.328  0.0138 -0.0576  0.4661
16337TIP3    H170502   6.404   1.777  13.350 -0.2531  0.1508  1.8187
16337TIP3    H270503   6.437   1.923  13.324 -0.0519  0.2325  2.4960
16338TIP3   OH270504   0.164   0.404   2.292  0.5279  0.0928 -0.3910
16338TIP3    H170505   0.072   0.398   2.317  0.9661  0.0163  1.3025
16338TIP3    H270506   0.184   0.319   2.251 -0.4118  0.5212 -1.8219
16339TIP3   OH270507   5.986   2.432   2.315 -0.1561  0.5354 -0.1351
16339TIP3    H170508   6.064   2.457   2.365 -1.5474  1.8750  1.4915
16339TIP3    H270509   5.971   2.507   2.257  1.0775 -0.7398 -2.2278
16340TIP3   OH270510   6.637   6.066   4.756  0.3660  0.8817 -0.0760
16340TIP3    H170511   6.697   6.140   4.755 -0.0241  1.2233  0.7516
16340TIP3    H270512   6.570   6.090   4.821  0.2349 -0.1947  0.2085
16341TIP3   OH270513   3.764   2.490  15.889 -0.0077 -0.0525  0.3076
16341TIP3    H170514   3.757   2.536  15.973  0.1335 -1.4364  1.1126
16341TIP3    H270515   3.675   2.460  15.870 -0.5324  2.2600 -1.2756
16342TIP3   OH270516   2.440   5.731  14.945 -0.1274  0.3970  0.1354
16342TIP3    H170517   2.459   5.689  14.862  0.9138  1.5013 -0.2197
16342TIP3    H270518   2.519   5.715  14.998  0.3056  1.8703 -0.0223
16343TIP3   OH270519   0.808   2.277   3.196  0.0941  0.1844 -0.5000
16343TIP3    H170520   0.832   2.291   3.104  0.6908 -1.5503 -0.6436
16343TIP3    H270521   0.884   2.232   3.234 -0.6917 -0.3404  0.4977
16344TIP3   OH270522   4.428   5.864  13.802  0.2764 -0.5453  0.3341
16344TIP3    H170523   4.348   5.914  13.783  0.9844  1.0078  1.2431
16344TIP3    H270524   4.453   5.891  13.890  2.3235 -0.2424 -0.2767
16345TIP3   OH270525   6.304   5.280  12.212 -0.1547 -0.2362  0.1419
16345TIP3    H170526   6.393   5.294  12.180  0.2357 -0.1136  1.2422
16345TIP3    H270527   6.309   5.197  12.260 -1.2278 -1.5472 -1.8896
16346TIP3   OH270528   4.584   3.534  15.098 -0.4490 -0.6198  0.2785
16346TIP3    H170529   4.598   3.570  15.010 -0.8298  1.3091  0.9505
16346TIP3    H270530   4.671   3.537  15.139  0.1762 -3.3912 -0.5907
16347TIP3   OH270531   5.666   1.806   0.633 -0.3081 -0.1504  0.1824
16347TIP3    H170532   5.621   1.879   0.590 -1.2401 -0.1277  1.1386
16347TIP3    H270533   5.630   1.806   0.722  2.2595  0.4386  1.3025
16348TIP3   OH270534   2.392   0.327  14.984 -0.0741 -0.2039 -0.2612
16348TIP3    H170535   2.486   0.311  14.993  0.0980  0.4358 -0.8350
16348TIP3    H270536   2.359   0.330  15.074  0.3427 -1.0217 -0.0710
16349TIP3   OH270537   2.453   3.256   4.858  0.6260 -0.2218 -0.2694
16349TIP3    H170538   2.545   3.253   4.882  0.9938 -0.4471 -1.6082
16349TIP3    H270539   2.452   3.290   4.768 -0.5221 -0.9440 -0.5625
16350TIP3   OH270540   4.420   1.462  14.738  0.2315 -0.7615  0.1656
16350TIP3    H170541   4.404   1.534  14.677  0.3528 -1.0706 -0.2311
16350TIP3    H270542   4.508   1.431  14.717  1.7270  1.3049  2.7080
16351TIP3   OH270543   3.741   2.723   3.673 -0.3208  0.1621 -0.2131
16351TIP3    H170544   3.814   2.784   3.676  0.3471 -0.6555  1.5984
16351TIP3    H270545   3.667   2.776   3.643  0.1033  2.0586  1.7774
16352TIP3   OH270546   2.978   3.359   4.359 -0.3451 -0.5591  0.1781
16352TIP3    H170547   2.926   3.351   4.279 -1.7651 -0.2872  1.0331
16352TIP3    H270548   2.974   3.453   4.381 -0.9929 -0.8058  1.1981
16353TIP3   OH270549   6.666   6.745   5.773 -0.2741  0.5678 -0.4689
16353TIP3    H170550   6.693   6.834   5.793 -1.2328  0.8880 -0.5286
16353TIP3    H270551   6.725   6.689   5.823  0.7124  1.2117 -0.8882
16354TIP3   OH270552   2.058   6.565   4.340  0.1019 -0.0695  0.2651
16354TIP3    H170553   2.119   6.638   4.328  1.8947 -1.5403 -0.1229
16354TIP3    H270554   2.064   6.515   4.258 -0.6868 -0.9054  0.6960
16355TIP3   OH270555   5.383   3.569  15.263  0.2435 -0.6513 -0.5736
16355TIP3    H170556   5.345   3.652  15.234 -1.7654 -1.2362  0.1887
16355TIP3    H270557   5.460   3.594  15.314 -0.9077  0.8355  0.4997
16356TIP3   OH270558   2.151   5.566   4.333 -0.4376 -0.0715 -0.5757
16356TIP3    H170559   2.118   5.476   4.335  0.7033 -0.4981 -0.5213
16356TIP3    H270560   2.165   5.588   4.425  1.8527 -0.8232 -0.7035
16357TIP3   OH270561   1.023   2.320   4.876 -0.0111 -0.0488 -0.4997
16357TIP3    H170562   1.022   2.378   4.952  3.0417  0.1101 -0.4600
16357TIP3    H270563   0.957   2.357   4.817  1.9819  3.7840 -0.6436
16358TIP3   OH270564   4.904   6.438   3.491 -0.4155 -0.2865 -0.2381
16358TIP3    H170565   4.843   6.397   3.552 -0.5934 -1.8099 -1.3638
16358TIP3    H270566   4.856   6.442   3.408  0.5844 -0.4018 -0.8455
16359TIP3   OH270567   2.883   5.863  14.165 -0.0368  1.0174 -0.5468
16359TIP3    H170568   2.820   5.817  14.220 -0.0049  2.1918  0.5229
16359TIP3    H270569   2.847   5.858  14.077 -1.1375  0.8471 -0.0981
16360TIP3   OH270570   1.855   2.071  10.407 -0.0172  0.9074  0.5273
16360TIP3    H170571   1.826   1.999  10.462  0.0113  0.9243  0.5651
16360TIP3    H270572   1.895   2.029  10.331  1.7370  0.8451  1.4263
16361TIP3   OH270573   2.804   0.651  13.462 -0.4166 -0.2656 -0.7006
16361TIP3    H170574   2.747   0.575  13.452 -0.9067 -0.3214  1.8585
16361TIP3    H270575   2.767   0.717  13.403 -0.3999 -1.7289 -2.4217
16362TIP3   OH270576   1.042   2.963   5.205  0.8661 -0.6816  0.1737
16362TIP3    H170577   1.013   2.933   5.291 -0.2574  0.1713  0.1225
16362TIP3    H270578   1.084   2.887   5.166  2.2457 -0.8183  1.8251
16363TIP3   OH270579   4.646   1.065  11.946 -0.4506  0.2054  0.0813
16363TIP3    H170580   4.717   1.088  11.887 -0.5207  0.5356  0.1211
16363TIP3    H270581   4.606   0.988  11.908 -0.4373  0.3643 -0.2544
16364TIP3   OH270582   4.661   0.786   4.173  0.1044 -0.2726  0.7400
16364TIP3    H170583   4.679   0.709   4.118  1.2940 -0.9711  2.0220
16364TIP3    H270584   4.579   0.766   4.216 -0.0073 -0.4486  0.4513
16365TIP3   OH270585   1.420   4.374   4.421 -0.3454 -0.4443 -0.6866
16365TIP3    H170586   1.515   4.368   4.417 -0.4208 -2.1791 -0.8851
16365TIP3    H270587   1.395   4.306   4.485 -1.5335 -1.4075 -2.1082
16366TIP3   OH270588   4.159   4.258   4.412 -0.0436  0.0086 -0.1702
16366TIP3    H170589   4.215   4.336   4.413 -2.1765  1.6198 -0.3247
16366TIP3    H270590   4.072   4.290   4.437 -1.0888 -2.2570 -0.6562
16367TIP3   OH270591   2.765   6.516  12.465  0.3730  0.1576  0.4775
16367TIP3    H170592   2.723   6.483  12.544  1.3670 -2.4532  0.0185
16367TIP3    H270593   2.828   6.581  12.497 -0.5813  0.5845  1.5937
16368TIP3   OH270594   4.970   2.379   5.354 -0.6125 -0.1456  0.4319
16368TIP3    H170595   4.878   2.401   5.366 -1.4187 -2.2167 -1.1467
16368TIP3    H270596   4.997   2.339   5.437 -1.2668  0.0360  0.7344
16369TIP3   OH270597   1.728   3.555  12.633  0.3501 -0.2973  0.3326
16369TIP3    H170598   1.637   3.565  12.660  0.3313  0.6514 -0.0323
16369TIP3    H270599   1.730   3.592  12.544  1.3376  0.8264  0.8057
16370TIP3   OH270600   1.117   1.826  11.895  0.1123  0.0189 -0.1905
16370TIP3    H170601   1.163   1.764  11.838  1.1304  1.8434 -1.4490
16370TIP3    H270602   1.181   1.848  11.963  0.2939  0.8198 -0.6164
16371TIP3   OH270603   3.203   5.189  15.645 -0.8639 -0.4207  0.0901
16371TIP3    H170604   3.225   5.281  15.632 -0.8417 -0.5464 -0.8279
16371TIP3    H270605   3.227   5.170  15.736  1.0909 -0.0738 -0.3274
16372TIP3   OH270606   4.240   0.990   2.352  0.2909 -0.1363  0.2979
16372TIP3    H170607   4.255   0.917   2.411  0.9858 -0.9666 -0.8759
16372TIP3    H270608   4.154   0.972   2.313 -0.6350  0.9261  1.7340
16373TIP3   OH270609   1.685   1.807   2.408  0.3874 -0.0254 -0.3516
16373TIP3    H170610   1.692   1.802   2.504  2.0002 -0.0195 -0.4335
16373TIP3    H270611   1.741   1.736   2.377  0.3120  0.3245 -1.2956
16374TIP3   OH270612   2.267   6.231  14.478 -0.1536  0.2975  0.3877
16374TIP3    H170613   2.253   6.257  14.569  1.0586 -2.8856  1.6545
16374TIP3    H270614   2.359   6.202  14.476 -0.5101 -0.8677 -1.5048
16375TIP3   OH270615   5.040   2.480  12.420  0.1805 -0.0469  0.2028
16375TIP3    H170616   4.977   2.487  12.492 -0.0461 -0.5941  0.0580
16375TIP3    H270617   5.114   2.533  12.449 -0.4493  0.8472  0.2566
16376TIP3   OH270618   3.127   4.024  13.014 -0.3739 -0.4740  0.3415
16376TIP3    H170619   3.177   4.105  13.023  0.2785 -0.8791  0.3834
16376TIP3    H270620   3.183   3.957  13.053 -0.8702 -0.9631  0.2199
16377TIP3   OH270621   2.692   1.484  14.692 -0.2249  0.3208  0.0713
16377TIP3    H170622   2.631   1.421  14.731 -1.0390  0.1260 -1.4224
16377TIP3    H270623   2.670   1.568  14.733  1.2117 -0.3861  2.4556
16378TIP3   OH270624   1.262   6.239  15.585  0.0169 -0.2973 -0.7355
16378TIP3    H170625   1.345   6.193  15.596 -0.0441 -0.4362 -0.8650
16378TIP3    H270626   1.278   6.326  15.623 -0.2361 -0.8185  0.6236
16379TIP3   OH270627   3.110   2.237   2.309  0.5180 -0.4413 -0.2679
16379TIP3    H170628   3.157   2.197   2.383  1.9466  1.7759  0.1365
16379TIP3    H270629   3.179   2.277   2.257 -0.6857  0.0074 -1.5689
16380TIP3   OH270630   4.881   0.615   6.542 -0.1989  0.0534 -0.0938
16380TIP3    H170631   4.921   0.673   6.477 -2.2019  0.6342 -0.8763
16380TIP3    H270632   4.864   0.533   6.494  0.4817 -0.3659  0.3659
16381TIP3   OH270633   3.748   0.933   2.014 -0.5747 -0.2862  0.1571
16381TIP3    H170634   3.735   0.949   2.107  0.0954  0.5873  0.1132
16381TIP3    H270635   3.788   0.847   2.009  0.5412  0.1782  0.7723
16382TIP3   OH270636   0.329   4.139  12.035  0.0481 -0.3670  0.0500
16382TIP3    H170637   0.235   4.121  12.033 -0.0071 -0.3089 -2.6760
16382TIP3    H270638   0.369   4.054  12.056 -0.5816 -0.4930  0.7794
16383TIP3   OH270639   0.472   0.151  12.018 -0.1710  0.3837  0.1858
16383TIP3    H170640   0.462   0.244  11.998 -1.5980 -0.2881 -2.7260
16383TIP3    H270641   0.390   0.111  11.989 -0.0277 -1.6865  2.3590
16384TIP3   OH270642   4.050   4.000   0.022 -0.0053 -0.1969  0.1313
16384TIP3    H170643   4.022   4.080   0.066 -0.2145  0.0299 -0.4034
16384TIP3    H270644   4.003   4.002  -0.062  2.6645  0.9180 -1.4524
16385TIP3   OH270645   0.373   5.164   2.781  0.0684 -0.1527  0.5654
16385TIP3    H170646   0.302   5.157   2.845 -0.8396 -1.1256 -0.4973
16385TIP3    H270647   0.421   5.082   2.789  1.3431  0.6698  1.5550
16386TIP3   OH270648   4.269   4.935   1.736 -0.0714  0.0136  0.0724
16386TIP3    H170649   4.214   5.006   1.703 -0.7991  0.3126  1.8236
16386TIP3    H270650   4.348   4.978   1.768 -1.0321  0.2740  2.2935
16387TIP3   OH270651   6.641   4.950  15.957  0.1469  0.5902 -0.4082
16387TIP3    H170652   6.697   5.010  16.006 -0.7245 -0.5227  2.0629
16387TIP3    H270653   6.552   4.975  15.981 -0.2493 -1.3820  0.3350
16388TIP3   OH270654   1.735   2.737  16.168 -0.1149 -0.1333 -0.4512
16388TIP3    H170655   1.813   2.708  16.120 -1.3890  1.3833 -3.7025
16388TIP3    H270656   1.672   2.666  16.155  0.6024 -1.3859  2.2258
16389TIP3   OH270657   3.680   5.789   6.038 -0.3995 -0.8740 -0.5324
16389TIP3    H170658   3.692   5.858   5.973 -0.7225 -1.3815 -1.1429
16389TIP3    H270659   3.722   5.823   6.117 -0.8216  0.1387 -0.7335
16390TIP3   OH270660   3.254   6.806  14.041 -0.1315 -0.0860 -0.1852
16390TIP3    H170661   3.259   6.713  14.062  0.0783  0.3543  1.9254
16390TIP3    H270662   3.200   6.810  13.962 -0.1168 -1.9913 -0.3293
16391TIP3   OH270663   5.106   0.854  11.422  0.3414  0.1442  0.2018
16391TIP3    H170664   5.083   0.945  11.404 -3.3402 -0.5270  0.6235
16391TIP3    H270665   5.057   0.803  11.358 -0.0981 -1.6042  1.8168
16392TIP3   OH270666   6.719   3.221  15.755  0.5912 -0.1767  0.2013
16392TIP3    H170667   6.688   3.305  15.720  0.8650 -0.9070 -1.9905
16392TIP3    H270668   6.661   3.203  15.829 -0.7936  1.0048 -0.5316
16393TIP3   OH270669   5.139   5.763  17.203  0.8029  0.3140 -0.7624
16393TIP3    H170670   5.230   5.760  17.232  0.7718 -2.7541 -0.6485
16393TIP3    H270671   5.140   5.824  17.129  2.7193  1.1477 -0.1201
16394TIP3   OH270672   0.843   6.003   4.770 -0.2233 -0.0247 -0.5082
16394TIP3    H170673   0.896   5.960   4.837 -1.0667  0.6481  0.6038
16394TIP3    H270674   0.886   6.088   4.757 -0.0728 -0.1459 -0.8252
16395TIP3   OH270675   5.767   2.143   3.371 -0.5705  0.5406 -0.7072
16395TIP3    H170676   5.728   2.178   3.451 -1.9045  1.2795 -1.6419
16395TIP3    H270677   5.732   2.198   3.301  1.6392  0.7882 -1.6898
16396TIP3   OH270678   3.282   6.527   0.677 -0.0655  0.1766 -0.5904
16396TIP3    H170679   3.211   6.591   0.668 -1.0511 -0.7370  0.2380
16396TIP3    H270680   3.356   6.577   0.711 -1.0447  0.7742  0.8020
16397TIP3   OH270681   0.254   4.240  13.319 -0.5635  0.2299 -0.1904
16397TIP3    H170682   0.255   4.271  13.409 -0.7857 -0.2058 -0.0362
16397TIP3    H270683   0.255   4.145  13.326  1.4856  0.1830 -0.6785
16398TIP3   OH270684   4.608   2.480  15.746  0.1015 -0.2611 -0.1882
16398TIP3    H170685   4.702   2.486  15.731  0.1058 -1.6540 -0.9238
16398TIP3    H270686   4.586   2.390  15.722 -1.5988  0.3443 -1.0643
16399TIP3   OH270687   3.869   3.972  11.810 -0.4053  0.6850 -0.0647
16399TIP3    H170688   3.865   3.890  11.859  2.3621 -0.8459 -2.0901
16399TIP3    H270689   3.809   3.959  11.737  1.3817 -0.4144 -1.4152
16400TIP3   OH270690   5.816   4.052   3.933  0.3218  0.8053  0.0001
16400TIP3    H170691   5.721   4.054   3.946  0.4323  0.7922  0.8786
16400TIP3    H270692   5.841   3.961   3.947  0.3591  0.6306 -1.1187
16401TIP3   OH270693   6.256   6.435   2.311  0.0508  0.1523  0.0641
16401TIP3    H170694   6.290   6.470   2.229  0.2478  1.1962  0.5815
16401TIP3    H270695   6.331   6.437   2.371 -0.0645 -0.6942  0.2539
16402TIP3   OH270696   1.310   2.145  14.065  0.3505  0.3380 -0.6367
16402TIP3    H170697   1.342   2.202  14.134 -1.1617 -0.1882  0.5587
16402TIP3    H270698   1.214   2.154  14.068  0.1782 -0.7663 -1.7090
16403TIP3   OH270699   1.979   3.637  16.293 -0.6574  0.6599  0.1962
16403TIP3    H170700   2.028   3.712  16.259  0.1870  0.6451  1.3025
16403TIP3    H270701   2.015   3.561  16.246  1.8449  0.3949  2.3059
16404TIP3   OH270702   3.934   4.823   2.118 -0.2202 -0.2261  0.1916
16404TIP3    H170703   4.003   4.759   2.133 -0.3427 -0.3596  0.1970
16404TIP3    H270704   3.938   4.842   2.025 -0.2285 -0.2959  0.1768
16405TIP3   OH270705   0.459   0.285  12.856  0.3353 -0.6309  0.1300
16405TIP3    H170706   0.552   0.277  12.833  0.5706  0.7115  0.5062
16405TIP3    H270707   0.459   0.312  12.948 -0.4485 -1.1472  0.2909
16406TIP3   OH270708   4.845   3.041  11.788 -0.5437 -0.1228 -0.2221
16406TIP3    H170709   4.897   3.096  11.847 -2.2712 -0.6586  1.9426
16406TIP3    H270710   4.777   3.099  11.755 -0.6907 -0.2667 -0.1759
16407TIP3   OH270711   5.350   3.991  15.782  0.1549  0.3213 -0.2584
16407TIP3    H170712   5.260   3.970  15.809 -0.1467  0.8537 -0.8072
16407TIP3    H270713   5.340   4.034  15.697  0.8710  0.9997 -0.0159
16408TIP3   OH270714   6.278   1.377   5.975 -0.7743 -0.1785  0.3784
16408TIP3    H170715   6.328   1.355   5.897  2.1288  0.5399  1.8794
16408TIP3    H270716   6.200   1.422   5.943 -0.4198 -1.1907 -2.1020
16409TIP3   OH270717   1.103   4.542  15.244 -0.4958 -0.1610  0.4745
16409TIP3    H170718   1.177   4.581  15.198  0.2154 -0.3240  1.4544
16409TIP3    H270719   1.082   4.604  15.314 -1.7945  0.2575 -0.2418
16410TIP3   OH270720   4.928   5.434  14.170 -0.2092  0.1019 -0.2044
16410TIP3    H170721   4.979   5.366  14.213  0.5996  0.3436 -0.7569
16410TIP3    H270722   4.942   5.512  14.223  2.6249  0.9955 -1.9892
16411TIP3   OH270723   6.622   0.615  13.834  0.0815 -0.0073 -0.3887
16411TIP3    H170724   6.557   0.576  13.893 -0.4298 -1.7752 -2.0337
16411TIP3    H270725   6.631   0.705  13.865 -1.2490 -0.4534  1.4590
16412TIP3   OH270726   3.673   3.536  15.463  0.1620 -0.3970  0.1809
16412TIP3    H170727   3.712   3.499  15.384  0.4276  0.3568 -0.0442
16412TIP3    H270728   3.693   3.629  15.459  1.6894 -0.5801  2.0029
16413TIP3   OH270729   3.940   2.677  13.963 -0.2809 -0.3566  0.3983
16413TIP3    H170730   3.955   2.768  13.988 -1.5424  0.2284 -0.8743
16413TIP3    H270731   3.907   2.682  13.874  1.5612 -2.1955 -0.4768
16414TIP3   OH270732   5.466   1.297   2.918  0.3430  0.5133 -0.6082
16414TIP3    H170733   5.414   1.237   2.866  0.5086 -0.0401 -0.1394
16414TIP3    H270734   5.407   1.329   2.986  0.9437 -1.1866  0.7905
16415TIP3   OH270735   5.227   0.567  12.293 -0.3847  0.1905  0.2236
16415TIP3    H170736   5.185   0.483  12.273 -1.1368  0.5887  0.0869
16415TIP3    H270737   5.185   0.595  12.374 -0.7603  0.8366 -0.1847
16416TIP3   OH270738   2.193   2.846   1.683  0.4167  0.9626 -0.6169
16416TIP3    H170739   2.250   2.825   1.756 -0.5876 -2.7619 -0.7024
16416TIP3    H270740   2.148   2.926   1.709  1.3270  0.6896  2.0632
16417TIP3   OH270741   5.921   2.143  16.147 -0.6680  0.2834  0.0302
16417TIP3    H170742   5.936   2.058  16.107 -1.5281  0.3757 -0.5068
16417TIP3    H270743   5.967   2.205  16.090 -0.9194  0.2879 -0.1694
16418TIP3   OH270744   1.356   2.660   1.359  0.4725  0.0686 -0.2949
16418TIP3    H170745   1.296   2.639   1.431 -0.0476  0.2194 -0.6735
16418TIP3    H270746   1.411   2.730   1.393  1.8478 -1.4588  0.7833
16419TIP3   OH270747   4.576   2.111  11.556  0.3074  0.2055  0.1670
16419TIP3    H170748   4.653   2.099  11.502  1.8523  2.9900  1.5336
16419TIP3    H270749   4.596   2.065  11.638  0.2170  0.3283  0.2600
16420TIP3   OH270750   1.928   3.251   5.791 -0.2045 -0.1150 -0.0880
16420TIP3    H170751   1.984   3.178   5.818 -0.5292 -0.4931 -0.4360
16420TIP3    H270752   1.985   3.305   5.736 -0.0578 -0.2722 -0.0924
16421TIP3   OH270753   5.896   2.220   0.192 -0.5468  0.0029  0.3168
16421TIP3    H170754   5.947   2.291   0.231  0.2268  0.4747 -1.4276
16421TIP3    H270755   5.955   2.144   0.193  0.7397  0.8003 -2.6225
16422TIP3   OH270756   5.357   3.887   2.610  0.4318  0.2458  0.3025
16422TIP3    H170757   5.448   3.863   2.628  0.3136 -1.7419 -1.3486
16422TIP3    H270758   5.363   3.953   2.542  0.6360  0.5541  0.6137
16423TIP3   OH270759   4.135   0.352   4.723 -0.2554 -0.1358 -0.3666
16423TIP3    H170760   4.166   0.262   4.736 -0.7283 -0.0830  1.3502
16423TIP3    H270761   4.075   0.346   4.649  1.0197 -0.8956 -1.3865
16424TIP3   OH270762   2.838   0.492   1.495 -0.1176 -0.0597  0.7657
16424TIP3    H170763   2.780   0.512   1.422 -0.3780 -3.5766 -0.1808
16424TIP3    H270764   2.780   0.468   1.567  0.1774  0.4125  1.1759
16425TIP3   OH270765   4.429   3.850   3.390 -0.1504 -0.1555  0.6016
16425TIP3    H170766   4.377   3.829   3.312  0.3699 -1.4733  0.5846
16425TIP3    H270767   4.367   3.896   3.447 -0.7069  0.2937 -0.3255
16426TIP3   OH270768   3.359   1.941  12.307 -0.1848  0.3731 -0.0796
16426TIP3    H170769   3.353   1.961  12.401 -0.7837  2.1539 -0.4454
16426TIP3    H270770   3.408   1.860  12.303 -1.5474 -0.6503  1.8674
16427TIP3   OH270771   1.627   2.102   5.312 -0.0716 -0.8990  0.4072
16427TIP3    H170772   1.638   2.154   5.392 -0.5492 -0.3618  0.1311
16427TIP3    H270773   1.535   2.075   5.314 -0.2501 -0.3743 -0.2567
16428TIP3   OH270774   5.015   1.704  13.775  0.4272  0.5297  0.5959
16428TIP3    H170775   4.944   1.763  13.752  0.8429  0.4421 -1.0051
16428TIP3    H270776   5.023   1.645  13.700  1.2352 -0.3976  1.3758
16429TIP3   OH270777   2.592   5.181  15.739 -0.1108 -0.1533 -0.3726
16429TIP3    H170778   2.546   5.168  15.656  0.1897 -1.1074 -0.4072
16429TIP3    H270779   2.642   5.100  15.752 -1.1287 -0.5542  1.3611
16430TIP3   OH270780   3.703   4.339   4.804 -0.3905 -0.1434 -0.2453
16430TIP3    H170781   3.674   4.295   4.724 -1.7819  1.3745 -0.6395
16430TIP3    H270782   3.748   4.417   4.774  1.9768 -1.1421  0.4487
16431TIP3   OH270783   1.665   6.698  12.988 -0.4641 -0.2651  0.6712
16431TIP3    H170784   1.626   6.774  13.031 -1.5213 -0.3857 -0.0360
16431TIP3    H270785   1.662   6.719  12.894 -0.2533 -0.9409  0.5046
16432TIP3   OH270786   0.403   3.057   2.668 -0.0980  0.5811  0.5224
16432TIP3    H170787   0.480   3.010   2.636  0.2664  2.3815 -1.4196
16432TIP3    H270788   0.333   2.992   2.666  0.6548 -0.2217 -0.8682
16433TIP3   OH270789   3.190   6.091   6.891  0.1064  0.3313  0.1207
16433TIP3    H170790   3.107   6.083   6.936 -0.5655 -0.1344 -1.1361
16433TIP3    H270791   3.185   6.027   6.820  0.7357  1.6467 -1.1738
16434TIP3   OH270792   0.004   6.738   0.853 -0.0485  0.1920 -0.6267
16434TIP3    H170793  -0.089   6.741   0.875 -0.1973 -1.9418 -0.7376
16434TIP3    H270794   0.049   6.730   0.937  0.0015  0.6171 -0.6105
16435TIP3   OH270795   3.060   5.272   2.694 -0.2190 -0.2604  0.3136
16435TIP3    H170796   3.076   5.334   2.765  1.1150  1.2312 -1.1825
16435TIP3    H270797   2.981   5.303   2.651  0.4240  0.4519 -0.4076
16436TIP3   OH270798   4.836   0.566  10.270  0.5620 -0.3408 -0.4589
16436TIP3    H170799   4.751   0.595  10.304  0.4071  1.5545 -2.2837
16436TIP3    H270800   4.900   0.609  10.326  0.2976  1.0878 -1.2039
16437TIP3   OH270801   0.669   6.587  13.293  0.4572  0.1473 -0.4352
16437TIP3    H170802   0.682   6.499  13.258  1.2837  0.0765  0.0365
16437TIP3    H270803   0.750   6.607  13.339 -0.1866  0.6758  0.5101
16438TIP3   OH270804   6.023   3.974  17.020 -0.5860  0.3691 -0.0322
16438TIP3    H170805   5.965   4.016  17.084 -0.0609 -2.3801  2.4853
16438TIP3    H270806   6.111   4.002  17.046 -0.4303  0.0324 -0.1931
16439TIP3   OH270807   3.492   4.418   0.646 -0.0285  0.4639  0.7066
16439TIP3    H170808   3.528   4.388   0.729 -0.2830 -0.0415  0.6355
16439TIP3    H270809   3.441   4.344   0.613  1.0311  0.2172 -0.4732
16440TIP3   OH270810   1.632   2.258   1.639 -0.8257 -0.3066 -0.0281
16440TIP3    H170811   1.672   2.210   1.712 -0.2936  0.2107  0.0235
16440TIP3    H270812   1.538   2.258   1.660 -0.6510  0.0578  0.7878
16441TIP3   OH270813   4.893   3.843  12.095  0.1879  0.3465 -0.1928
16441TIP3    H170814   4.839   3.856  12.017 -0.8073  2.6360  0.7873
16441TIP3    H270815   4.875   3.919  12.150  2.4292 -0.1504  1.3860
16442TIP3   OH270816   1.461   5.027   0.354 -0.6518  0.3567 -0.1967
16442TIP3    H170817   1.467   5.099   0.417 -0.2614  0.0971  0.0710
16442TIP3    H270818   1.439   4.950   0.407 -0.0103  0.0754 -0.3197
16443TIP3   OH270819   6.174   4.840   3.902 -0.0171  0.3446  0.3187
16443TIP3    H170820   6.233   4.879   3.838  1.4584 -0.5430  1.0959
16443TIP3    H270821   6.225   4.771   3.943 -1.8044 -0.8784  0.5984
16444TIP3   OH270822   4.216   0.491   0.888  0.3867 -0.0473  0.6339
16444TIP3    H170823   4.123   0.515   0.883  0.6827  1.4356  1.4962
16444TIP3    H270824   4.249   0.506   0.799 -0.1383 -0.2876  0.3950
16445TIP3   OH270825   0.213   3.853  15.419 -0.0036  0.1377 -0.6769
16445TIP3    H170826   0.132   3.857  15.469  1.9429 -0.5493  2.7953
16445TIP3    H270827   0.201   3.778  15.361 -1.2817 -0.9528  0.9069
16446TIP3   OH270828   5.524   3.588  12.896 -0.1280  0.2160  0.3316
16446TIP3    H170829   5.592   3.522  12.908 -0.4011 -0.1257  0.0339
16446TIP3    H270830   5.516   3.598  12.801 -2.0774 -1.4595  0.2319
16447TIP3   OH270831   5.892   2.223   4.428  0.2625  0.4138 -0.0116
16447TIP3    H170832   5.987   2.225   4.439  0.2169  0.6828  0.3357
16447TIP3    H270833   5.864   2.148   4.481  0.2953  0.2413 -0.2366
16448TIP3   OH270834   2.136   5.797   1.472  0.2070  0.1044 -0.0576
16448TIP3    H170835   2.187   5.720   1.446  0.3548 -0.0298  0.6092
16448TIP3    H270836   2.061   5.761   1.520  0.6703  0.4062  0.9071
16449TIP3   OH270837   0.560   3.313  14.928 -0.1394 -0.3006 -0.1896
16449TIP3    H170838   0.635   3.295  14.985  0.0487  1.2965  0.1232
16449TIP3    H270839   0.510   3.232  14.928 -0.0878 -0.4073  2.1711
16450TIP3   OH270840   3.359   4.357   1.133  0.0172 -0.2325 -0.3102
16450TIP3    H170841   3.272   4.325   1.155 -0.8648  0.0634 -2.9955
16450TIP3    H270842   3.353   4.452   1.143  0.5502 -0.3210  1.0282
16451TIP3   OH270843   0.024   6.482  11.163  0.1355  0.1302 -0.0429
16451TIP3    H170844   0.096   6.538  11.190  0.0263 -0.6242  1.9394
16451TIP3    H270845   0.033   6.476  11.068  1.8199  1.1979  0.0118
16452TIP3   OH270846   5.885   3.808   3.468  0.1118 -0.3894  0.3254
16452TIP3    H170847   5.945   3.838   3.400  1.2725 -0.4452  1.2906
16452TIP3    H270848   5.932   3.738   3.513 -0.9212 -0.8481  0.7303
16453TIP3   OH270849   0.832   3.440   0.144 -0.7221  0.4067 -0.5865
16453TIP3    H170850   0.874   3.441   0.058 -1.6803 -1.3030 -1.1416
16453TIP3    H270851   0.815   3.532   0.164  0.5596  0.9199 -1.6789
16454TIP3   OH270852   6.067   0.597   0.096 -0.4414  0.1202 -0.0960
16454TIP3    H170853   6.029   0.684   0.097  1.2302  0.8940 -0.2655
16454TIP3    H270854   5.999   0.540   0.133 -0.6207  1.8875  2.5495
16455TIP3   OH270855   6.002   2.917   2.273 -0.2598 -0.1797 -0.4654
16455TIP3    H170856   6.047   2.946   2.353  1.8383  0.2331 -1.7166
16455TIP3    H270857   5.916   2.888   2.303  0.7775 -0.8804  2.0674
16456TIP3   OH270858   0.327   0.583   6.603 -0.4701  0.4197  0.1610
16456TIP3    H170859   0.329   0.608   6.511 -0.4454  1.1907  0.3638
16456TIP3    H270860   0.260   0.639   6.642  0.1272  0.7114  0.7823
16457TIP3   OH270861   6.083   3.684  14.574  0.1550 -0.1932 -0.6666
16457TIP3    H170862   6.172   3.651  14.564  0.2282 -0.6330  1.1189
16457TIP3    H270863   6.078   3.758  14.514  1.2342 -1.0437 -1.8780
16458TIP3   OH270864   1.667   4.314   3.987  0.3898  0.4032 -0.3053
16458TIP3    H170865   1.678   4.362   3.905 -1.7750 -1.7034 -2.0000
16458TIP3    H270866   1.586   4.348   4.025  1.2023  1.1302  0.8237
16459TIP3   OH270867   5.344   4.601   0.604 -0.0479  0.0472  0.1005
16459TIP3    H170868   5.406   4.668   0.632  2.5027 -2.0811 -0.0359
16459TIP3    H270869   5.327   4.621   0.512  0.1409  0.8449  0.2317
16460TIP3   OH270870   3.736   0.015  11.413  0.0540  0.0482  0.3500
16460TIP3    H170871   3.791   0.059  11.477  0.4050  1.1574 -0.6714
16460TIP3    H270872   3.731  -0.076  11.443  1.4775  0.1938  1.0885
16461TIP3   OH270873   6.800   0.115  10.651 -0.2250  0.3331  0.0872
16461TIP3    H170874   6.792   0.207  10.675  0.3979  0.5861 -0.6523
16461TIP3    H270875   6.861   0.078  10.714 -1.5474  0.0752  1.2725
16462TIP3   OH270876   5.226   1.180   1.329  0.9944  0.2482 -0.1237
16462TIP3    H170877   5.173   1.112   1.289  0.3282  1.0787 -0.6876
16462TIP3    H270878   5.278   1.216   1.256  2.5672 -0.7301  0.4563
16463TIP3   OH270879   5.241   0.243  16.334  0.2025 -0.3242 -0.2067
16463TIP3    H170880   5.274   0.197  16.412 -0.3010 -0.3007  0.0264
16463TIP3    H270881   5.301   0.218  16.264  1.0600  0.1838  0.3315
16464TIP3   OH270882   4.953   3.789   1.322  0.0004  0.0045  0.8017
16464TIP3    H170883   4.974   3.803   1.414 -1.4230 -1.0463  1.3187
16464TIP3    H270884   4.876   3.732   1.323  0.5491 -0.8616 -1.0419
16465TIP3   OH270885   1.680   1.701   0.481  0.0386  0.2527 -0.4438
16465TIP3    H170886   1.732   1.620   0.485  0.6488  0.5956 -1.1739
16465TIP3    H270887   1.723   1.753   0.413 -0.7558  0.9110 -0.4483
16466TIP3   OH270888   1.187   0.348   0.974 -0.4016 -0.6499 -0.8028
16466TIP3    H170889   1.114   0.331   1.034  0.0307  0.1037 -0.0427
16466TIP3    H270890   1.221   0.261   0.953 -1.1091 -0.9726 -0.6608
16467TIP3   OH270891   6.213   5.335   3.980  0.0087  0.3962  0.3633
16467TIP3    H170892   6.274   5.397   4.020 -0.6269  1.1397  0.2098
16467TIP3    H270893   6.140   5.389   3.949  0.2364 -0.2236 -1.3332
16468TIP3   OH270894   1.058   6.457   0.597 -0.3343 -0.6047 -0.2006
16468TIP3    H170895   1.148   6.440   0.567  0.7362 -1.8145  3.2500
16468TIP3    H270896   1.067   6.530   0.658 -1.4924 -1.4196  0.9876
16469TIP3   OH270897   3.833   2.317  14.133 -0.0406 -0.4030  0.4668
16469TIP3    H170898   3.920   2.350  14.112  0.4168 -1.6657  0.3234
16469TIP3    H270899   3.779   2.396  14.141  1.1966  0.4221  1.0039
16470TIP3   OH270900   5.857   0.507  14.466  0.0844  0.1216 -0.2357
16470TIP3    H170901   5.908   0.456  14.530 -1.2592 -2.0332 -0.7775
16470TIP3    H270902   5.923   0.543  14.407  1.1483 -0.4065  0.5761
16471TIP3   OH270903   2.060   3.742  12.253 -0.0040  0.3401 -0.0375
16471TIP3    H170904   2.126   3.674  12.265  0.2112  0.2750 -1.4594
16471TIP3    H270905   1.985   3.697  12.214  0.4862  1.0401 -1.8881
16472TIP3   OH270906   6.325   0.549   2.312 -0.2106  0.1582  0.3806
16472TIP3    H170907   6.358   0.590   2.232 -0.4874  0.3582  0.3689
16472TIP3    H270908   6.390   0.571   2.379  1.4554 -2.1998 -0.3072
16473TIP3   OH270909   3.275   1.977   3.935 -0.0175  0.5063  0.8726
16473TIP3    H170910   3.356   1.988   3.886 -0.3069 -1.6052 -0.1642
16473TIP3    H270911   3.216   2.043   3.899  0.4392  0.3675 -0.1631
16474TIP3   OH270912   0.082   4.223   1.518  0.2806  0.4662  0.8639
16474TIP3    H170913   0.041   4.214   1.604 -1.6371  0.9048  0.0515
16474TIP3    H270914   0.061   4.313   1.492 -0.8960 -0.2674 -0.8806
16475TIP3   OH270915   2.816   6.176   5.064  0.7607  0.2459 -0.1555
16475TIP3    H170916   2.810   6.265   5.031 -1.8765  0.3207  0.2557
16475TIP3    H270917   2.831   6.186   5.158  0.0608  0.3002 -0.0417
16476TIP3   OH270918   3.910   5.348   4.351  0.1783 -0.5432  0.5801
16476TIP3    H170919   3.939   5.263   4.386  0.1543  0.0615  2.1646
16476TIP3    H270920   3.815   5.348   4.365  0.1596 -0.3067  0.4595
16477TIP3   OH270921   1.303   6.485   1.385  0.3346  0.2364  0.1843
16477TIP3    H170922   1.387   6.497   1.341 -0.2638  1.2360 -0.7345
16477TIP3    H270923   1.286   6.390   1.379  0.9647  0.1535 -0.4321
16478TIP3   OH270924   0.923   6.356   5.454 -0.0030  0.5460  0.1597
16478TIP3    H170925   0.921   6.261   5.448  1.8308  0.4725  0.1483
16478TIP3    H270926   0.944   6.385   5.365  0.1248  0.9210  0.3106
16479TIP3   OH270927   1.919   2.852  14.674  0.1727  0.3379 -0.3058
16479TIP3    H170928   1.985   2.861  14.605  0.8850 -0.8556  0.1730
16479TIP3    H270929   1.953   2.904  14.747 -0.7977  1.9590 -0.9732
16480TIP3   OH270930   4.608   0.216   1.755 -0.3849  0.0718 -0.5608
16480TIP3    H170931   4.526   0.264   1.742 -0.7448 -0.9247 -2.2405
16480TIP3    H270932   4.671   0.261   1.699 -0.3760 -0.5398 -1.0516
16481TIP3   OH270933   6.143   0.364  13.590 -0.1080 -0.1416  0.1595
16481TIP3    H170934   6.049   0.378  13.602 -0.1462 -0.1161 -0.1445
16481TIP3    H270935   6.156   0.271  13.610 -0.1478 -0.0751  0.4920
16482TIP3   OH270936   1.062   6.189  14.679  0.7201  0.3615 -0.5741
16482TIP3    H170937   1.072   6.238  14.760  1.4347 -0.6503 -0.0276
16482TIP3    H270938   1.017   6.250  14.620 -1.7518  0.3949  1.1993
16483TIP3   OH270939   3.064   4.657  16.928 -0.6848 -0.8570  0.0908
16483TIP3    H170940   3.152   4.687  16.903 -1.5060  1.9640  0.2022
16483TIP3    H270941   3.073   4.632  17.020 -0.0425 -0.3650  0.1718
16484TIP3   OH270942   0.716   6.125  16.109 -0.2271  0.1213 -0.0828
16484TIP3    H170943   0.673   6.048  16.072 -3.0556  2.7574 -2.9858
16484TIP3    H270944   0.654   6.160  16.172  1.2201 -0.1160  1.5529
16485TIP3   OH270945   3.790   0.688   5.270 -0.3073 -0.2442 -0.0489
16485TIP3    H170946   3.759   0.675   5.180 -0.3933 -2.7146  0.2661
16485TIP3    H270947   3.712   0.714   5.318 -0.5709 -0.3509 -0.4088
16486TIP3   OH270948   4.005   1.085  10.708  0.6574 -0.3468  0.0431
16486TIP3    H170949   4.073   1.116  10.648 -1.6996  0.1043 -2.5803
16486TIP3    H270950   3.970   1.165  10.748 -0.6265 -0.2134 -1.2881
16487TIP3   OH270951   0.208   4.586  16.999 -0.3422 -0.1931 -0.3912
16487TIP3    H170952   0.123   4.559  17.034 -0.3660 -0.2454 -0.4881
16487TIP3    H270953   0.230   4.665  17.048 -0.7010  0.1331 -0.7364
16488TIP3   OH270954   1.379   2.662  14.730 -0.2523 -0.4151  0.4633
16488TIP3    H170955   1.393   2.755  14.713  1.3111 -0.9549 -1.6160
16488TIP3    H270956   1.369   2.657  14.825 -2.6872  2.0914  0.4722
16489TIP3   OH270957   2.179   4.348   5.379 -0.5234  0.1101 -0.2526
16489TIP3    H170958   2.213   4.340   5.289 -0.1534  1.5220 -0.2711
16489TIP3    H270959   2.088   4.322   5.372 -0.5086  0.2387 -1.0553
16490TIP3   OH270960   0.794   0.242  12.500  0.0649 -0.6956  0.3093
16490TIP3    H170961   0.784   0.226  12.406  0.2817 -1.5942  0.4318
16490TIP3    H270962   0.874   0.293  12.507  0.1656 -0.8124  0.0188
16491TIP3   OH270963   1.182   3.035  16.716 -0.2531 -0.4813  0.3075
16491TIP3    H170964   1.262   2.985  16.701  1.0004  1.6348 -0.4587
16491TIP3    H270965   1.178   3.047  16.811  0.4610 -0.4175  0.3297
16492TIP3   OH270966   4.232   6.794   1.918 -0.1359 -0.4073 -0.2392
16492TIP3    H170967   4.233   6.699   1.920 -1.6315 -0.4633 -0.8821
16492TIP3    H270968   4.271   6.818   1.835  2.5439 -0.3302  0.9549
16493TIP3   OH270969   2.881   4.149   1.235  0.3893 -0.1057  0.0601
16493TIP3    H170970   2.787   4.131   1.230  0.6070 -0.8573 -2.5761
16493TIP3    H270971   2.889   4.243   1.224 -0.0297 -0.1518 -0.6856
16494TIP3   OH270972   3.916   5.272  13.878  0.8914 -0.1083  0.6174
16494TIP3    H170973   3.914   5.367  13.880 -0.4674 -0.0648 -1.0113
16494TIP3    H270974   3.989   5.250  13.820  0.6645 -0.0140  0.2895
16495TIP3   OH270975   2.033   4.924   4.475 -0.1620  0.3223  0.0857
16495TIP3    H170976   2.000   4.963   4.394 -1.2643  0.0252  0.3676
16495TIP3    H270977   2.041   4.831   4.455  3.1356  0.6822 -0.8066
16496TIP3   OH270978   5.535   0.904   1.288 -0.7646 -0.1896 -0.4259
16496TIP3    H170979   5.590   0.969   1.244 -2.4050  2.6495  1.3490
16496TIP3    H270980   5.470   0.880   1.222 -0.9555  1.1132 -0.7534
16497TIP3   OH270981   0.045   5.116   4.701  0.4004 -0.2139  0.7433
16497TIP3    H170982   0.068   5.097   4.609  1.3100  0.2393  0.8620
16497TIP3    H270983   0.028   5.030   4.739 -1.2247 -0.3236 -0.1467
16498TIP3   OH270984   1.691   2.388   3.781 -0.6208  0.1466  0.4466
16498TIP3    H170985   1.777   2.428   3.785 -0.2411 -0.3926 -1.2390
16498TIP3    H270986   1.656   2.414   3.695 -0.4501 -2.7944 -0.6490
16499TIP3   OH270987   5.856   6.726   5.421 -0.3970  0.2231 -0.0021
16499TIP3    H170988   5.761   6.734   5.417 -0.6462  0.2929  3.2076
16499TIP3    H270989   5.885   6.811   5.455  0.5905 -0.3885  0.7461
16500TIP3   OH270990   5.248   4.078   4.292 -0.2430  0.5386 -0.4587
16500TIP3    H170991   5.236   4.016   4.364 -1.9276  0.5240 -0.7192
16500TIP3    H270992   5.209   4.034   4.216  0.5672  0.9899 -1.1545
16501TIP3   OH270993   5.861   1.410   2.178 -0.1326 -0.2007  0.3577
16501TIP3    H170994   5.803   1.335   2.167 -1.1418  0.6475 -0.3237
16501TIP3    H270995   5.903   1.421   2.092 -0.7561  0.6071  0.1429
16502TIP3   OH270996   1.526   0.269   3.264 -0.3124  0.0097 -0.0676
16502TIP3    H170997   1.444   0.219   3.260  0.2918 -1.3524  2.4979
16502TIP3    H270998   1.581   0.230   3.197 -1.2936  0.1091 -0.9725
16503TIP3   OH270999   1.204   6.169  10.767  0.4231  0.3613  0.1247
16503TIP3    H171000   1.280   6.181  10.824  0.3950  0.4909  0.1370
16503TIP3    H271001   1.208   6.078  10.738  1.4237  0.7681 -1.0907
16504TIP3   OH271002   3.647   1.778  11.926  0.5399 -0.6271 -0.4580
16504TIP3    H171003   3.574   1.720  11.904  0.1537 -0.4200  0.2603
16504TIP3    H271004   3.721   1.743  11.875  0.5288 -2.2563  0.5520
16505TIP3   OH271005   1.650   5.144  16.005  0.2713 -0.0457 -0.1717
16505TIP3    H171006   1.593   5.135  16.082  1.4194 -0.0237  0.7014
16505TIP3    H271007   1.702   5.222  16.022  1.1594 -0.5342 -0.5490
16506TIP3   OH271008   3.137   2.813  16.457 -0.3961  0.0547  0.5739
16506TIP3    H171009   3.095   2.727  16.454 -0.1423 -0.0339 -1.3311
16506TIP3    H271010   3.228   2.795  16.480 -0.5092 -0.1155  0.8939
16507TIP3   OH271011   5.421   2.066  13.155 -0.3201  0.3543  0.4284
16507TIP3    H171012   5.343   2.071  13.099  0.2037  0.2263 -0.3210
16507TIP3    H271013   5.491   2.106  13.103  0.0681  0.6896  1.1930
16508TIP3   OH271014   1.391   0.457   3.860  0.3848  0.3892  0.5992
16508TIP3    H171015   1.342   0.538   3.847 -0.8754 -0.4352 -0.0963
16508TIP3    H271016   1.323   0.389   3.867  1.4125 -0.6636  0.7563
16509TIP3   OH271017   5.800   0.706   4.913 -0.0663 -0.0748 -0.1858
16509TIP3    H171018   5.856   0.633   4.938 -1.2924 -0.4891  1.5094
16509TIP3    H271019   5.798   0.703   4.817 -0.3240 -2.4873 -0.1710
16510TIP3   OH271020   3.978   3.390  13.928 -0.4599 -0.3882  0.6903
16510TIP3    H171021   3.972   3.295  13.938 -0.1372 -0.6425 -1.1842
16510TIP3    H271022   3.898   3.423  13.969 -0.1069 -1.3583  2.2476
16511TIP3   OH271023   2.062   5.579  16.643 -0.0669  0.0854  0.0593
16511TIP3    H171024   2.149   5.619  16.641  0.2193 -0.4606 -2.1812
16511TIP3    H271025   2.079   5.485  16.651 -0.4428 -0.0105 -0.2296
16512TIP3   OH271026   4.494   2.365  16.288  0.5110  0.3789 -0.2540
16512TIP3    H171027   4.454   2.398  16.207  0.7462 -0.6373 -0.8095
16512TIP3    H271028   4.498   2.441  16.346  0.7219  1.2301 -1.3524
16513TIP3   OH271029   3.254   3.664  14.351  0.4536 -0.3448 -0.8158
16513TIP3    H171030   3.165   3.629  14.344  0.7322 -1.2201 -0.1687
16513TIP3    H271031   3.246   3.755  14.322 -1.1391  0.3183  1.3710
16514TIP3   OH271032   1.537   1.155   0.624  0.2181  0.2632  0.2020
16514TIP3    H171033   1.529   1.187   0.714  1.3419  1.8557 -0.2021
16514TIP3    H271034   1.611   1.094   0.627  0.4902  0.5918  0.3032
16515TIP3   OH271035   0.260   2.054   3.274 -0.4153  0.1086 -0.2560
16515TIP3    H171036   0.215   2.020   3.196 -1.1002  0.7178 -0.1361
16515TIP3    H271037   0.205   2.025   3.347  0.6127 -1.1034  0.0873
16516TIP3   OH271038   4.977   4.631  15.875 -0.2163  0.7204 -0.1895
16516TIP3    H171039   5.009   4.582  15.800  0.5679  1.5764 -0.4263
16516TIP3    H271040   4.980   4.723  15.848  0.5822  1.0897  1.0453
16517TIP3   OH271041   0.141   2.720  15.054  0.1720 -0.2672  0.1789
16517TIP3    H171042   0.070   2.681  15.004  0.4648  0.1023 -0.5542
16517TIP3    H271043   0.100   2.755  15.133 -1.0011  2.3876 -1.4579
16518TIP3   OH271044   0.660   4.342   2.205 -0.1187 -0.8785  0.2519
16518TIP3    H171045   0.703   4.287   2.139  0.0438 -1.3351  0.7280
16518TIP3    H271046   0.689   4.431   2.184  0.3382 -1.0771  0.0163
16519TIP3   OH271047   6.667   1.175   4.348 -0.5392 -0.3685 -0.0048
16519TIP3    H171048   6.715   1.206   4.424 -0.0724 -2.0158  0.4300
16519TIP3    H271049   6.590   1.231   4.343  0.3422  0.9378  0.5765
16520TIP3   OH271050   1.551   5.978  16.113  0.0374  0.2853  0.2340
16520TIP3    H171051   1.609   5.912  16.075  1.1290  1.2319  0.2030
16520TIP3    H271052   1.539   6.042  16.044 -2.0955 -0.4831 -0.1962
16521TIP3   OH271053   1.176   5.189  17.157 -0.1162  0.8113  0.4274
16521TIP3    H171054   1.159   5.214  17.248 -1.1796  0.4904  0.3240
16521TIP3    H271055   1.098   5.142  17.129  0.8359 -0.4959 -0.1675
16522TIP3   OH271056   5.746   3.302  13.346  0.1257 -0.1407 -0.4507
16522TIP3    H171057   5.736   3.227  13.405 -1.1993  0.0235 -0.4336
16522TIP3    H271058   5.789   3.369  13.400  0.7374 -0.6598 -0.2795
16523TIP3   OH271059   2.316   6.031   3.948 -0.5289 -0.1249  0.2415
16523TIP3    H171060   2.344   5.987   4.028 -1.5334 -1.6654 -0.1990
16523TIP3    H271061   2.230   5.993   3.929 -0.4450  0.4257 -1.3895
16524TIP3   OH271062   0.448   0.637  16.933 -0.7235 -0.0125  0.7997
16524TIP3    H171063   0.479   0.701  16.868 -1.4614 -1.5730 -1.1740
16524TIP3    H271064   0.376   0.681  16.977 -2.3277  0.0215 -1.6742
16525TIP3   OH271065   2.498   4.949   6.014 -0.3058  0.3481  0.0159
16525TIP3    H171066   2.573   4.921   5.962  0.2549  1.3847  0.2391
16525TIP3    H271067   2.535   4.973   6.099 -0.8578  1.0624  0.0633
16526TIP3   OH271068   4.408   1.105   3.358 -0.2464 -0.3341 -0.5502
16526TIP3    H171069   4.453   1.166   3.416 -0.4790  0.8740 -1.6083
16526TIP3    H271070   4.465   1.098   3.281 -0.4979 -1.0062 -0.6825
16527TIP3   OH271071   6.744   4.051  12.897  0.0823 -0.5061  0.8471
16527TIP3    H171072   6.793   4.113  12.843 -1.8400 -0.2859 -0.7962
16527TIP3    H271073   6.798   4.038  12.975  2.0559  0.7111 -0.2386
16528TIP3   OH271074   4.609   1.374   4.556  0.4600  0.0820  0.0240
16528TIP3    H171075   4.657   1.406   4.480 -0.6263  0.4895 -0.5121
16528TIP3    H271076   4.605   1.279   4.545 -0.5130  0.2176 -0.9474
16529TIP3   OH271077   3.725   5.225  11.576 -0.3871 -0.4759  0.2862
16529TIP3    H171078   3.807   5.188  11.608  0.0770 -0.0677 -0.3927
16529TIP3    H271079   3.719   5.194  11.485  0.6478  2.0172 -0.7326
16530TIP3   OH271080   4.875   3.504   6.009  0.0975 -0.0504 -0.1275
16530TIP3    H171081   4.891   3.429   6.067  0.1146 -1.6750 -2.1020
16530TIP3    H271082   4.943   3.568   6.033 -0.5855 -0.1569  2.3363
16531TIP3   OH271083   3.418   3.544  13.948 -0.0501 -0.0257 -0.1850
16531TIP3    H171084   3.350   3.610  13.960  1.0396  0.8130  1.6885
16531TIP3    H271085   3.370   3.464  13.930 -1.4785  0.8356 -0.3813
16532TIP3   OH271086   3.384   6.254   2.906  0.3599 -0.0645  0.3732
16532TIP3    H171087   3.408   6.218   2.991  0.6630  1.8096  1.1309
16532TIP3    H271088   3.409   6.347   2.911 -1.4605  0.5597 -1.0249
16533TIP3   OH271089   2.214   1.406   0.644  0.5582  0.3809  0.5257
16533TIP3    H171090   2.257   1.339   0.697 -0.5216 -1.6606 -1.0221
16533TIP3    H271091   2.156   1.452   0.704  1.1242 -0.2551  1.5761
16534TIP3   OH271092   0.747   6.761  12.435 -0.4205  0.3411  0.1121
16534TIP3    H171093   0.706   6.736  12.353 -0.8182  0.0151  0.4114
16534TIP3    H271094   0.675   6.769  12.497 -0.1477  0.8014  0.3807
16535TIP3   OH271095   2.640   3.960   4.768  0.4760 -0.1836  0.3071
16535TIP3    H171096   2.676   4.025   4.829 -2.2960  1.5438  0.2644
16535TIP3    H271097   2.648   3.877   4.815  2.3710  0.4187  1.1672
16536TIP3   OH271098   1.232   1.360  13.920 -0.4429 -0.1113  0.0089
16536TIP3    H171099   1.193   1.277  13.949 -1.0453 -0.0195 -0.5148
16536TIP3    H271100   1.258   1.403  14.001  1.8937 -1.7473  0.2200
16537TIP3   OH271101   2.886   2.693   3.065 -0.2389 -0.9828 -0.4695
16537TIP3    H171102   2.810   2.643   3.096 -1.1814  0.3484 -0.5373
16537TIP3    H271103   2.944   2.627   3.027 -1.4252 -2.0203 -0.5538
16538TIP3   OH271104   1.389   1.442  13.200 -0.3055  0.3925  0.4156
16538TIP3    H171105   1.484   1.454  13.205 -0.3881  1.6952 -0.7497
16538TIP3    H271106   1.368   1.452  13.107 -1.3977 -1.5846  0.3881
16539TIP3   OH271107   5.292   3.652  16.237 -0.3544 -0.4090  0.3682
16539TIP3    H171108   5.256   3.570  16.204 -0.8691 -0.4724  1.0589
16539TIP3    H271109   5.227   3.718  16.213 -0.4034 -0.3547  0.6401
16540TIP3   OH271110   0.519   5.881  10.629  0.5120  0.7751 -0.2870
16540TIP3    H171111   0.501   5.818  10.560  0.9834 -0.7703  0.9366
16540TIP3    H271112   0.435   5.922  10.648  0.3129  0.9362 -1.4870
16541TIP3   OH271113   3.563   3.788  11.155  0.1317  0.3156 -0.0462
16541TIP3    H171114   3.622   3.858  11.185 -0.7957  0.6925  0.9625
16541TIP3    H271115   3.483   3.834  11.129 -0.1737 -0.2902 -0.2000
16542TIP3   OH271116   1.779   6.462   2.189 -0.3698  0.0960 -0.8583
16542TIP3    H171117   1.745   6.404   2.257 -0.6985 -0.3645 -1.4083
16542TIP3    H271118   1.730   6.439   2.110 -1.2052  1.7723 -0.8838
16543TIP3   OH271119   0.859   2.732  15.715 -0.5265 -0.0194 -0.3376
16543TIP3    H171120   0.901   2.654  15.751 -0.3613 -0.2757 -1.0667
16543TIP3    H271121   0.898   2.805  15.764 -0.6207 -0.3842  0.2862
16544TIP3   OH271122   0.114   5.310   0.273 -0.6795  0.3041  0.0134
16544TIP3    H171123   0.207   5.313   0.250 -0.2601  1.0052  1.6112
16544TIP3    H271124   0.070   5.278   0.194  0.8639  0.3836 -0.9181
16545TIP3   OH271125   1.774   1.181  13.998  0.4297  0.4175 -0.3330
16545TIP3    H171126   1.807   1.177  14.088 -2.3693 -0.3745  0.7780
16545TIP3    H271127   1.806   1.100  13.958  0.8693  0.2780  0.2797
16546TIP3   OH271128   1.701   1.916   3.145  0.1144  0.1636 -0.0463
16546TIP3    H171129   1.684   1.998   3.098  0.3934  1.6058  2.2208
16546TIP3    H271130   1.776   1.877   3.100 -0.9154  0.3733 -2.0494
16547TIP3   OH271131   6.422   6.336   0.215  0.1287  0.0795  0.6257
16547TIP3    H171132   6.451   6.299   0.132 -0.0235  1.0258  0.1441
16547TIP3    H271133   6.409   6.259   0.272 -0.5265 -0.6398 -0.4586
16548TIP3   OH271134   1.606   0.058  15.653  0.0915 -0.3892  0.1678
16548TIP3    H171135   1.701   0.059  15.663  0.2037 -1.6992 -0.6207
16548TIP3    H271136   1.586  -0.025  15.610 -1.6057 -1.2045  2.2673
16549TIP3   OH271137   0.451   4.925   6.629 -0.3247 -0.5074 -0.5140
16549TIP3    H171138   0.438   4.925   6.535 -0.9124 -2.2363 -0.4616
16549TIP3    H271139   0.458   4.832   6.653 -0.7445 -0.1342  1.2095
16550TIP3   OH271140   4.704   5.254   4.791  0.1076 -0.0937  0.3995
16550TIP3    H171141   4.731   5.236   4.881 -0.1919  0.3348  0.5788
16550TIP3    H271142   4.618   5.296   4.800  0.0816 -0.0411 -0.0845
16551TIP3   OH271143   3.902   2.953  14.079 -0.3011 -0.6005  0.5487
16551TIP3    H171144   3.935   2.967  14.168 -3.5589 -0.2247  1.8138
16551TIP3    H271145   3.937   3.027  14.029 -0.0979  0.3501  2.0282
16552TIP3   OH271146   2.584   0.341   2.460  0.5432 -0.0761  0.3365
16552TIP3    H171147   2.521   0.413   2.464  1.5204  0.7702  1.1123
16552TIP3    H271148   2.540   0.273   2.410 -1.2711  0.1908  1.5047
16553TIP3   OH271149   5.952   1.439  12.003  0.0745 -0.1790 -0.1713
16553TIP3    H171150   6.038   1.415  12.038  0.9469  2.0709 -0.6022
16553TIP3    H271151   5.890   1.412  12.071  1.1923 -0.9073  0.5963
16554TIP3   OH271152   0.524   2.958   4.054 -0.0077  0.0243  0.2116
16554TIP3    H171153   0.524   3.047   4.020 -0.9252  0.0279  0.1882
16554TIP3    H271154   0.612   2.945   4.087  0.3329  0.7057 -0.3936
16555TIP3   OH271155   3.773   6.673  15.136 -0.1621 -0.0088 -0.3546
16555TIP3    H171156   3.773   6.713  15.223  1.5240  0.7320 -0.6471
16555TIP3    H271157   3.864   6.647  15.122 -0.4673 -0.3983 -1.7665
16556TIP3   OH271158   3.020   2.629   2.364 -0.2034 -0.1865 -0.6869
16556TIP3    H171159   3.036   2.644   2.457  0.1561 -0.6509 -0.6705
16556TIP3    H271160   2.976   2.545   2.361  0.6787 -0.6500 -1.0017
16557TIP3   OH271161   1.994   1.827  14.895 -0.1929 -0.1460 -0.2884
16557TIP3    H171162   1.976   1.921  14.897  2.1138  0.4032 -1.8272
16557TIP3    H271163   2.065   1.815  14.958 -1.2547 -1.1006  0.7767
16558TIP3   OH271164   6.523   1.599  16.576  0.0618  0.1149  0.1100
16558TIP3    H171165   6.475   1.516  16.579  1.2948 -0.6302 -0.1034
16558TIP3    H271166   6.455   1.666  16.585 -1.2662 -0.8094 -2.0642
16559TIP3   OH271167   5.167   3.926   5.123 -0.1020  0.2151  0.0708
16559TIP3    H171168   5.208   3.866   5.185  2.3018  2.3768  0.8022
16559TIP3    H271169   5.073   3.913   5.133  0.3024 -2.7395  0.7467
16560TIP3   OH271170   5.041   6.528   5.854 -0.2073 -0.3278  0.0629
16560TIP3    H171171   4.967   6.537   5.795  0.9551 -0.4695 -1.4868
16560TIP3    H271172   5.015   6.461   5.917 -1.7577  0.3488  0.1763
16561TIP3   OH271173   1.495   1.220  12.912 -0.4326  0.1832  0.2688
16561TIP3    H171174   1.452   1.305  12.926  3.1387  2.6377 -1.9951
16561TIP3    H271175   1.530   1.197  12.998  1.9038  3.2050  0.2832
16562TIP3   OH271176   1.527   5.820  15.211 -0.0999  0.0328 -0.1701
16562TIP3    H171177   1.454   5.873  15.176 -0.5787 -0.5319 -0.0476
16562TIP3    H271178   1.502   5.730  15.190 -0.1371 -0.2821  1.1593
16563TIP3   OH271179   3.773   6.319   5.341 -0.4116 -0.4422 -0.8804
16563TIP3    H171180   3.828   6.241   5.351 -1.1881 -0.9365 -0.3159
16563TIP3    H271181   3.784   6.345   5.250  0.3746 -0.8153 -0.9008
16564TIP3   OH271182   2.604   5.674  13.541 -0.5415  0.0663  0.2856
16564TIP3    H171183   2.627   5.674  13.447 -0.6702  0.0572  0.2544
16564TIP3    H271184   2.518   5.632  13.545 -0.0495 -0.9480  0.5289
16565TIP3   OH271185   6.280   3.421  16.689  0.0669 -0.6773  0.0465
16565TIP3    H171186   6.354   3.474  16.660 -0.1344 -0.1891  0.4016
16565TIP3    H271187   6.211   3.485  16.707  0.0721 -0.9871  1.2514
16566TIP3   OH271188   3.458   0.070   4.346 -0.0460 -0.6403  0.0653
16566TIP3    H171189   3.509   0.001   4.305  0.7713 -1.3973  2.1813
16566TIP3    H271190   3.524   0.129   4.383 -0.6873 -0.7005  1.3686
16567TIP3   OH271191   2.666   6.501   6.292 -0.1987 -0.0313 -0.0634
16567TIP3    H171192   2.687   6.572   6.230  0.5626 -0.7810 -0.6975
16567TIP3    H271193   2.711   6.425   6.256 -0.0250 -0.5699  1.2509
16568TIP3   OH271194   5.030   6.223  14.721  0.2756  0.1092 -0.3833
16568TIP3    H171195   5.073   6.140  14.699  0.7337  0.2641 -0.0894
16568TIP3    H271196   4.940   6.200  14.741  0.7491 -0.5207  1.1385
16569TIP3   OH271197   1.107   1.489  15.727 -0.1451  0.5464  0.8173
16569TIP3    H171198   1.171   1.560  15.733  0.9187 -0.4180  1.2015
16569TIP3    H271199   1.160   1.409  15.721 -1.2601 -0.0990 -1.9800
16570TIP3   OH271200   0.188   3.189  16.577 -0.1076  0.1185 -0.0412
16570TIP3    H171201   0.220   3.209  16.489  0.0362  1.4104  0.2869
16570TIP3    H271202   0.242   3.116  16.607 -1.0804 -1.2729 -1.5303
16571TIP3   OH271203   2.598   5.386   2.774 -0.3757  0.1329 -0.1451
16571TIP3    H171204   2.585   5.480   2.761 -2.6638 -0.4231 -3.0681
16571TIP3    H271205   2.554   5.367   2.857 -2.4876  1.3117 -0.9051
16572TIP3   OH271206   5.267   5.473   5.598  0.0508 -0.4828  0.4403
16572TIP3    H171207   5.350   5.489   5.642  0.2238 -1.0677  0.3470
16572TIP3    H271208   5.272   5.381   5.571 -0.2135 -0.2570 -0.4406
16573TIP3   OH271209   3.864   1.284  14.605  0.3455 -0.0663 -0.3114
16573TIP3    H171210   3.863   1.269  14.699 -1.5446 -0.0079 -0.2789
16573TIP3    H271211   3.800   1.222  14.570  1.0497 -0.1193 -1.5674
16574TIP3   OH271212   6.418   4.402  11.058  0.2379 -0.2012  0.5561
16574TIP3    H171213   6.407   4.363  10.971 -1.9626  0.2167  0.5994
16574TIP3    H271214   6.430   4.495  11.041 -1.1595  0.0306  0.6868
16575TIP3   OH271215   1.040   4.884   2.494  0.1789  0.2995  0.1090
16575TIP3    H171216   1.054   4.819   2.562 -0.0845 -0.1423 -0.2586
16575TIP3    H271217   1.123   4.931   2.488  1.0536 -1.3132 -1.0146
16576TIP3   OH271218   5.341   1.134  11.780 -0.2710  0.1205  0.1386
16576TIP3    H171219   5.431   1.138  11.748 -0.5529 -1.2944 -0.9385
16576TIP3    H271220   5.343   1.177  11.866  1.1821  1.1096 -0.3670
16577TIP3   OH271221   2.648   6.001  16.072  0.2078  0.4320  0.1571
16577TIP3    H171222   2.682   5.960  16.152  0.5437 -1.2413 -0.8096
16577TIP3    H271223   2.553   5.992  16.079  0.1818  1.0373  0.7343
16578TIP3   OH271224   6.419   4.810  11.277  0.1916 -0.4152  0.1511
16578TIP3    H171225   6.397   4.842  11.190 -0.0760 -0.3541  0.2378
16578TIP3    H271226   6.512   4.827  11.287  0.1540 -0.1221  0.0024
16579TIP3   OH271227   2.296   2.694  14.860 -0.5395  0.2894 -0.8033
16579TIP3    H171228   2.358   2.663  14.794  1.4292  1.0911  0.5619
16579TIP3    H271229   2.347   2.756  14.912 -1.0340 -2.3939  3.2842
16580TIP3   OH271230   5.530   1.355   1.430  0.3306 -0.2892 -0.2400
16580TIP3    H171231   5.535   1.310   1.514  1.1055 -0.4499 -0.3641
16580TIP3    H271232   5.599   1.314   1.377 -3.5899 -4.2732 -2.9677
16581TIP3   OH271233   1.832   6.203   4.363 -0.1021 -0.0751 -0.2573
16581TIP3    H171234   1.857   6.219   4.272  0.7314 -0.1343 -0.0432
16581TIP3    H271235   1.762   6.266   4.380 -0.8042 -0.5833 -1.1680
16582TIP3   OH271236   2.113   4.457  15.309  0.1755  0.0147  0.1682
16582TIP3    H171237   2.154   4.525  15.363  0.6542 -0.7333  0.7793
16582TIP3    H271238   2.140   4.375  15.350  0.8925 -0.6049 -1.4328
16583TIP3   OH271239   2.368   2.851   1.404 -0.5837 -0.6763  0.0218
16583TIP3    H171240   2.380   2.915   1.474 -1.0806 -0.4973 -0.0526
16583TIP3    H271241   2.400   2.894   1.325  1.5945 -1.4961  0.3988
16584TIP3   OH271242   6.440   6.637   3.047  0.5519 -0.4667 -0.8814
16584TIP3    H171243   6.383   6.602   3.115  0.6849 -1.7689 -1.4115
16584TIP3    H271244   6.528   6.608   3.072  0.6221 -0.8010 -1.4933
16585TIP3   OH271245   3.101   1.497   1.090  0.2764  0.0573  0.1444
16585TIP3    H171246   3.193   1.474   1.077 -0.0332  0.0064 -2.2861
16585TIP3    H271247   3.059   1.414   1.115  1.0660  0.3541  2.7656
16586TIP3   OH271248   2.934   2.927   2.710 -0.6741  0.1021 -0.0099
16586TIP3    H171249   2.872   2.869   2.753  0.3446 -1.8709 -1.0895
16586TIP3    H271250   3.003   2.941   2.775 -1.1901  0.5761  0.4454
16587TIP3   OH271251   2.302   5.291   3.183 -0.5460 -0.0907 -0.3370
16587TIP3    H171252   2.380   5.284   3.238  0.5698 -1.6378 -1.9986
16587TIP3    H271253   2.229   5.280   3.244  0.5885 -0.4645  1.0077
16588TIP3   OH271254   3.375   5.268  17.284  0.2654  0.5146  0.1959
16588TIP3    H171255   3.353   5.204  17.217 -0.0715  0.0066  0.7855
16588TIP3    H271256   3.438   5.223  17.341 -1.0917  0.1744  1.4653
16589TIP3   OH271257   4.890   0.247   3.014 -0.3105  0.2588  0.7342
16589TIP3    H171258   4.842   0.329   3.002 -1.0965 -0.4710 -1.7396
16589TIP3    H271259   4.825   0.185   3.048 -0.6700 -0.2078 -0.7281
16590TIP3   OH271260   6.067   5.244  11.632 -0.0752 -0.0459  0.1193
16590TIP3    H171261   6.103   5.191  11.704 -1.1570  1.5780  1.9722
16590TIP3    H271262   6.065   5.333  11.668 -1.0225  0.7630 -1.8256
16591TIP3   OH271263   3.337   4.187  11.085  0.1193 -0.0441 -0.3736
16591TIP3    H171264   3.243   4.183  11.102  0.3107  2.4075  2.0407
16591TIP3    H271265   3.344   4.239  11.004 -0.5958  0.3567 -0.1876
16592TIP3   OH271266   2.552   2.038  11.405  0.4098 -0.0473  0.1858
16592TIP3    H171267   2.511   1.996  11.480  1.2784 -0.0525  0.6732
16592TIP3    H271268   2.524   1.987  11.329  1.3149 -1.4236  0.7499
16593TIP3   OH271269   6.238   6.605  11.921 -0.0399  0.3969 -0.3629
16593TIP3    H171270   6.262   6.555  11.843  2.2869  1.7408 -0.6050
16593TIP3    H271271   6.164   6.660  11.892  0.5204  0.5760 -1.5228
16594TIP3   OH271272   3.148   6.788  16.871  0.4695  0.3300 -0.5940
16594TIP3    H171273   3.135   6.728  16.944  0.6147  1.5348  0.4408
16594TIP3    H271274   3.098   6.748  16.799  0.8122 -1.1807 -0.0392
16595TIP3   OH271275   5.258   2.533  11.776 -0.6010 -0.3986  0.3169
16595TIP3    H171276   5.185   2.577  11.733 -1.8929 -1.0555  1.7318
16595TIP3    H271277   5.217   2.468  11.833  1.1194 -1.2215  0.7011
16596TIP3   OH271278   5.552   3.040  14.889 -0.5510 -0.2790  0.3976
16596TIP3    H171279   5.460   3.015  14.886 -1.6099  3.1148 -0.2276
16596TIP3    H271280   5.564   3.096  14.812  0.8762  2.5375  2.4685
16597TIP3   OH271281   5.458   2.627  12.429  0.8505 -0.2858 -0.0984
16597TIP3    H171282   5.488   2.662  12.346 -0.6142  0.8637 -0.1929
16597TIP3    H271283   5.537   2.598  12.474  2.0694  2.2939 -0.4390
16598TIP3   OH271284   1.638   1.148  13.136 -0.3338 -0.3974 -0.0335
16598TIP3    H171285   1.612   1.060  13.163 -0.4158 -0.7075 -1.0807
16598TIP3    H271286   1.626   1.201  13.214 -2.4572 -0.8609  0.0132
16599TIP3   OH271287   2.130   5.339  15.204 -0.4733 -0.1800  0.2873
16599TIP3    H171288   2.081   5.415  15.234 -2.2671 -1.0261 -0.3730
16599TIP3    H271289   2.195   5.374  15.144 -1.9039  0.7684 -0.7675
16600TIP3   OH271290   5.154   5.456   3.275 -0.2331  0.2349 -0.2025
16600TIP3    H171291   5.073   5.462   3.224 -2.5334 -0.3760  3.0475
16600TIP3    H271292   5.191   5.370   3.252 -1.5907 -0.3369 -0.3280
16601TIP3   OH271293   0.958   0.604   1.557 -0.0778 -0.6531  0.2619
16601TIP3    H171294   1.045   0.599   1.597 -0.4969  1.1199  1.5161
16601TIP3    H271295   0.963   0.678   1.498 -0.9416 -0.0255  0.9555
16602TIP3   OH271296   3.818   6.559  14.736 -0.4289 -0.1093 -0.1256
16602TIP3    H171297   3.756   6.503  14.784 -0.5841 -1.3432 -1.6737
16602TIP3    H271298   3.774   6.644  14.730 -0.9687 -0.3199  0.7676
16603TIP3   OH271299   1.658   5.505  13.869  0.8518  0.1650  0.6337
16603TIP3    H171300   1.585   5.527  13.927 -0.0303  2.5485 -1.2549
16603TIP3    H271301   1.635   5.420  13.833 -0.6750  0.5724  0.5862
16604TIP3   OH271302   1.338   2.247   1.557 -0.3175 -0.2932  0.1753
16604TIP3    H171303   1.394   2.223   1.483 -0.6939  0.8932 -0.5100
16604TIP3    H271304   1.347   2.342   1.564 -2.4285 -0.0399 -0.0916
16605TIP3   OH271305   5.740   0.431   5.244  0.0383  0.6632 -0.3419
16605TIP3    H171306   5.789   0.371   5.300 -0.1029  0.3153 -0.5888
16605TIP3    H271307   5.648   0.414   5.265  0.0281  2.3277  1.1791
16606TIP3   OH271308   5.831   0.526  11.159  0.0874  0.5876 -0.6773
16606TIP3    H171309   5.847   0.449  11.105 -1.2465 -0.5472  0.4687
16606TIP3    H271310   5.794   0.492  11.240  0.2032  2.3827  0.1947
16607TIP3   OH271311   1.550   4.789   4.793  0.1546 -0.0850 -0.0544
16607TIP3    H171312   1.559   4.877   4.756 -0.1483 -0.1520 -0.2915
16607TIP3    H271313   1.515   4.737   4.721 -0.7254 -0.1519  0.4070
16608TIP3   OH271314   2.165   5.517   6.541 -0.1563  0.1551 -0.1012
16608TIP3    H171315   2.144   5.610   6.542 -1.2383 -0.0733 -0.1731
16608TIP3    H271316   2.092   5.476   6.495 -0.2264 -0.8392  0.8296
16609TIP3   OH271317   3.160   0.856  11.320 -0.2665  0.3166 -0.2322
16609TIP3    H171318   3.200   0.769  11.320 -0.3318  0.2731  0.5419
16609TIP3    H271319   3.188   0.896  11.238  0.2851 -0.2055 -0.3032
16610TIP3   OH271320   5.110   1.479  13.260 -0.1528  0.1259  0.3151
16610TIP3    H171321   5.175   1.527  13.311 -0.1510 -0.9228  1.3593
16610TIP3    H271322   5.155   1.399  13.233 -0.3411  0.4063 -0.8528
16611TIP3   OH271323   3.543   2.463  15.463  0.0664 -0.2370  0.0166
16611TIP3    H171324   3.459   2.508  15.475  0.3477  0.0659  0.8328
16611TIP3    H271325   3.524   2.396  15.397 -0.0808  1.8192 -2.1836
16612TIP3   OH271326   6.097   1.071  12.877  0.0816  0.4302 -0.1548
16612TIP3    H171327   6.074   1.067  12.784 -1.0822  1.7323  0.0379
16612TIP3    H271328   6.031   1.016  12.920  0.8209 -0.4449 -0.1110
16613TIP3   OH271329   1.616   4.038  12.479 -0.3630  0.4171  0.2385
16613TIP3    H171330   1.579   3.984  12.409 -3.8162  1.6730  0.9304
16613TIP3    H271331   1.676   3.979  12.525 -1.5159 -1.8429 -0.9765
16614TIP3   OH271332   4.573   1.885  12.430 -0.1317  0.5068  0.3312
16614TIP3    H171333   4.495   1.895  12.485  0.0873  0.3582  0.6703
16614TIP3    H271334   4.646   1.904  12.488  0.1450 -0.4288  0.3034
16615TIP3   OH271335   4.620   4.431  17.050  0.2530 -0.0459  0.1713
16615TIP3    H171336   4.617   4.336  17.045  1.6630 -0.1091  0.0187
16615TIP3    H271337   4.689   4.456  16.988  1.9326  0.8472  2.2977
16616TIP3   OH271338   0.807   4.695   3.937 -0.5759  0.0994  0.3937
16616TIP3    H171339   0.853   4.756   3.995  1.9148 -1.1811 -0.1019
16616TIP3    H271340   0.859   4.695   3.857 -2.8699  0.3872 -1.1952
16617TIP3   OH271341   2.982   0.456  13.361 -0.2396  0.3138  0.3369
16617TIP3    H171342   3.068   0.448  13.401  0.7610  0.1975 -1.7235
16617TIP3    H271343   2.939   0.527  13.409  0.5300 -0.3928  2.1448
16618TIP3   OH271344   4.937   2.307   1.847  0.2254  0.4692 -0.3762
16618TIP3    H171345   5.022   2.328   1.808  1.6595 -3.6065  0.1330
16618TIP3    H271346   4.873   2.328   1.778  1.8062  1.4711 -1.6167
16619TIP3   OH271347   1.941   1.424   1.088  0.4490 -0.0318 -0.2250
16619TIP3    H171348   1.850   1.422   1.118  0.7499  2.5618  1.1744
16619TIP3    H271349   1.935   1.415   0.993 -1.1330 -1.1955 -0.0638
16620TIP3   OH271350   5.543   3.040   1.241 -0.0630  0.1761 -0.4744
16620TIP3    H171351   5.507   3.088   1.315  0.6947 -1.5487  1.0718
16620TIP3    H271352   5.620   2.996   1.276  0.6509 -0.2564 -2.4393
16621TIP3   OH271353   0.364   4.171   2.704 -0.3493 -0.1898 -0.1486
16621TIP3    H171354   0.371   4.173   2.799  0.0368 -2.2188 -0.0804
16621TIP3    H271355   0.275   4.201   2.685 -0.9485 -1.1933  0.9688
16622TIP3   OH271356   5.183   0.368   4.472 -0.3749  0.1641 -0.5917
16622TIP3    H171357   5.161   0.307   4.542  1.2468 -0.8659 -0.9382
16622TIP3    H271358   5.099   0.388   4.430 -0.9182 -2.2782 -0.8176
16623TIP3   OH271359   5.131   6.042  17.058  0.3651 -0.2562  0.4773
16623TIP3    H171360   5.072   6.104  17.102 -0.6717 -1.9377  1.5583
16623TIP3    H271361   5.104   6.044  16.966 -0.2849  0.1725  0.6728
16624TIP3   OH271362   2.712   3.169   0.533 -0.1780  0.1129 -0.0616
16624TIP3    H171363   2.700   3.077   0.555  1.4009  0.1908  1.3394
16624TIP3    H271364   2.693   3.216   0.614  2.3279  0.7134  0.2644
16625TIP3   OH271365   0.868   0.784  15.465  0.4473  0.1417  0.0484
16625TIP3    H171366   0.809   0.718  15.427 -0.8722 -0.4319  2.8361
16625TIP3    H271367   0.921   0.735  15.528 -1.1047  1.7244  2.7728
16626TIP3   OH271368   0.866   1.819  12.324  0.3404  0.1818  0.0846
16626TIP3    H171369   0.774   1.801  12.345  0.0478  0.6866 -0.7530
16626TIP3    H271370   0.869   1.824  12.229  1.1132  0.8206  0.1301
16627TIP3   OH271371   2.485   2.971   5.874 -0.4975  0.4277 -0.2728
16627TIP3    H171372   2.530   3.014   5.802  0.7934 -0.7740 -0.2340
16627TIP3    H271373   2.532   3.001   5.952  0.9126 -1.5225 -0.2966
16628TIP3   OH271374   3.737   4.705  17.285  0.6654  0.1980 -0.1219
16628TIP3    H171375   3.713   4.636  17.223 -2.9867  1.1343  0.0315
16628TIP3    H271376   3.721   4.786  17.237 -0.6826  0.9174  1.4576
16629TIP3   OH271377   4.319   0.730  11.330 -0.1948 -0.6155  0.0624
16629TIP3    H171378   4.252   0.793  11.308 -0.2336 -0.7722 -0.2697
16629TIP3    H271379   4.271   0.653  11.362 -0.2059 -0.9674 -0.7793
16630TIP3   OH271380   1.689   3.787   4.850 -0.5419  0.0022 -0.4182
16630TIP3    H171381   1.613   3.740   4.815 -1.5347  0.4618  1.0444
16630TIP3    H271382   1.718   3.734   4.924  0.9680 -0.4858 -1.3218
16631TIP3   OH271383   6.299   2.961  14.798 -0.0913 -0.3210  0.2626
16631TIP3    H171384   6.306   2.892  14.733  0.5914  0.1902 -0.2171
16631TIP3    H271385   6.373   2.945  14.858  1.5362  1.3250 -1.1740
16632TIP3   OH271386   5.481   0.576   1.499 -0.0157 -0.0987 -0.6472
16632TIP3    H171387   5.453   0.642   1.563 -0.2458 -0.0865 -0.7590
16632TIP3    H271388   5.409   0.571   1.437  0.3421  0.1005 -1.0766
16633TIP3   OH271389   5.644   6.175   5.199  0.4949 -0.0134 -0.0459
16633TIP3    H171390   5.602   6.219   5.125  0.9979  0.6866  0.0766
16633TIP3    H271391   5.609   6.220   5.276  1.4555  0.5777  0.0571
16634TIP3   OH271392   5.100   6.619  15.956 -0.0230  0.6119 -0.3266
16634TIP3    H171393   5.162   6.677  16.000  1.2681 -0.1329 -1.0981
16634TIP3    H271394   5.081   6.664  15.873 -0.4139  0.7654 -0.1577
16635TIP3   OH271395   4.575   3.910   4.168 -0.2762 -0.2907 -0.5998
16635TIP3    H171396   4.505   3.863   4.213  0.3969 -0.9650 -0.2257
16635TIP3    H271397   4.585   3.863   4.085 -0.9484  0.4325 -1.0958
16636TIP3   OH271398   2.752   0.533  17.096 -0.0904  0.4284 -0.2620
16636TIP3    H171399   2.793   0.470  17.156  1.1981 -1.1649 -2.6013
16636TIP3    H271400   2.720   0.603  17.152 -0.8669 -1.8995  2.4648
16637TIP3   OH271401   3.627   4.229  16.560 -0.1567 -0.4631 -0.2645
16637TIP3    H171402   3.673   4.260  16.638 -2.1872  1.3279  0.3413
16637TIP3    H271403   3.663   4.282  16.489 -0.3836  0.0424 -0.0098
16638TIP3   OH271404   4.082   0.431  16.768  0.2042  0.4830 -0.2609
16638TIP3    H171405   4.078   0.382  16.686  0.6831 -0.0897  0.0459
16638TIP3    H271406   4.176   0.444  16.784  0.1523 -0.1698  0.6304
16639TIP3   OH271407   5.813   1.025  14.347  0.8171  0.5936  0.3243
16639TIP3    H171408   5.881   1.063  14.291  0.7868  0.8949  0.4922
16639TIP3    H271409   5.843   1.043  14.436  0.6083  0.5625  0.4002
16640TIP3   OH271410   3.309   4.169  14.444 -0.2604 -0.6914 -0.2650
16640TIP3    H171411   3.404   4.177  14.437 -0.1501  0.7216  2.0018
16640TIP3    H271412   3.274   4.230  14.379  0.3705 -0.7218 -0.6352
16641TIP3   OH271413   3.083   1.118  12.402 -0.3534 -0.0287 -0.7185
16641TIP3    H171414   3.020   1.179  12.364 -2.9368 -1.8838  0.3006
16641TIP3    H271415   3.101   1.153  12.489  1.2041  1.2335 -1.4921
16642TIP3   OH271416   5.521   1.955  12.663 -0.0055  0.0939 -1.0743
16642TIP3    H171417   5.507   2.009  12.741  0.8417  0.4880 -1.1910
16642TIP3    H271418   5.438   1.961  12.615 -0.7289 -0.5754  0.0374
16643TIP3   OH271419   0.349   0.669   6.342 -0.6901 -0.6771 -0.4474
16643TIP3    H171420   0.413   0.724   6.385  1.1417 -2.6277 -0.5228
16643TIP3    H271421   0.397   0.625   6.272 -1.7100 -3.2420  0.3341
16644TIP3   OH271422   1.997   4.514   2.527  0.1209  0.1891  0.2795
16644TIP3    H171423   1.987   4.565   2.447 -0.5206  0.1857  0.3588
16644TIP3    H271424   2.057   4.566   2.581 -0.2422  0.6797  0.2121
16645TIP3   OH271425   1.575   3.519  16.723  0.2485 -0.4547  0.1077
16645TIP3    H171426   1.638   3.451  16.700  0.8131  0.5389 -1.4524
16645TIP3    H271427   1.511   3.517  16.651  0.2985  0.6783  0.0220
16646TIP3   OH271428   2.345   0.930  14.566 -0.1303 -0.7306  0.3157
16646TIP3    H171429   2.256   0.951  14.536  0.1629 -0.4297 -0.3509
16646TIP3    H271430   2.370   0.854  14.515 -0.0142 -0.8338  0.5262
16647TIP3   OH271431   4.694   2.088  12.878  0.1050 -0.3971 -0.0288
16647TIP3    H171432   4.603   2.089  12.907  0.4581  1.4626  1.1814
16647TIP3    H271433   4.705   2.172  12.833  1.0264 -0.9487 -0.8723
16648TIP3   OH271434   2.310   3.429   1.066  0.7645  0.1773 -0.3710
16648TIP3    H171435   2.265   3.425   0.982  3.1722  1.0067 -1.7929
16648TIP3    H271436   2.351   3.516   1.068  1.6307 -0.2194  1.1748
16649TIP3   OH271437   3.337   6.201   2.534 -0.3507  0.7205 -0.1866
16649TIP3    H171438   3.297   6.114   2.526  0.7515  0.1693  0.1345
16649TIP3    H271439   3.287   6.255   2.474 -0.1802 -0.4664 -1.4513
16650TIP3   OH271440   1.298   2.406   5.195 -0.6226 -0.2496 -0.3203
16650TIP3    H171441   1.219   2.456   5.173 -0.1759  0.7751  0.3249
16650TIP3    H271442   1.291   2.393   5.290 -0.2046 -0.4867 -0.3229
16651TIP3   OH271443   2.604   1.940   6.585 -0.2067 -0.2236  0.2666
16651TIP3    H171444   2.595   2.024   6.540  2.3858 -0.4412 -0.9061
16651TIP3    H271445   2.546   1.881   6.537 -0.4642  0.4427 -0.2678
16652TIP3   OH271446   2.104   4.289  14.023 -0.0668  0.1494 -0.2633
16652TIP3    H171447   2.048   4.314  14.096 -0.5896  1.9051 -1.2258
16652TIP3    H271448   2.043   4.264  13.953  0.4170 -0.8680 -0.3420
16653TIP3   OH271449   6.446   5.147   4.495  0.7382  0.5654 -0.2264
16653TIP3    H171450   6.351   5.140   4.484  0.9884  0.1620 -3.0035
16653TIP3    H271451   6.474   5.059   4.521  0.4208  0.5266 -0.0101
16654TIP3   OH271452   2.117   5.468  16.977  0.1315  0.3298 -0.0897
16654TIP3    H171453   2.079   5.398  16.924  2.2739 -1.1828  0.2766
16654TIP3    H271454   2.074   5.548  16.945 -0.6849 -0.8632 -2.1335
16655TIP3   OH271455   6.769   5.351  14.996  0.2964 -0.3065 -0.0903
16655TIP3    H171456   6.745   5.321  15.084  1.4215  1.0630  0.7132
16655TIP3    H271457   6.784   5.445  15.005  0.0160 -0.0553 -1.8542
16656TIP3   OH271458   3.548   3.835  11.930 -0.1717 -0.2916 -0.1049
16656TIP3    H171459   3.525   3.924  11.954  0.6805  0.3050 -1.3718
16656TIP3    H271460   3.556   3.837  11.835  0.0525 -1.6680 -0.1365
16657TIP3   OH271461   2.400   4.487  12.594  0.4082 -0.1591  0.2799
16657TIP3    H171462   2.355   4.433  12.658 -0.2702  1.7784  1.5172
16657TIP3    H271463   2.474   4.433  12.564 -0.1635 -1.6908  1.5154
16658TIP3   OH271464   2.091   3.235   4.647  0.2595 -0.7608 -0.6037
16658TIP3    H171465   2.042   3.315   4.665  0.8260 -0.0696 -1.9759
16658TIP3    H271466   2.121   3.205   4.733  0.8915  1.0719 -0.1343
16659TIP3   OH271467   4.501   0.267  14.719 -0.3654 -0.9795  0.3378
16659TIP3    H171468   4.492   0.316  14.637 -1.6632  2.5725  2.3857
16659TIP3    H271469   4.591   0.286  14.748 -0.4238 -0.9174  0.4798
16660TIP3   OH271470   5.671   2.657  15.970  0.0426 -0.5663  0.5028
16660TIP3    H171471   5.683   2.571  16.010  2.0881 -0.8807 -0.6502
16660TIP3    H271472   5.724   2.655  15.891 -0.4042  1.5321  0.0759
16661TIP3   OH271473   5.649   0.986   5.462  0.3741  0.0104  0.3301
16661TIP3    H171474   5.718   1.039   5.504  2.3207 -1.9612 -0.1631
16661TIP3    H271475   5.568   1.020   5.498  1.5300  2.8335  0.5487
16662TIP3   OH271476   5.258   3.108  17.199  0.0632  0.3087  0.1690
16662TIP3    H171477   5.168   3.100  17.229 -0.1627 -0.6161 -0.6865
16662TIP3    H271478   5.253   3.095  17.104  1.4893 -4.0450  0.4599
16663TIP3   OH271479   0.099   1.915  13.292  0.4119  0.3617  1.1114
16663TIP3    H171480   0.191   1.906  13.314  0.1485  1.5594  2.9112
16663TIP3    H271481   0.055   1.849  13.345  0.3162 -1.2464 -0.8634
16664TIP3   OH271482   0.611   3.136  16.009  0.5038  0.1081 -0.5284
16664TIP3    H171483   0.583   3.225  16.030  0.0489 -0.1476 -0.0186
16664TIP3    H271484   0.646   3.142  15.920  0.4603  0.7897 -0.5052
16665TIP3   OH271485   1.527   5.307   4.116  0.5489  0.0740 -0.4117
16665TIP3    H171486   1.618   5.305   4.146  0.3609 -2.1368  0.2109
16665TIP3    H271487   1.496   5.217   4.128 -1.6854  0.7347 -0.7383
16666TIP3   OH271488   4.182   4.912   2.012  0.0772  0.3612  0.1817
16666TIP3    H171489   4.157   5.001   1.989  0.3132 -0.2385 -2.7264
16666TIP3    H271490   4.194   4.867   1.929 -0.1241 -2.4524  1.5267
16667TIP3   OH271491   3.938   5.301  13.178  0.4868  0.1695 -0.0908
16667TIP3    H171492   3.989   5.381  13.183 -2.2048  1.9772  0.8970
16667TIP3    H271493   3.883   5.303  13.257 -1.8402 -1.0533 -1.5645
16668TIP3   OH271494   5.328   5.776   4.362 -0.2270  0.5526 -0.4616
16668TIP3    H171495   5.273   5.708   4.323 -0.0116 -0.0197  0.2050
16668TIP3    H271496   5.361   5.736   4.443 -1.0662  1.8606  0.5714
16669TIP3   OH271497   5.224   3.621  15.751 -0.5392 -0.4943 -0.8532
16669TIP3    H171498   5.315   3.600  15.771 -0.5696 -0.5831 -0.8069
16669TIP3    H271499   5.179   3.615  15.836 -0.5874 -0.4472 -0.8750
16670TIP3   OH271500   1.676   5.857  14.955 -0.3423  0.4559 -0.1470
16670TIP3    H171501   1.665   5.860  15.050 -1.4878 -0.3922 -0.2351
16670TIP3    H271502   1.619   5.926  14.922 -2.6541 -1.4265 -0.3729
16671TIP3   OH271503   5.345   3.048  14.445  0.2560  0.7264  0.1293
16671TIP3    H171504   5.255   3.057  14.475 -0.3887 -1.1250 -1.1181
16671TIP3    H271505   5.361   3.128  14.395 -0.4242  1.3929  0.9383
16672TIP3   OH271506   4.746   5.354   2.580 -0.4931 -0.4570  0.1403
16672TIP3    H171507   4.827   5.328   2.537  0.6228 -0.6286  2.2185
16672TIP3    H271508   4.723   5.438   2.541  1.6633  0.4567  0.7488
16673TIP3   OH271509   1.505   0.777  12.852  0.2088 -0.0184  0.4391
16673TIP3    H171510   1.414   0.745  12.849  0.2175 -0.0080 -0.5145
16673TIP3    H271511   1.502   0.852  12.910 -0.2000 -0.6020  1.1899
16674TIP3   OH271512   6.491   6.081  15.346  0.2574  0.0574  0.3899
16674TIP3    H171513   6.521   6.046  15.429  0.8171 -0.6610 -0.1033
16674TIP3    H271514   6.566   6.130  15.312  0.2401 -0.1674  0.0224
16675TIP3   OH271515   4.843   6.284  12.913 -0.4231 -0.2982 -0.0960
16675TIP3    H171516   4.791   6.211  12.947  1.7081 -1.7031  0.3111
16675TIP3    H271517   4.843   6.348  12.985  1.1872 -1.7732  1.2962
16676TIP3   OH271518   6.463   5.766   4.701  0.9489 -0.3978  0.4261
16676TIP3    H171519   6.407   5.830   4.743 -0.0073  0.1459 -1.5649
16676TIP3    H271520   6.551   5.785   4.734  0.6137  1.6179  0.2938
16677TIP3   OH271521   4.840   4.811   2.521  0.1437 -0.0383 -0.5279
16677TIP3    H171522   4.827   4.906   2.513  1.8440  0.3047  0.2529
16677TIP3    H271523   4.826   4.793   2.614  0.6395 -0.4058 -0.5231
16678TIP3   OH271524   4.695   4.594   1.761 -0.2990 -0.5504  0.3015
16678TIP3    H171525   4.724   4.634   1.843 -0.0413  0.1292 -0.1158
16678TIP3    H271526   4.748   4.635   1.693 -0.1327 -1.4937 -0.1609
16679TIP3   OH271527   1.943   5.705   0.949  0.4194 -0.3019  0.4602
16679TIP3    H171528   2.008   5.668   0.890  0.4822 -0.5466  0.6791
16679TIP3    H271529   1.883   5.753   0.892  1.9999  1.7969  0.4426
16680TIP3   OH271530   4.306   5.987   5.655  0.2328  0.4242 -0.6897
16680TIP3    H171531   4.381   6.036   5.622 -0.1994 -0.2801 -2.8619
16680TIP3    H271532   4.237   6.053   5.663  0.3114  0.6022 -1.3728
16681TIP3   OH271533   5.440   2.027  15.311  0.0500  0.5379 -0.2809
16681TIP3    H171534   5.442   1.948  15.256  0.1960  0.8317 -0.7043
16681TIP3    H271535   5.367   2.013  15.370 -0.4876  0.4784 -0.9476
16682TIP3   OH271536   0.086   5.684  11.921 -0.2482  0.3298 -0.3214
16682TIP3    H171537   0.026   5.750  11.956  0.0897 -0.6712  2.4437
16682TIP3    H271538   0.029   5.615  11.887 -0.7501 -0.1731  1.4094
16683TIP3   OH271539   1.625   2.063   0.805  0.4696 -0.2803 -0.3961
16683TIP3    H171540   1.538   2.103   0.816  0.3627 -0.7655  0.6943
16683TIP3    H271541   1.685   2.124   0.848  0.5742 -0.2958 -0.5204
16684TIP3   OH271542   1.825   0.847   0.037 -0.3980  0.3916 -0.5347
16684TIP3    H171543   1.750   0.864  -0.021 -1.4016  0.0591  0.6401
16684TIP3    H271544   1.812   0.757   0.068  0.1147  0.5705  0.2211
16685TIP3   OH271545   6.332   3.338  12.174 -0.1453  0.2228  0.3295
16685TIP3    H171546   6.299   3.248  12.174  1.3877 -0.3912 -1.2452
16685TIP3    H271547   6.255   3.392  12.195 -1.0673 -1.4343  1.3939
16686TIP3   OH271548   3.104   1.979   0.003  0.2681 -0.3583 -0.1344
16686TIP3    H171549   3.072   1.889   0.003  3.7771 -1.8729  2.3977
16686TIP3    H271550   3.192   1.972  -0.035  0.2332  2.2346 -0.8180
16687TIP3   OH271551   1.806   2.258   3.455 -0.2992 -0.4000 -0.1755
16687TIP3    H171552   1.832   2.221   3.371 -1.6341 -0.9620 -0.3667
16687TIP3    H271553   1.756   2.188   3.497 -0.4546  0.2149  0.6753
16688TIP3   OH271554   6.681   2.245   5.866 -0.3091 -0.0153 -0.2591
16688TIP3    H171555   6.678   2.317   5.929 -0.0668  0.3833 -0.6911
16688TIP3    H271556   6.765   2.255   5.822 -0.7495  0.1156 -1.1017
16689TIP3   OH271557   0.605   3.478   0.778 -0.0541 -0.3104 -0.0955
16689TIP3    H171558   0.683   3.519   0.740  0.7414 -1.8077 -0.1515
16689TIP3    H271559   0.636   3.394   0.812 -1.6583 -0.9799 -0.1992
16690TIP3   OH271560   2.956   0.614   5.387  0.2705  0.0500 -0.1481
16690TIP3    H171561   2.865   0.605   5.358 -0.2265 -0.8744  1.5446
16690TIP3    H271562   3.004   0.547   5.337  0.4346  1.6650 -2.3334
16691TIP3   OH271563   6.299   0.999  11.570 -0.3824 -0.0361  0.4097
16691TIP3    H171564   6.364   1.008  11.500 -1.3599  1.4341 -0.3567
16691TIP3    H271565   6.252   1.083  11.571 -1.5714 -0.6675  1.6427
16692TIP3   OH271566   5.582   2.909  11.608  0.3675  0.2172  0.3447
16692TIP3    H171567   5.500   2.885  11.651  0.6018 -1.6341 -0.1542
16692TIP3    H271568   5.579   2.865  11.524  0.7308  2.3026 -0.8360
16693TIP3   OH271569   5.387   5.796   0.054  0.4498 -0.5240  0.8727
16693TIP3    H171570   5.377   5.714   0.102  1.0550 -0.5545  0.9476
16693TIP3    H271571   5.423   5.857   0.117  0.3189 -0.2900  0.7235
16694TIP3   OH271572   5.691   5.519   4.708 -0.1634 -0.2359  0.1497
16694TIP3    H171573   5.711   5.537   4.616 -1.8094  1.1302  0.0088
16694TIP3    H271574   5.662   5.428   4.709 -0.4967 -0.1440 -0.7507
16695TIP3   OH271575   0.717   6.352   6.113 -0.1340  0.2597  0.6429
16695TIP3    H171576   0.693   6.298   6.037  2.0270 -1.0637  0.8008
16695TIP3    H271577   0.683   6.303   6.188  2.4218 -1.4649  0.8442
16696TIP3   OH271578   4.104   4.612   2.200  0.7782  0.1437  0.5704
16696TIP3    H171579   4.089   4.537   2.143 -1.6647 -0.4435  1.8775
16696TIP3    H271580   4.199   4.614   2.212  0.9476 -2.6200  0.3266
16697TIP3   OH271581   5.804   0.143  11.777  0.0366 -0.1533  0.4500
16697TIP3    H171582   5.769   0.223  11.736  2.1042  0.2879 -0.5904
16697TIP3    H271583   5.731   0.081  11.774 -1.2814  1.3415  0.2781
16698TIP3   OH271584   3.820   1.723  11.692  0.0238  0.2805 -0.8687
16698TIP3    H171585   3.746   1.691  11.641 -1.4413  0.8923  0.7707
16698TIP3    H271586   3.853   1.798  11.642 -0.1662 -0.2843 -1.8480
16699TIP3   OH271587   6.627   2.003  16.262  0.1635  0.6046  0.2777
16699TIP3    H171588   6.643   1.911  16.285  1.1821  0.8890  0.8033
16699TIP3    H271589   6.560   2.032  16.324 -0.0273  0.2664  0.2319
16700TIP3   OH271590   1.365   5.839  15.619  0.4405 -0.4409 -0.1449
16700TIP3    H171591   1.310   5.796  15.554  1.6426 -0.1888 -1.3518
16700TIP3    H271592   1.412   5.907  15.571 -0.0396  1.0236  1.3611
16701TIP3   OH271593   0.999   0.992   1.510  0.3823  0.2761 -0.3833
16701TIP3    H171594   0.990   0.907   1.467  0.5772  0.0846 -0.0449
16701TIP3    H271595   0.917   1.038   1.488  0.2874  0.0136 -0.5862
16702TIP3   OH271596   5.875   5.815   1.259  0.2444  0.0223 -0.3948
16702TIP3    H171597   5.928   5.749   1.305  1.0890  2.0917  1.7870
16702TIP3    H271598   5.798   5.826   1.316  1.6046  3.0903  1.0474
16703TIP3   OH271599   6.206   0.121   3.499  0.2171  0.3314 -0.2171
16703TIP3    H171600   6.201   0.216   3.511  1.4897  0.5350 -1.1646
16703TIP3    H271601   6.115   0.091   3.509 -0.1907  1.6254  0.1513
16704TIP3   OH271602   6.110   1.028  14.984  0.1285  0.0476  0.0009
16704TIP3    H171603   6.118   1.117  15.016 -3.2610  0.0647  1.2246
16704TIP3    H271604   6.151   0.974  15.052  0.7676  0.5397  0.0202
16705TIP3   OH271605   0.690   2.191   6.281 -0.3133  0.4240  0.0604
16705TIP3    H171606   0.639   2.271   6.268 -1.8128 -0.3193  1.0857
16705TIP3    H271607   0.672   2.138   6.203  0.1758  0.8075 -0.3208
16706TIP3   OH271608   2.176   0.314   1.223 -0.1246 -0.4321 -0.3091
16706TIP3    H171609   2.229   0.236   1.205 -1.3927 -1.6539  1.0071
16706TIP3    H271610   2.098   0.280   1.266 -0.8708  1.5566 -0.0196
16707TIP3   OH271611   6.731   2.974  16.970  0.7885  0.0464 -0.1096
16707TIP3    H171612   6.681   2.892  16.967 -2.1570  1.7062 -0.4589
16707TIP3    H271613   6.738   3.001  16.879  1.4978  0.3088  0.0207
16708TIP3   OH271614   4.351   6.434  13.425  0.1453 -0.5641 -0.1006
16708TIP3    H171615   4.305   6.449  13.342 -1.5332  0.6796  1.0032
16708TIP3    H271616   4.444   6.445  13.403 -0.2817 -0.0033 -1.7623
16709TIP3   OH271617   5.145   1.868  12.869  0.7030  0.0721 -0.2051
16709TIP3    H171618   5.113   1.815  12.942  0.0541  1.5047  0.5966
16709TIP3    H271619   5.163   1.954  12.907  1.2974  0.5728 -1.5420
16710TIP3   OH271620   5.949   3.242   4.316 -0.2501 -0.0471 -0.2887
16710TIP3    H171621   5.915   3.290   4.392  2.8269 -0.1740  1.2940
16710TIP3    H271622   6.021   3.189   4.350 -0.5045 -2.2698 -2.8457
16711TIP3   OH271623   1.237   6.559   2.331 -0.5412  0.3676 -0.4985
16711TIP3    H171624   1.178   6.564   2.256  0.5401  0.4297 -1.3732
16711TIP3    H271625   1.325   6.560   2.292  0.0317 -0.2464  0.7361
16712TIP3   OH271626   5.347   5.727   1.232  0.1759  0.0035  0.1138
16712TIP3    H171627   5.265   5.694   1.193  0.1688 -0.0181  0.1469
16712TIP3    H271628   5.319   5.789   1.299  0.1763 -0.3057  0.4032
16713TIP3   OH271629   2.285   0.985   3.634 -0.4155  0.1623  0.3182
16713TIP3    H171630   2.367   0.936   3.643 -0.1672 -0.1283 -2.4407
16713TIP3    H271631   2.312   1.072   3.607 -0.9804  0.5522  0.9980
16714TIP3   OH271632   3.610   5.578  15.860  0.5948  0.1183 -0.0243
16714TIP3    H171633   3.678   5.615  15.916  2.3500 -1.2601 -1.1398
16714TIP3    H271634   3.648   5.576  15.773 -1.3409  0.3734 -0.9342
16715TIP3   OH271635   2.846   0.782   4.257  0.3945 -0.0532  0.2700
16715TIP3    H171636   2.821   0.694   4.287  0.4007  0.0654  0.6274
16715TIP3    H271637   2.783   0.840   4.298  1.1994  0.2394  1.1222
16716TIP3   OH271638   0.264   3.124   1.114  0.0129  0.6233 -0.1390
16716TIP3    H171639   0.250   3.061   1.043 -0.1723  1.2461 -0.6643
16716TIP3    H271640   0.177   3.156   1.135  0.0670  0.4341  0.3839
16717TIP3   OH271641   0.997   1.926   0.138 -0.3651  0.0515  0.1680
16717TIP3    H171642   1.064   1.869   0.099  0.2657  2.1455 -2.0763
16717TIP3    H271643   0.914   1.880   0.122  0.2410 -1.0417  0.0464
16718TIP3   OH271644   2.755   5.372  13.029 -0.1040 -0.5876 -0.2977
16718TIP3    H171645   2.757   5.289  12.981 -1.4093 -1.1168  0.5062
16718TIP3    H271646   2.731   5.437  12.963 -1.7016 -1.2749 -0.4498
16719TIP3   OH271647   5.666   1.166  12.708 -0.1507  0.3016  0.2828
16719TIP3    H171648   5.664   1.164  12.804 -1.5488 -0.5332  0.2583
16719TIP3    H271649   5.650   1.257  12.685 -3.5860 -0.0563  0.8317
16720TIP3   OH271650   6.694   3.932   5.457 -0.4595  0.5798  0.0757
16720TIP3    H171651   6.789   3.921   5.446 -0.7048 -0.7524 -0.9492
16720TIP3    H271652   6.679   4.024   5.436  0.6312  0.8735  0.4936
16721TIP3   OH271653   4.022   3.721  13.041  1.0292  0.2636 -0.2923
16721TIP3    H171654   3.960   3.660  13.081  2.1015 -0.0669  0.9240
16721TIP3    H271655   4.097   3.666  13.017  2.4303  1.1870  1.7068
16722TIP3   OH271656   4.639   2.549  16.048  0.2323 -0.3311 -0.2647
16722TIP3    H171657   4.613   2.516  15.963 -1.8366 -0.9078  0.5391
16722TIP3    H271658   4.567   2.606  16.076  1.6745  1.3031  0.3509
16723TIP3   OH271659   2.213   4.282  12.692  0.2210 -0.5084 -0.1009
16723TIP3    H171660   2.158   4.360  12.691  2.0613  0.9054 -2.1753
16723TIP3    H271661   2.151   4.209  12.690 -1.6482  0.9789 -2.1721
16724TIP3   OH271662   4.891   1.719   5.375 -0.1619  0.1479 -0.3203
16724TIP3    H171663   4.971   1.768   5.359 -2.5422  4.6016 -0.3675
16724TIP3    H271664   4.859   1.695   5.288  0.3552 -0.3003 -0.3896
16725TIP3   OH271665   2.138   1.032   4.189 -0.2582  0.1739 -0.0932
16725TIP3    H171666   2.115   0.964   4.125  0.9988 -0.4269  0.0603
16725TIP3    H271667   2.232   1.021   4.202 -0.4847  0.3118  1.8322
16726TIP3   OH271668   3.953   4.552   1.316 -0.2863 -0.4209 -0.2030
16726TIP3    H171669   4.026   4.598   1.273  0.3487  1.3057  2.4946
16726TIP3    H271670   3.875   4.594   1.279  0.1215 -0.6502 -1.3889
16727TIP3   OH271671   2.840   2.458   0.515  0.3059 -0.2687  0.3622
16727TIP3    H171672   2.809   2.398   0.447  0.7025  1.3700 -1.3727
16727TIP3    H271673   2.760   2.489   0.558  0.0145 -1.0484  0.3915
16728TIP3   OH271674   0.136   3.480   2.044  0.4724 -0.4286 -0.3735
16728TIP3    H171675   0.077   3.467   1.970 -1.5555 -3.5958  1.5524
16728TIP3    H271676   0.091   3.544   2.100 -0.3134 -1.4449  0.2006
16729TIP3   OH271677   2.214   3.369  11.407 -0.2716 -0.6531 -0.3022
16729TIP3    H171678   2.278   3.346  11.340  1.3388  1.3028  0.4630
16729TIP3    H271679   2.171   3.447  11.374 -1.2082 -1.0824 -0.1261
16730TIP3   OH271680   6.441   0.054  13.460 -0.1225 -0.3985  0.2315
16730TIP3    H171681   6.476  -0.023  13.414 -0.4194 -1.2398  1.3548
16730TIP3    H271682   6.348   0.053  13.440  0.1367  0.6586 -1.1067
16731TIP3   OH271683   1.062   2.193   0.043 -0.3167 -0.4534  0.4100
16731TIP3    H171684   1.010   2.113   0.038  0.7418 -1.1352 -0.1135
16731TIP3    H271685   1.149   2.167   0.012 -0.3907  1.3030 -1.5457
16732TIP3   OH271686   0.901   0.750   1.794  0.1522  0.1189  0.2526
16732TIP3    H171687   0.955   0.702   1.731  2.6328 -0.4572  2.6136
16732TIP3    H271688   0.905   0.697   1.873 -1.5862  1.5609  1.3630
16733TIP3   OH271689   1.988   3.535  14.290  0.0737  0.4551 -0.3243
16733TIP3    H171690   2.076   3.531  14.329  1.0360 -0.3991 -2.4425
16733TIP3    H271691   1.963   3.627  14.298  0.9613  0.6271  0.7229
16734TIP3   OH271692   2.352   0.365   4.030  0.1676  0.9303 -0.3877
16734TIP3    H171693   2.441   0.370   4.066  0.1689  0.8681 -0.3816
16734TIP3    H271694   2.337   0.451   3.991 -0.6727  1.8151  1.7301
16735TIP3   OH271695   2.016   0.328   0.993 -0.5965  0.1027 -0.2887
16735TIP3    H171696   2.056   0.372   1.068  0.6594 -1.0166 -0.2591
16735TIP3    H271697   2.088   0.312   0.932 -0.9969 -1.7447 -0.3623
16736TIP3   OH271698   2.699   2.121   2.913 -0.4931  0.0005  0.3991
16736TIP3    H171699   2.616   2.156   2.880  0.1515  1.9373  0.6796
16736TIP3    H271700   2.757   2.123   2.837 -0.0424  0.9720  0.7524
16737TIP3   OH271701   1.868   3.094  14.931 -0.0366  0.2977 -0.3168
16737TIP3    H171702   1.838   3.018  14.981 -0.3298 -0.4845 -1.6384
16737TIP3    H271703   1.805   3.101  14.859 -1.3023  3.0902  0.9018
16738TIP3   OH271704   4.910   5.857  14.858  0.0274  0.3273 -0.3115
16738TIP3    H171705   4.938   5.767  14.876 -0.7000  0.1808  0.1096
16738TIP3    H271706   4.988   5.899  14.821  0.1737 -0.6765 -1.2112
16739TIP3   OH271707   0.783   1.610   2.663 -0.0288  0.4988 -0.4902
16739TIP3    H171708   0.766   1.516   2.670 -0.5831  0.6606  0.5159
16739TIP3    H271709   0.853   1.627   2.725 -0.1265  0.7969 -0.4593
16740TIP3   OH271710   2.347   6.298  13.947  0.0604 -0.1054 -0.1574
16740TIP3    H171711   2.280   6.266  14.007  0.1221  0.7062  0.3607
16740TIP3    H271712   2.403   6.354  14.001 -0.5194  1.5314 -1.1742
16741TIP3   OH271713   2.728   5.489  14.755 -0.0596 -0.2663 -0.3354
16741TIP3    H171714   2.702   5.402  14.724  0.3643 -0.4534 -0.1832
16741TIP3    H271715   2.816   5.476  14.792  0.5320  0.4542 -1.4251
16742TIP3   OH271716   6.795   0.715  14.753 -0.7519 -0.2739 -0.1661
16742TIP3    H171717   6.844   0.791  14.784 -0.8891 -0.2165 -0.0897
16742TIP3    H271718   6.729   0.700  14.821 -1.6737  0.4219 -0.8756
16743TIP3   OH271719   2.580   6.447   4.411 -0.2723  0.3132  0.5989
16743TIP3    H171720   2.614   6.492   4.334  2.2176  1.6063  2.3232
16743TIP3    H271721   2.616   6.496   4.486 -1.3496 -1.7490  2.5996
16744TIP3   OH271722   0.384   4.465  14.129 -0.2128 -0.1939  0.2691
16744TIP3    H171723   0.426   4.471  14.215  0.0492 -1.6626  0.2577
16744TIP3    H271724   0.305   4.415  14.144 -0.9301  0.7917 -0.1005
16745TIP3   OH271725   0.073   6.099  15.537  0.2217 -0.0147 -0.4598
16745TIP3    H171726   0.158   6.117  15.497  0.0286 -0.0074 -0.8668
16745TIP3    H271727   0.027   6.045  15.473  0.7394 -1.8879  0.6570
16746TIP3   OH271728   4.130   2.589   2.472 -0.1477 -0.1902 -0.2254
16746TIP3    H171729   4.195   2.632   2.527  1.0416 -3.0305  0.7518
16746TIP3    H271730   4.047   2.601   2.518  0.3168  0.2114  0.5088
16747TIP3   OH271731   5.806   4.716   2.257  0.5926  0.1549 -0.5450
16747TIP3    H171732   5.731   4.661   2.231  0.4001  0.4099 -0.5346
16747TIP3    H271733   5.878   4.655   2.266  0.1496 -0.2456  0.4463
16748TIP3   OH271734   2.334   3.106  15.390  0.4297  0.0974 -0.2257
16748TIP3    H171735   2.369   3.046  15.323 -0.3530 -1.4332  0.6801
16748TIP3    H271736   2.366   3.070  15.473  0.9443  1.6662  0.2787
16749TIP3   OH271737   0.201   3.851   2.819 -0.5442 -0.3669  0.1894
16749TIP3    H171738   0.270   3.917   2.829 -0.7171 -0.4550  2.2551
16749TIP3    H271739   0.172   3.832   2.908 -2.0875 -1.5775 -0.5234
16750TIP3   OH271740   0.758   3.740   0.181  0.2705  0.6781 -0.3606
16750TIP3    H171741   0.831   3.801   0.197  1.8818 -1.6661  2.2473
16750TIP3    H271742   0.727   3.717   0.269 -0.7448 -1.6669 -1.2520
16751TIP3   OH271743   6.818   3.856   4.515  0.2859  0.2649 -0.3458
16751TIP3    H171744   6.724   3.843   4.527  0.1450 -0.2740 -1.8622
16751TIP3    H271745   6.848   3.778   4.469  1.3052  0.8425 -0.7009
16752TIP3   OH271746   0.141   0.101   4.984 -0.6658  0.1187 -0.2880
16752TIP3    H171747   0.217   0.105   5.042 -0.8765 -0.1787  0.0130
16752TIP3    H271748   0.088   0.029   5.019  0.0162 -1.1789 -1.8300
16753TIP3   OH271749   6.259   6.188   4.601 -0.2606  0.2501  0.6923
16753TIP3    H171750   6.340   6.221   4.641 -0.3880 -0.3622  1.4890
16753TIP3    H271751   6.240   6.108   4.649 -0.7872 -0.1596 -0.1833
16754TIP3   OH271752   1.412   2.268   1.872 -0.0694  0.1833 -0.1627
16754TIP3    H171753   1.370   2.351   1.895  1.0434  0.4476  1.0462
16754TIP3    H271754   1.343   2.216   1.831 -0.7925  1.6848 -0.8967
16755TIP3   OH271755   1.689   4.861   5.223  0.2951 -0.4989  0.1499
16755TIP3    H171756   1.752   4.853   5.151 -1.4001 -0.6650 -1.3678
16755TIP3    H271757   1.634   4.935   5.199 -0.3092 -0.5496  1.3055
16756TIP3   OH271758   2.602   6.417  13.533 -0.1849 -0.3412 -0.0377
16756TIP3    H171759   2.540   6.482  13.566  0.8001  0.3214  0.5527
16756TIP3    H271760   2.593   6.343  13.593 -0.9203 -0.5383 -0.3863
16757TIP3   OH271761   4.525   6.233   0.689  0.5069  0.2082  0.1224
16757TIP3    H171762   4.530   6.311   0.744  2.1622 -0.5229  1.0789
16757TIP3    H271763   4.432   6.224   0.668  0.4684  4.1883 -2.6609
16758TIP3   OH271764   0.065   5.374  11.416  0.1159 -0.2599  0.3527
16758TIP3    H171765   0.046   5.286  11.384  0.7293 -0.4398  0.4630
16758TIP3    H271766   0.052   5.370  11.510  1.0628 -0.4971  0.4863
16759TIP3   OH271767   0.963   0.617   0.339  0.2070  0.1891  0.1666
16759TIP3    H171768   0.896   0.674   0.301  1.9276  1.2372 -1.4669
16759TIP3    H271769   0.967   0.542   0.280 -0.3039 -0.4367  0.9089
16760TIP3   OH271770   1.052   0.113   5.945 -0.4317  0.2237  0.2166
16760TIP3    H171771   1.138   0.154   5.951  0.2806 -1.0968 -0.7532
16760TIP3    H271772   1.004   0.150   6.020  0.5306  1.9346  0.0479
16761TIP3   OH271773   0.431   4.065   3.746  0.0868 -0.1264  0.3741
16761TIP3    H171774   0.431   4.131   3.816  1.2994 -0.0365  0.3051
16761TIP3    H271775   0.507   4.087   3.692 -2.3747  1.5887 -2.7275
16762TIP3   OH271776   2.390   0.482   1.266  0.2423  0.6036 -0.1677
16762TIP3    H171777   2.315   0.430   1.236  0.3177 -0.2797  1.1070
16762TIP3    H271778   2.354   0.569   1.282 -0.6083  0.1018  0.7638
16763TIP3   OH271779   6.503   0.033   3.673  0.1094  0.1324  0.4174
16763TIP3    H171780   6.445   0.043   3.597  1.6626 -1.1455 -1.0347
16763TIP3    H271781   6.588   0.063   3.641  1.0030 -1.3345  1.3395
16764TIP3   OH271782   0.768   2.615  15.487  0.2251 -0.4292  0.2747
16764TIP3    H171783   0.815   2.679  15.540  1.8442 -0.2209 -1.3244
16764TIP3    H271784   0.820   2.535  15.494 -0.1316 -0.7010 -0.1249
16765TIP3   OH271785   2.129   3.676   1.400 -0.5406 -0.0289 -0.1025
16765TIP3    H171786   2.217   3.665   1.438 -1.7977  1.2745  3.5317
16765TIP3    H271787   2.146   3.702   1.310  2.8054 -0.2212  0.3316
16766TIP3   OH271788   6.624   3.657  16.514 -0.4472 -0.2286  0.3543
16766TIP3    H171789   6.586   3.672  16.600 -1.0288 -3.7995  0.8756
16766TIP3    H271790   6.552   3.622  16.462  0.1488  0.9051 -1.3212
16767TIP3   OH271791   6.338   5.963  14.058  0.6638  0.0965 -0.0007
16767TIP3    H171792   6.391   6.010  14.123 -0.5097  0.8468  0.4557
16767TIP3    H271793   6.248   5.985  14.081  0.1446 -1.1716 -0.7318
16768TIP3   OH271794   5.321   3.194   1.136  0.5222 -0.6094  0.1752
16768TIP3    H171795   5.230   3.223   1.129  0.7525  0.3660  1.0127
16768TIP3    H271796   5.336   3.182   1.230  1.2827 -0.6728  0.0539
16769TIP3   OH271797   4.149   4.162  13.821 -0.0299  0.1904 -0.3649
16769TIP3    H171798   4.172   4.205  13.739  0.5636  0.0115 -0.2969
16769TIP3    H271799   4.158   4.230  13.887 -0.9716  0.4623 -0.5008
16770TIP3   OH271800   4.695   5.454  15.954 -0.1955  0.2981 -0.5494
16770TIP3    H171801   4.606   5.422  15.943 -0.8144  1.3747  1.0952
16770TIP3    H271802   4.695   5.540  15.912 -0.1871  0.6860  0.2382
16771TIP3   OH271803   2.916   5.741  16.584 -0.0741  0.3331  0.3584
16771TIP3    H171804   2.931   5.783  16.500 -2.1466 -1.8653 -1.2479
16771TIP3    H271805   2.985   5.675  16.591 -0.5667 -0.2734 -0.2558
16772TIP3   OH271806   1.353   3.845   4.055  0.0160  0.7611  0.5925
16772TIP3    H171807   1.400   3.804   4.127  1.7641  0.1111 -0.8289
16772TIP3    H271808   1.356   3.781   3.984 -0.9318  1.6872 -0.3314
16773TIP3   OH271809   6.435   2.982   1.571  0.0311 -0.0997  0.1548
16773TIP3    H171810   6.449   3.018   1.483 -1.5680  0.1453 -0.0170
16773TIP3    H271811   6.364   2.919   1.561  0.3766 -0.6685  1.1330
16774TIP3   OH271812   5.878   0.366   1.509  0.1771 -0.5386  0.2804
16774TIP3    H171813   5.879   0.389   1.602  0.0403 -0.7390  0.3305
16774TIP3    H271814   5.892   0.450   1.464  1.7827 -0.6420  0.5183
16775TIP3   OH271815   6.237   0.006  12.499  0.4044  0.5518  0.0278
16775TIP3    H171816   6.285  -0.061  12.547 -1.1026  0.5005  1.5398
16775TIP3    H271817   6.198  -0.040  12.424  1.8010  0.3909 -0.6303
16776TIP3   OH271818   6.658   2.280   1.115  0.7407  0.1002 -0.3041
16776TIP3    H171819   6.704   2.321   1.042 -0.4458 -1.3752 -1.9512
16776TIP3    H271820   6.682   2.187   1.110 -1.7081 -0.5771 -0.7396
16777TIP3   OH271821   0.288   2.101  13.352 -0.4275 -0.0035 -0.3441
16777TIP3    H171822   0.204   2.066  13.380 -0.2684 -0.6140 -0.6355
16777TIP3    H271823   0.325   2.139  13.432  0.0078 -1.7116  0.3115
16778TIP3   OH271824   6.654   1.925   4.603 -1.0461  0.1852  0.1449
16778TIP3    H171825   6.750   1.922   4.608 -0.9097 -0.7107 -1.8723
16778TIP3    H271826   6.625   1.879   4.682  0.2700 -1.6960 -0.3717
16779TIP3   OH271827   0.544   4.941   2.760  0.9570 -0.0715  0.0023
16779TIP3    H171828   0.604   4.900   2.697  0.3772 -1.8171  0.5271
16779TIP3    H271829   0.599   4.963   2.835  1.2047 -0.3538 -0.0939
16780TIP3   OH271830   3.873   5.054  13.037 -0.1117 -0.4409  1.0788
16780TIP3    H171831   3.933   5.116  13.077  1.8593 -0.5950 -1.4088
16780TIP3    H271832   3.808   5.109  12.993  0.2704 -0.1944  0.8217
16781TIP3   OH271833   5.471   6.252  10.926  0.1787 -0.0162  0.0935
16781TIP3    H171834   5.457   6.158  10.932  2.0656 -0.4759 -1.6209
16781TIP3    H271835   5.405   6.290  10.983 -1.4161 -2.3133 -0.1109
16782TIP3   OH271836   3.057   5.529   6.629 -0.4639  0.2232  0.1142
16782TIP3    H171837   3.050   5.621   6.653  0.2133  0.8569 -1.9428
16782TIP3    H271838   2.980   5.512   6.575 -1.0923 -0.7051  1.2644
16783TIP3   OH271839   6.535   4.202   4.329  0.5990 -0.8271 -0.3722
16783TIP3    H171840   6.459   4.238   4.374  0.7587 -0.1501 -0.6174
16783TIP3    H271841   6.518   4.108   4.323 -0.1691 -0.6979 -0.3376
16784TIP3   OH271842   2.548   0.365   5.928 -0.1398  0.8667 -0.0008
16784TIP3    H171843   2.591   0.418   5.861 -0.7240  1.2744 -0.0622
16784TIP3    H271844   2.611   0.361   5.999  0.4139  0.5864 -0.4983
16785TIP3   OH271845   2.445   1.263  13.835 -0.0583 -0.1204  0.1100
16785TIP3    H171846   2.354   1.260  13.805 -0.3014 -0.8202  0.8816
16785TIP3    H271847   2.497   1.264  13.754 -0.7212 -1.0814 -0.3451
16786TIP3   OH271848   3.675   2.768  12.023  0.1651 -0.4182  0.2174
16786TIP3    H171849   3.651   2.757  12.115 -2.3623 -2.2480 -0.5678
16786TIP3    H271850   3.594   2.795  11.980  0.6293 -2.0897 -1.8665
16787TIP3   OH271851   1.197   6.501   3.252 -0.0167  0.3269  0.0865
16787TIP3    H171852   1.174   6.592   3.233 -1.4305 -0.1036 -0.3974
16787TIP3    H271853   1.240   6.505   3.338  0.0291  1.4529  0.0287
16788TIP3   OH271854   2.558   3.276  14.149 -0.3820 -0.5837 -0.0838
16788TIP3    H171855   2.558   3.195  14.199 -0.8102 -0.9546 -0.6746
16788TIP3    H271856   2.493   3.332  14.192 -2.6663 -1.8377 -1.6754
16789TIP3   OH271857   4.159   4.540  17.012  0.6181 -0.7290  0.3019
16789TIP3    H171858   4.251   4.565  17.020 -0.1896  3.0899 -0.3356
16789TIP3    H271859   4.122   4.557  17.099  0.5175 -2.7022  0.6958
16790TIP3   OH271860   6.711   5.446  10.957  0.0426 -0.0080 -0.4084
16790TIP3    H171861   6.645   5.515  10.959 -0.0497 -0.1101  0.1808
16790TIP3    H271862   6.775   5.473  11.023  0.6703  0.1691 -1.0792
16791TIP3   OH271863   4.883   3.565   4.518 -0.2176  0.1322  0.6740
16791TIP3    H171864   4.867   3.479   4.557 -1.0936  0.5432  1.2253
16791TIP3    H271865   4.893   3.547   4.424 -0.3969 -0.5671  0.7837
16792TIP3   OH271866   3.996   1.477   3.135 -0.1884 -0.1807  0.4083
16792TIP3    H171867   4.045   1.402   3.099 -0.0464  0.1508 -0.1052
16792TIP3    H271868   3.966   1.447   3.220 -0.1920 -0.8521  0.1798
16793TIP3   OH271869   4.653   3.002   4.605  0.1337  0.3819 -0.0613
16793TIP3    H171870   4.618   2.936   4.666 -0.3643 -2.0415 -2.7584
16793TIP3    H271871   4.589   3.073   4.608 -0.8799 -0.5274  0.8455
16794TIP3   OH271872   3.348   2.899  14.019 -0.1549  0.3373  0.3857
16794TIP3    H171873   3.354   2.888  14.114 -1.3903 -2.5080  0.2382
16794TIP3    H271874   3.434   2.874  13.986 -0.6602 -1.9955  0.6338
16795TIP3   OH271875   4.638   5.280   6.338  0.1746  0.3489 -0.2565
16795TIP3    H171876   4.591   5.202   6.368  0.1195  0.3568 -0.3220
16795TIP3    H271877   4.599   5.352   6.388  0.7528  0.2375  0.3775
16796TIP3   OH271878   4.483   0.628  13.309 -0.0747 -0.0297 -0.0666
16796TIP3    H171879   4.551   0.667  13.253  0.6446 -3.0334 -1.5081
16796TIP3    H271880   4.409   0.688  13.301  1.2673  1.6025 -1.2113
16797TIP3   OH271881   3.541   0.281  16.703  0.2030 -0.7468 -0.5586
16797TIP3    H171882   3.608   0.221  16.673 -0.4595 -1.5056 -0.5504
16797TIP3    H271883   3.489   0.230  16.765 -0.4458 -0.2130 -0.6508
16798TIP3   OH271884   0.334   0.406   1.606  0.1764  0.8245 -0.0382
16798TIP3    H171885   0.345   0.367   1.692  0.9352 -1.9308 -1.2956
16798TIP3    H271886   0.352   0.499   1.620  0.6181  0.4162  2.6710
16799TIP3   OH271887   4.588   3.585  16.661  0.6174  0.4794 -0.3733
16799TIP3    H171888   4.574   3.676  16.637  1.8981  0.5406 -0.9358
16799TIP3    H271889   4.674   3.583  16.703  0.6713 -0.4882 -0.4939
16800TIP3   OH271890   6.806   4.028  17.026 -0.5201 -0.2236 -0.2230
16800TIP3    H171891   6.804   4.104  16.967 -0.6466 -0.5376 -0.6212
16800TIP3    H271892   6.899   4.006  17.032 -0.3558  0.6710  0.8110
16801TIP3   OH271893   6.320   6.452  13.421  0.5116 -0.3900 -0.1842
16801TIP3    H171894   6.372   6.528  13.394  0.0871  0.3568  0.9769
16801TIP3    H271895   6.380   6.400  13.475  0.4877 -0.3006 -0.0708
16802TIP3   OH271896   6.602   4.102  17.182 -0.4897 -0.4511 -0.8067
16802TIP3    H171897   6.662   4.074  17.113  0.3474  2.0419 -1.1745
16802TIP3    H271898   6.657   4.114  17.260 -1.0029 -0.8636 -0.3730
16803TIP3   OH271899   4.616   1.236  14.228  0.3147 -0.3222 -0.4163
16803TIP3    H171900   4.635   1.154  14.274 -0.2780 -0.3595 -0.2293
16803TIP3    H271901   4.545   1.276  14.277  1.7259  1.1726  0.5064
16804TIP3   OH271902   6.227   4.409  15.065  0.0206  1.0411  0.2846
16804TIP3    H171903   6.224   4.444  15.154 -1.6157 -1.7287  1.4585
16804TIP3    H271904   6.283   4.332  15.072  0.7449  1.3819 -1.3720
16805TIP3   OH271905   0.929   3.909   4.291  0.3429  0.3663 -0.2343
16805TIP3    H171906   0.954   3.826   4.251  0.0111  0.5246 -0.7785
16805TIP3    H271907   0.960   3.903   4.381 -1.7471 -1.3168  0.4612
16806TIP3   OH271908   2.026   5.187  14.939  0.5118 -0.0281 -0.6990
16806TIP3    H171909   2.048   5.214  15.028 -0.2613 -0.2630 -0.4325
16806TIP3    H271910   1.936   5.216  14.926  0.8788  0.7404 -1.7032
16807TIP3   OH271911   1.063   5.399  11.731 -0.1446  0.7127  0.1385
16807TIP3    H171912   1.088   5.473  11.786 -1.5585 -2.0938  5.1207
16807TIP3    H271913   1.144   5.349  11.721  0.1007  1.1870 -0.2907
16808TIP3   OH271914   1.990   0.623   2.487 -0.1987 -0.6880  0.1800
16808TIP3    H171915   1.923   0.593   2.549  1.4138 -2.6726  1.0474
16808TIP3    H271916   2.038   0.691   2.534 -0.8697 -0.0322 -0.0530
16809TIP3   OH271917   2.914   0.664  14.178  0.2403  0.3538  0.0672
16809TIP3    H171918   2.858   0.660  14.101  2.1494  2.3769 -1.5561
16809TIP3    H271919   2.965   0.583  14.175  0.7951  0.7324 -1.2396
16810TIP3   OH271920   1.095   1.357   2.437 -0.0631 -0.2224  0.0741
16810TIP3    H171921   1.133   1.414   2.503  1.7745 -0.9500 -0.2754
16810TIP3    H271922   1.154   1.365   2.361 -2.1060  0.6026 -1.5315
16811TIP3   OH271923   2.374   3.946  14.344 -0.2208 -0.7376  0.1074
16811TIP3    H171924   2.342   4.025  14.387  1.3096 -0.7640  1.3835
16811TIP3    H271925   2.317   3.935  14.268 -0.2994  1.7333 -0.2574
16812TIP3   OH271926   6.179   3.639   4.077 -0.6500  0.1843 -0.0863
16812TIP3    H171927   6.117   3.569   4.060 -1.2418  0.5332  0.5983
16812TIP3    H271928   6.161   3.666   4.167  0.8761 -0.0920  0.3348
16813TIP3   OH271929   4.958   1.829   5.925  0.0664 -0.3965  0.1337
16813TIP3    H171930   5.018   1.901   5.905  0.6162 -1.3377 -1.8151
16813TIP3    H271931   4.962   1.772   5.849  0.0175 -2.7960  1.8023
16814TIP3   OH271932   1.397   5.320  13.307  0.1158  0.3964 -0.0919
16814TIP3    H171933   1.358   5.373  13.238 -1.4323  1.3047  1.3970
16814TIP3    H271934   1.372   5.230  13.286 -1.6240  0.8097  0.0129
16815TIP3   OH271935   6.519   6.515   0.407  0.2441  0.0424  0.1434
16815TIP3    H171936   6.454   6.575   0.370  1.7469  1.8189  0.2180
16815TIP3    H271937   6.515   6.437   0.352 -0.0555  1.1965 -1.5350
16816TIP3   OH271938   2.899   1.256  11.253 -0.3794 -0.5243 -0.0917
16816TIP3    H171939   2.956   1.201  11.199 -0.0575 -1.6197  1.2907
16816TIP3    H271940   2.921   1.345  11.228  0.5556 -0.9824 -0.9661
16817TIP3   OH271941   2.883   4.735   1.405 -1.0149  0.1876  0.3298
16817TIP3    H171942   2.934   4.707   1.329 -0.1903  1.9317  0.1890
16817TIP3    H271943   2.818   4.796   1.369 -2.3458 -0.9455  0.7047
16818TIP3   OH271944   0.892   2.964   5.430  0.2490  0.1429 -0.0110
16818TIP3    H171945   0.930   2.956   5.517  0.5199 -0.9382 -0.2179
16818TIP3    H271946   0.842   3.046   5.433  0.8578  0.4979  0.9205
16819TIP3   OH271947   0.812   1.860  14.101 -0.5729  0.0336  0.1466
16819TIP3    H171948   0.892   1.807  14.105 -0.0244  0.8325  0.0219
16819TIP3    H271949   0.798   1.890  14.191  0.0208  0.9533 -0.0436
16820TIP3   OH271950   6.405   1.823  12.647  0.0116 -0.4176 -0.9216
16820TIP3    H171951   6.337   1.820  12.580 -0.5217 -1.2877 -0.3621
16820TIP3    H271952   6.439   1.734  12.652 -1.0519 -0.7871  1.0216
16821TIP3   OH271953   5.082   1.341   1.498 -0.2222  0.5333  0.4715
16821TIP3    H171954   5.127   1.262   1.528  0.0251  0.2621 -0.5835
16821TIP3    H271955   5.125   1.364   1.416 -0.1898  1.8706  0.8370
16822TIP3   OH271956   4.666   3.060  15.178  0.3960  0.0569  0.1394
16822TIP3    H171957   4.676   3.112  15.259 -0.1485  1.5384 -0.6933
16822TIP3    H271958   4.729   2.989  15.187  0.5897  0.3863  1.7248
16823TIP3   OH271959   1.121   3.208   3.831  0.3103 -0.3671  0.1350
16823TIP3    H171960   1.065   3.185   3.756  1.7969 -0.0409 -1.1269
16823TIP3    H271961   1.114   3.133   3.890 -1.3763 -0.3655 -0.0010
16824TIP3   OH271962   3.648   4.883   3.183  0.6096  0.3250 -0.0055
16824TIP3    H171963   3.599   4.801   3.195 -1.1781  1.0750 -1.5757
16824TIP3    H271964   3.662   4.888   3.088  2.6122  0.8214  0.2789
16825TIP3   OH271965   0.864   4.129   1.443  0.9634 -0.0043  0.1332
16825TIP3    H171966   0.893   4.099   1.529 -0.5412 -0.9617  0.3446
16825TIP3    H271967   0.834   4.050   1.399 -1.3839  0.8633 -0.0035
16826TIP3   OH271968   5.375   1.539  15.469 -0.0238  0.7489 -0.2397
16826TIP3    H171969   5.329   1.539  15.385 -0.7421  2.2262  0.1403
16826TIP3    H271970   5.400   1.447  15.482 -2.5690 -0.0622 -0.6129
16827TIP3   OH271971   6.075   6.025   3.078  0.4679  0.7137 -0.4202
16827TIP3    H171972   6.063   6.056   3.168 -0.6312 -0.5248 -0.1108
16827TIP3    H271973   6.139   5.955   3.086  0.5568  0.7709 -0.6402
16828TIP3   OH271974   6.657   3.432   0.651 -0.0943  0.3757  0.8885
16828TIP3    H171975   6.602   3.457   0.576 -1.6539 -1.6467  1.2824
16828TIP3    H271976   6.696   3.348   0.625  2.9585  1.7211  0.6135
16829TIP3   OH271977   3.610   1.978   2.628  0.6391 -0.4066  0.8198
16829TIP3    H171978   3.552   2.054   2.623 -1.2287 -1.6531  2.1747
16829TIP3    H271979   3.693   2.013   2.662  0.3979  1.2602 -0.1887
16830TIP3   OH271980   6.245   1.013  14.545 -0.2850  0.0503 -0.2808
16830TIP3    H171981   6.161   0.969  14.541  0.6376 -1.8440  0.1229
16830TIP3    H271982   6.305   0.956  14.497  0.8852  1.0721 -0.0987
16831TIP3   OH271983   4.240   1.930   3.052  0.2449 -0.1108  0.9100
16831TIP3    H171984   4.171   1.866   3.069  0.6300 -1.3906 -1.7770
16831TIP3    H271985   4.321   1.879   3.057  0.4458 -0.5920 -3.4685
16832TIP3   OH271986   3.520   3.611   6.069  0.2957  0.4932  0.5904
16832TIP3    H171987   3.552   3.690   6.111  0.3721  1.4339 -1.1357
16832TIP3    H271988   3.581   3.543   6.097  2.2768  1.7265 -0.4783
16833TIP3   OH271989   3.692   5.511   1.281  0.7198  0.3614  0.3526
16833TIP3    H171990   3.619   5.539   1.225  0.1500  0.3492  1.0738
16833TIP3    H271991   3.654   5.508   1.369  1.3990 -0.3771  0.6255
16834TIP3   OH271992   1.126   3.473  12.000 -0.6689  0.5634  0.2323
16834TIP3    H171993   1.082   3.511  11.924 -0.1692  2.8582  1.0017
16834TIP3    H271994   1.202   3.428  11.964 -0.7057  1.2034 -0.6753
16835TIP3   OH271995   5.248   1.512  15.228 -0.2878  0.5418  0.4385
16835TIP3    H171996   5.153   1.525  15.225 -0.5017 -0.8986  0.4639
16835TIP3    H271997   5.278   1.538  15.141 -0.8362  0.0574  0.0999
16836TIP3   OH271998   4.958   4.470   2.594  0.2804 -0.7565  0.0973
16836TIP3    H171999   4.979   4.530   2.665 -0.8606  0.6003 -0.6696
16836TIP3    H272000   5.018   4.396   2.607  0.0059 -0.6417  2.5402
16837TIP3   OH272001   6.612   5.550   6.538 -0.7207 -0.0686 -0.1447
16837TIP3    H172002   6.601   5.468   6.585 -0.8014 -0.1648 -0.3299
16837TIP3    H272003   6.658   5.607   6.600 -1.8762  0.2031  0.4972
16838TIP3   OH272004   5.528   2.299   0.869 -0.0849 -0.5350 -0.0411
16838TIP3    H172005   5.538   2.229   0.804  2.7604 -0.6379  0.3640
16838TIP3    H272006   5.484   2.257   0.943  0.0542 -1.4516 -0.4591
16839TIP3   OH272007   6.408   0.844  16.635 -0.3522 -0.3243 -0.3016
16839TIP3    H172008   6.446   0.914  16.582  0.0335 -1.6954 -1.9386
16839TIP3    H272009   6.442   0.763  16.596 -0.3004 -1.4242  1.8919
16840TIP3   OH272010   6.737   6.753  10.472  0.4552  0.7300 -0.3840
16840TIP3    H172011   6.759   6.676  10.526 -0.7955  0.1287 -0.6965
16840TIP3    H272012   6.756   6.828  10.528 -2.7978  0.1106  1.7853
16841TIP3   OH272013   2.579   5.399  12.554 -0.3050 -0.6393 -0.7766
16841TIP3    H172014   2.510   5.454  12.518 -0.0550 -1.2193 -2.1852
16841TIP3    H272015   2.635   5.378  12.480  0.9722 -0.8119  0.1956
16842TIP3   OH272016   5.762   0.995  10.734 -0.0730 -0.0382 -0.0688
16842TIP3    H172017   5.822   0.923  10.753  1.1676  0.8157 -0.6052
16842TIP3    H272018   5.752   0.992  10.639 -0.9055 -0.1767  0.0190
16843TIP3   OH272019   1.765   1.049   1.202 -0.3925  0.2465 -0.1052
16843TIP3    H172020   1.823   1.030   1.128  0.2856 -0.8387  0.6630
16843TIP3    H272021   1.677   1.041   1.167 -0.1196 -2.3511 -0.3629
16844TIP3   OH272022   2.007   5.904   3.405  0.5616  0.5623  0.0130
16844TIP3    H172023   2.102   5.902   3.416  0.7875 -1.1472 -1.7910
16844TIP3    H272024   1.976   5.821   3.441 -0.3335  1.2742  0.9632
16845TIP3   OH272025   6.444   4.001   0.800 -0.0044  0.4504  0.6693
16845TIP3    H172026   6.537   4.017   0.783 -0.2313  0.1730 -1.0099
16845TIP3    H272027   6.414   3.954   0.723 -1.8327  1.6702  0.5924
16846TIP3   OH272028   1.147   0.704  13.170 -0.0596  0.2553 -0.0144
16846TIP3    H172029   1.107   0.624  13.202  2.1820 -1.0877 -0.3374
16846TIP3    H272030   1.189   0.743  13.247 -0.9596  1.0360  0.0999
16847TIP3   OH272031   5.522   0.521   3.154  0.3228 -0.2605 -0.4223
16847TIP3    H172032   5.466   0.446   3.134  2.6115 -1.8611 -1.2590
16847TIP3    H272033   5.563   0.499   3.237  0.3696  0.4928 -0.2357
16848TIP3   OH272034   1.160   1.239  16.249 -0.5331 -1.0090  0.5412
16848TIP3    H172035   1.204   1.189  16.318  1.2691  0.3138  0.4104
16848TIP3    H272036   1.119   1.312  16.294  3.0881  1.5396  0.0773
16849TIP3   OH272037   0.671   0.344   4.764 -0.2276 -0.5275 -0.2334
16849TIP3    H172038   0.645   0.390   4.685  0.5609  0.4934  0.0679
16849TIP3    H272039   0.725   0.408   4.812  1.1682 -1.8615  0.0607
16850TIP3   OH272040   4.649   4.870  10.724  0.1266  0.7738  0.3359
16850TIP3    H172041   4.702   4.939  10.764  1.2593  0.4942 -0.6326
16850TIP3    H272042   4.601   4.915  10.654 -1.1042  1.0659  1.3370
16851TIP3   OH272043   2.234   5.386   1.658 -0.2544 -0.0360 -0.1287
16851TIP3    H172044   2.243   5.477   1.689 -1.5621 -0.6746  2.3645
16851TIP3    H272045   2.168   5.391   1.589  0.5801  1.0222 -0.9156
16852TIP3   OH272046   6.190   2.674  13.118  0.8380  0.9155 -1.0338
16852TIP3    H172047   6.267   2.668  13.062  0.8760  2.3893 -1.1742
16852TIP3    H272048   6.224   2.692  13.205  0.9484 -3.6556  0.1286
16853TIP3   OH272049   3.206   3.103  14.808  0.3719  0.0026 -0.0662
16853TIP3    H172050   3.164   3.173  14.858  1.2111  0.1603  0.4138
16853TIP3    H272051   3.299   3.116  14.820  0.7090  1.1644 -3.1529
16854TIP3   OH272052   3.226   3.510  17.281 -0.3640 -0.5341  0.3022
16854TIP3    H172053   3.168   3.514  17.205  0.4222 -1.6090 -0.3706
16854TIP3    H272054   3.293   3.575  17.262  0.8748 -2.0781 -0.8484
16855TIP3   OH272055   1.158   2.928   2.600  0.0635 -0.2000  0.0083
16855TIP3    H172056   1.187   2.869   2.670 -0.7531  1.1887  1.5850
16855TIP3    H272057   1.237   2.976   2.574  0.4241 -0.9131 -0.2449
16856TIP3   OH272058   5.184   6.280  13.507  0.2686  0.4708  0.1618
16856TIP3    H172059   5.235   6.262  13.586  1.1728 -0.5861 -0.6336
16856TIP3    H272060   5.249   6.289  13.438 -0.5853 -0.4504 -0.7983
16857TIP3   OH272061   3.280   4.404  15.093  0.3019 -0.0943  0.7435
16857TIP3    H172062   3.285   4.349  15.015  0.2699  1.3451 -0.3112
16857TIP3    H272063   3.195   4.383  15.133  0.5533 -1.2205  0.7021
16858TIP3   OH272064   4.325   5.476  13.475 -0.0302 -0.4590 -0.5754
16858TIP3    H172065   4.360   5.505  13.559 -1.1965  1.4576 -0.7060
16858TIP3    H272066   4.255   5.414  13.498  1.7140 -2.4320 -0.2691
16859TIP3   OH272067   5.464   3.562  11.847 -0.2247  0.3049 -0.1215
16859TIP3    H172068   5.537   3.531  11.794 -0.5051  0.0255 -0.3474
16859TIP3    H272069   5.388   3.513  11.815 -0.8444  1.7956 -1.0789
16860TIP3   OH272070   2.896   4.781   2.927  0.4524  0.5531  0.1248
16860TIP3    H172071   2.818   4.829   2.899  0.4621  1.3916  1.4627
16860TIP3    H272072   2.958   4.849   2.952  0.9355 -0.1317  0.8405
16861TIP3   OH272073   1.500   1.798  11.076  0.2989  0.2939 -0.2190
16861TIP3    H172074   1.533   1.714  11.110  0.6453  0.9351  1.0973
16861TIP3    H272075   1.467   1.777  10.988 -0.7222 -1.4666  0.5286
16862TIP3   OH272076   3.496   3.309  10.959  0.3464  0.1376 -0.4101
16862TIP3    H172077   3.561   3.239  10.953  0.7096  0.4164  0.1382
16862TIP3    H272078   3.547   3.390  10.955 -0.1618  0.4044 -2.1013
16863TIP3   OH272079   2.387   1.998  16.641  0.4411  0.6641 -0.1406
16863TIP3    H172080   2.306   1.969  16.599 -1.2080  2.0467  1.8674
16863TIP3    H272081   2.427   1.918  16.675 -0.3157  0.0036 -0.7620
16864TIP3   OH272082   4.582   3.188   2.118 -0.2170 -0.1920  0.3764
16864TIP3    H172083   4.533   3.252   2.170 -3.9942 -2.3233 -0.2592
16864TIP3    H272084   4.576   3.107   2.169  1.8494 -0.8333 -0.2904
16865TIP3   OH272085   6.222   4.006   1.924  0.1586  0.4298 -0.9101
16865TIP3    H172086   6.193   4.015   1.833  0.5331  0.2554 -1.0495
16865TIP3    H272087   6.311   3.970   1.917 -0.7109 -1.9618 -0.4420
16866TIP3   OH272088   4.109   1.687  10.602  0.5308  0.5128 -0.0571
16866TIP3    H172089   4.047   1.615  10.615 -0.2240  1.1753  0.0737
16866TIP3    H272090   4.170   1.681  10.676  1.2796 -0.7785 -0.7353
16867TIP3   OH272091   2.863   4.655   4.324 -0.1845  0.2989 -0.5559
16867TIP3    H172092   2.811   4.735   4.332 -0.7938 -0.0619 -0.8190
16867TIP3    H272093   2.828   4.596   4.390 -0.2342 -0.0123 -0.8535
16868TIP3   OH272094   1.011   2.462  15.525  0.4293  0.0108  0.0578
16868TIP3    H172095   1.024   2.454  15.620  1.6520  0.2577 -0.0704
16868TIP3    H272096   1.100   2.467  15.489 -0.0137  2.1208 -0.9060
16869TIP3   OH272097   2.590   5.665   4.460 -0.1300 -0.4050  0.6303
16869TIP3    H172098   2.617   5.584   4.417  0.5833  0.2920 -0.2818
16869TIP3    H272099   2.660   5.727   4.441 -0.4540  0.3132  1.6855
16870TIP3   OH272100   6.527   1.034   4.589  0.0425 -0.7150  1.0434
16870TIP3    H172101   6.554   1.086   4.513 -2.0660  0.6194  1.1265
16870TIP3    H272102   6.515   0.945   4.554 -0.7943 -0.1422 -0.1974
16871TIP3   OH272103   3.789   4.170   1.977 -0.1662 -0.0908  0.1518
16871TIP3    H172104   3.765   4.222   2.054 -1.2162  1.8929 -1.4100
16871TIP3    H272105   3.706   4.139   1.942  0.2333 -0.3043 -0.6279
16872TIP3   OH272106   1.079   0.116   2.158  0.1088  0.4090  0.3158
16872TIP3    H172107   0.998   0.081   2.195  1.7027 -1.5700  2.2271
16872TIP3    H272108   1.091   0.200   2.204 -0.9238  0.8141 -0.1299
16873TIP3   OH272109   1.304   6.163   0.453  0.2321 -0.2146  0.2200
16873TIP3    H172110   1.346   6.109   0.520  0.2595  1.6173  1.7740
16873TIP3    H272111   1.210   6.145   0.461  0.2922 -0.4789  0.3056
16874TIP3   OH272112   4.571   3.510  12.713 -0.0515  0.1721 -0.1619
16874TIP3    H172113   4.603   3.528  12.624  0.5815 -2.2404 -0.4728
16874TIP3    H272114   4.620   3.571  12.768  2.2285 -0.6867 -1.0971
16875TIP3   OH272115   0.618   3.893   2.029 -0.1916  0.5960  0.8502
16875TIP3    H172116   0.563   3.888   2.107 -0.4073 -1.2013  0.6090
16875TIP3    H272117   0.560   3.876   1.956 -0.1185  2.8789  0.1583
16876TIP3   OH272118   2.170   2.231   5.423 -0.0534 -0.1319 -0.0118
16876TIP3    H172119   2.096   2.278   5.463 -1.3010 -1.7062 -0.3654
16876TIP3    H272120   2.226   2.208   5.497 -0.3233  0.3578  0.3577
16877TIP3   OH272121   4.610   0.708   6.627 -0.0102 -0.1150  0.0694
16877TIP3    H172122   4.600   0.636   6.690  0.5510  0.5251  0.9201
16877TIP3    H272123   4.703   0.706   6.604 -0.0385  0.2006 -0.0750
16878TIP3   OH272124   0.441   1.377  13.475 -0.0238  0.3858 -0.2332
16878TIP3    H172125   0.485   1.378  13.390 -1.9142  0.1138 -1.2699
16878TIP3    H272126   0.384   1.454  13.473  0.2035  0.6073  0.9795
16879TIP3   OH272127   6.338   6.548  12.190 -0.0949  0.2702  0.0145
16879TIP3    H172128   6.305   6.569  12.103 -0.6522  1.3113  0.4578
16879TIP3    H272129   6.371   6.631  12.224 -2.3717  0.5181  1.8523
16880TIP3   OH272130   0.318   4.308   0.494  0.2459 -1.3476 -0.1256
16880TIP3    H172131   0.225   4.308   0.470 -0.0444  3.7483 -0.2864
16880TIP3    H272132   0.364   4.294   0.411 -0.4255 -1.6984 -0.4476
16881TIP3   OH272133   4.324   2.228   4.274 -1.1055  0.3820 -0.7897
16881TIP3    H172134   4.362   2.145   4.244  2.1229  1.2935  0.3555
16881TIP3    H272135   4.324   2.283   4.195 -0.3577  0.2201 -0.9189
16882TIP3   OH272136   5.686   5.393  15.649  0.0450 -0.1938  0.4442
16882TIP3    H172137   5.743   5.389  15.572 -0.2644  0.8498  0.1336
16882TIP3    H272138   5.745   5.380  15.724  0.1190 -2.7615  0.0088
16883TIP3   OH272139   0.789   5.678  13.206 -0.6206 -0.2644 -0.1876
16883TIP3    H172140   0.797   5.742  13.135 -6.0775 -0.0088 -0.9622
16883TIP3    H272141   0.757   5.599  13.164  0.1657 -1.5788  1.5545
16884TIP3   OH272142   3.149   6.437  15.442  0.8692  0.0802 -0.0553
16884TIP3    H172143   3.093   6.430  15.519 -1.1284  0.4431 -1.4036
16884TIP3    H272144   3.193   6.352  15.437 -0.9896 -0.9487  0.0127
16885TIP3   OH272145   2.232   3.275   2.334 -0.6296  0.0920  0.2380
16885TIP3    H172146   2.214   3.364   2.363 -0.6544  0.2386 -0.2115
16885TIP3    H272147   2.327   3.265   2.345 -0.4435  0.5779 -0.7742
16886TIP3   OH272148   5.389   2.960  16.462  0.5266  0.4536 -0.5489
16886TIP3    H172149   5.319   3.015  16.496  1.8246  0.5731  2.2051
16886TIP3    H272150   5.419   2.909  16.538  2.3333 -0.7821 -1.9962
16887TIP3   OH272151   5.393   4.584   6.030 -0.7327  0.0669 -0.6557
16887TIP3    H172152   5.445   4.512   5.997  0.1860  0.7330 -0.6931
16887TIP3    H272153   5.426   4.600   6.118 -1.2175  0.1726 -0.4875
16888TIP3   OH272154   2.172   1.401  10.899 -0.4400 -0.7082 -0.6079
16888TIP3    H172155   2.094   1.441  10.938 -1.3245 -3.8025  1.1605
16888TIP3    H272156   2.241   1.466  10.910 -2.0340  0.8637  0.7450
16889TIP3   OH272157   5.700   4.091   5.037  0.4196 -0.0462 -0.2399
16889TIP3    H172158   5.726   4.124   5.123 -0.4479  1.3146 -0.4642
16889TIP3    H272159   5.635   4.023   5.055  0.1112  0.3541  0.1950
16890TIP3   OH272160   0.068   6.672  16.689 -0.0365 -0.4727  0.0544
16890TIP3    H172161   0.038   6.726  16.616  0.4697 -1.2414 -0.7457
16890TIP3    H272162   0.029   6.586  16.673 -0.9792 -0.3293  1.4083
16891TIP3   OH272163   1.263   6.729  13.826  0.3390  0.0605 -0.1353
16891TIP3    H172164   1.320   6.782  13.771  2.9332 -1.7169  0.6492
16891TIP3    H272165   1.289   6.750  13.916 -0.4720 -0.5575  0.2606
16892TIP3   OH272166   0.917   5.823   3.940  0.3384  0.1841 -1.3040
16892TIP3    H172167   0.993   5.766   3.948  1.0647  1.2404 -0.2074
16892TIP3    H272168   0.851   5.784   3.998  1.7569  1.7968  1.6379
16893TIP3   OH272169   5.889   0.655   5.247 -0.1390 -0.0934 -0.5713
16893TIP3    H172170   5.935   0.642   5.330 -0.4620  1.7859 -0.0679
16893TIP3    H272171   5.858   0.567   5.223 -0.5423 -0.5764  1.5773
16894TIP3   OH272172   4.277   4.712  14.441  0.0573  0.3351  0.2179
16894TIP3    H172173   4.345   4.658  14.401 -2.0986 -0.5322 -2.6294
16894TIP3    H272174   4.234   4.654  14.504 -0.0445 -0.1611 -0.2992
16895TIP3   OH272175   4.707   2.931  14.740 -0.0614  0.0803 -0.2053
16895TIP3    H172176   4.674   2.929  14.830  1.2162 -2.1163  0.3033
16895TIP3    H272177   4.637   2.892  14.688 -0.9717  1.7263 -0.2899
16896TIP3   OH272178   1.501   0.148  11.949  0.2552 -0.5494 -0.7805
16896TIP3    H172179   1.533   0.082  11.888  0.7782  0.4347 -1.6132
16896TIP3    H272180   1.555   0.139  12.027 -0.9136 -2.3286 -0.1129
16897TIP3   OH272181   1.212   0.316  14.702 -0.0173 -0.4989 -0.3151
16897TIP3    H172182   1.303   0.290  14.715 -0.3494 -0.8806  1.5319
16897TIP3    H272183   1.181   0.340  14.789 -0.7639  2.8203 -1.3461
16898TIP3   OH272184   1.129   0.554  12.688 -0.1748  0.1586 -0.4368
16898TIP3    H172185   1.154   0.617  12.755  0.6397 -2.2126  1.6205
16898TIP3    H272186   1.159   0.594  12.606  1.9146  1.6577  0.9509
16899TIP3   OH272187   1.661   1.602   1.772  0.4146  0.1391 -0.0159
16899TIP3    H172188   1.742   1.551   1.778  0.6447  0.5353  0.3047
16899TIP3    H272189   1.689   1.693   1.771 -0.0019  0.2708 -0.4715
16900TIP3   OH272190   2.782   3.186   6.043  0.8131  0.0787  0.1385
16900TIP3    H172191   2.708   3.129   6.061  0.7945 -0.0255 -0.2498
16900TIP3    H272192   2.747   3.275   6.052  0.9692  0.0423  1.2523
16901TIP3   OH272193   6.077   2.445  14.385 -0.4180  0.3221 -0.1320
16901TIP3    H172194   6.021   2.443  14.307 -0.3074  1.5137 -0.2564
16901TIP3    H272195   6.057   2.529  14.427 -1.4628 -0.8570  1.8895
16902TIP3   OH272196   1.812   2.151  15.571 -0.0760 -0.0911  0.2299
16902TIP3    H172197   1.803   2.214  15.642 -0.5581 -0.3407  0.3918
16902TIP3    H272198   1.727   2.152  15.527  0.2965  0.2454 -0.4990
16903TIP3   OH272199   6.478   0.494  12.247  0.6069  0.1604  0.1898
16903TIP3    H172200   6.454   0.460  12.161  0.6878 -0.7457  0.5161
16903TIP3    H272201   6.411   0.560  12.266  0.0305 -0.3194 -0.1498
16904TIP3   OH272202   5.472   3.119  13.435  0.0476 -0.2848  0.0610
16904TIP3    H172203   5.396   3.085  13.482  1.1096 -2.2339  0.5074
16904TIP3    H272204   5.533   3.145  13.503  0.2474  0.1323 -0.2764
16905TIP3   OH272205   2.080   5.628   0.415 -0.5303  0.0051 -0.3473
16905TIP3    H172206   2.073   5.533   0.402  1.4157 -0.0907 -1.0429
16905TIP3    H272207   1.992   5.662   0.395 -0.9975 -1.5412 -1.0820
16906TIP3   OH272208   3.888   2.675  15.168  0.1980  0.2563 -0.1244
16906TIP3    H172209   3.850   2.627  15.241  3.0780  2.3222  3.0724
16906TIP3    H272210   3.968   2.626  15.146 -0.2804  0.0414 -1.4885
16907TIP3   OH272211   4.708   3.871   1.530  0.1017  0.3249  0.0270
16907TIP3    H172212   4.702   3.839   1.440 -0.1358 -1.2814  0.5790
16907TIP3    H272213   4.620   3.904   1.549 -0.7647 -2.0396  0.5724
16908TIP3   OH272214   4.715   0.604  15.274 -0.4527  0.2462 -0.4030
16908TIP3    H172215   4.706   0.538  15.343 -0.0807 -0.5413 -1.0851
16908TIP3    H272216   4.690   0.686  15.316  0.0091 -0.1723  0.7430
16909TIP3   OH272217   2.400   5.554  14.311 -0.3411 -0.1824  0.1646
16909TIP3    H172218   2.456   5.621  14.272 -1.4412  0.7406  0.1021
16909TIP3    H272219   2.408   5.568  14.405  1.7974 -1.9819  0.3215
16910TIP3   OH272220   1.036   5.566  14.069  0.2481  0.1989  0.3707
16910TIP3    H172221   1.102   5.507  14.033  1.4343  0.7037  1.6495
16910TIP3    H272222   1.001   5.612  13.993  2.0811  0.6282 -0.2613
16911TIP3   OH272223   5.953   0.112   1.377 -0.4149  0.1712 -0.2214
16911TIP3    H172224   5.919   0.173   1.442 -0.1020 -2.3404  2.4796
16911TIP3    H272225   5.876   0.087   1.325 -0.8139  1.6179 -0.3787
16912TIP3   OH272226   6.561   5.716   0.442  0.5084  0.0510  0.3569
16912TIP3    H172227   6.630   5.694   0.379 -0.9640 -1.0685 -0.9638
16912TIP3    H272228   6.549   5.811   0.432 -0.6900 -0.2657 -2.2694
16913TIP3   OH272229   1.612   0.013  10.389 -0.2018 -0.7896 -0.2305
16913TIP3    H172230   1.705   0.031  10.381 -0.3144  0.3058  0.6012
16913TIP3    H272231   1.570   0.076  10.330 -0.5104  0.5740  1.3456
16914TIP3   OH272232   0.892   0.100  16.317  0.6846 -0.3018 -0.1797
16914TIP3    H172233   0.977   0.119  16.279  1.4441  1.5692  2.2348
16914TIP3    H272234   0.882   0.163  16.388 -0.3061 -3.8876  3.1865
16915TIP3   OH272235   2.453   0.944  15.882 -0.6075 -0.4947  0.1707
16915TIP3    H172236   2.519   0.980  15.823 -2.1933  0.0659 -1.3427
16915TIP3    H272237   2.420   0.866  15.837 -2.0691  0.1180  0.1311
16916TIP3   OH272238   2.813   4.306   1.526 -0.0810  0.0722  0.0474
16916TIP3    H172239   2.755   4.380   1.507 -0.3700  0.0078  0.6446
16916TIP3    H272240   2.770   4.231   1.484 -0.4256  0.0273  0.4755
16917TIP3   OH272241   1.605   5.282  12.530  0.0191 -0.4477 -0.0130
16917TIP3    H172242   1.657   5.246  12.602  0.0100 -0.6777 -0.1236
16917TIP3    H272243   1.527   5.319  12.573  0.6104  0.5528  0.2408
16918TIP3   OH272244   1.279   1.362  13.643  0.4642  0.0725  0.3003
16918TIP3    H172245   1.233   1.323  13.718 -0.6815  1.9236  0.6433
16918TIP3    H272246   1.365   1.385  13.677 -0.1604  1.2136  1.2160
16919TIP3   OH272247   5.032   0.560  13.425 -0.1815  0.5252  0.2464
16919TIP3    H172248   5.059   0.613  13.349  0.0010  1.3811  0.8973
16919TIP3    H272249   5.057   0.613  13.501  0.7997 -0.8772  0.9396
16920TIP3   OH272250   5.683   1.687   4.669  0.6346 -0.1631 -0.3200
16920TIP3    H172251   5.742   1.636   4.615 -0.1773 -1.5702  0.0691
16920TIP3    H272252   5.711   1.670   4.759  0.1995 -0.1353 -0.1738
16921TIP3   OH272253   6.214   5.523  11.177  0.0048  0.2393 -0.3657
16921TIP3    H172254   6.186   5.463  11.108 -0.3736  1.1449 -1.0268
16921TIP3    H272255   6.246   5.600  11.130 -2.1848  1.7529  0.4152
16922TIP3   OH272256   0.849   4.147  16.633  0.5977  0.4383  0.8691
16922TIP3    H172257   0.777   4.192  16.590  1.3712 -0.2257 -1.2427
16922TIP3    H272258   0.894   4.215  16.682  0.0163  1.3663  0.1512
16923TIP3   OH272259   1.083   1.938  13.100 -0.0664 -0.0369  0.2847
16923TIP3    H172260   1.046   1.858  13.062 -0.3198 -0.3398  1.1457
16923TIP3    H272261   1.069   2.005  13.033  0.3389 -0.7567 -0.5282
16924TIP3   OH272262   6.527   3.176  17.121 -0.0016  0.1102 -0.4008
16924TIP3    H172263   6.499   3.234  17.050  0.3789 -0.8327 -1.3465
16924TIP3    H272264   6.605   3.132  17.087  1.2443  0.9066  1.2767
16925TIP3   OH272265   3.566   0.558  13.178 -0.2102  0.1144  0.2365
16925TIP3    H172266   3.639   0.557  13.241 -0.4429  1.1723  0.5434
16925TIP3    H272267   3.559   0.467  13.149  2.4777  0.2470 -1.2319
16926TIP3   OH272268   3.485   3.427  12.815  0.0389 -0.3734 -0.0165
16926TIP3    H172269   3.541   3.455  12.887 -0.0897  0.9569 -0.4066
16926TIP3    H272270   3.467   3.507  12.765  0.6480 -1.3373 -1.9009
16927TIP3   OH272271   6.015   1.062   4.789 -0.6907 -0.2654 -0.5391
16927TIP3    H172272   5.960   1.132   4.824 -1.2165 -0.0676 -1.7188
16927TIP3    H272273   6.003   0.989   4.850  1.6723  1.3263  2.0665
16928TIP3   OH272274   4.498   0.373  14.479  0.1538  0.1928  0.1169
16928TIP3    H172275   4.497   0.449  14.421  1.4323  0.4196  0.3579
16928TIP3    H272276   4.480   0.299  14.422 -0.4428  0.5988 -0.2378
16929TIP3   OH272277   2.712   3.293   4.700 -0.0247 -0.1285 -0.7080
16929TIP3    H172278   2.803   3.311   4.677  0.6047 -1.2827  0.7489
16929TIP3    H272279   2.716   3.251   4.785 -1.9070 -0.6211 -0.8129
16930TIP3   OH272280   2.093   4.808  16.826 -0.5971  0.4801 -0.5185
16930TIP3    H172281   2.140   4.725  16.828 -1.1004  0.0822 -2.6866
16930TIP3    H272282   2.011   4.789  16.873 -0.1712  0.1409  0.1112
16931TIP3   OH272283   1.098   4.157  14.995  0.2720 -0.0551  0.2176
16931TIP3    H172284   1.021   4.102  15.012 -0.5895  0.8958 -0.5108
16931TIP3    H272285   1.098   4.221  15.066  0.8053 -0.4784  0.6071
16932TIP3   OH272286   1.693   6.512  14.531  0.1469 -0.0962 -0.0575
16932TIP3    H172287   1.759   6.574  14.562 -1.2400  1.1411  0.5346
16932TIP3    H272288   1.613   6.539  14.574 -0.9048 -1.1510 -1.2674
16933TIP3   OH272289   4.908   6.388  11.751  0.0045 -0.4372 -0.2686
16933TIP3    H172290   4.909   6.338  11.832  1.5910 -1.4423 -0.8394
16933TIP3    H272291   4.951   6.471  11.773 -1.7080  0.3026  0.4395
16934TIP3   OH272292   6.273   0.062  15.964 -0.0262 -0.4121 -0.9261
16934TIP3    H172293   6.365   0.058  15.935 -0.0024 -2.0788 -0.7087
16934TIP3    H272294   6.277   0.109  16.047  0.6230 -0.3766 -0.9683
16935TIP3   OH272295   3.072   2.441   1.101 -0.0718 -0.5080  0.1143
16935TIP3    H172296   3.114   2.363   1.138  0.0322 -1.0323 -1.0901
16935TIP3    H272297   3.145   2.500   1.083  0.0860 -1.0801 -1.1785
16936TIP3   OH272298   4.098   5.505  15.179 -0.3485 -0.3557  0.1471
16936TIP3    H172299   4.046   5.577  15.145 -1.3365 -1.3035 -0.4100
16936TIP3    H272300   4.171   5.497  15.116  0.4460  0.8895  0.8645
16937TIP3   OH272301   4.264   3.412   3.120  0.2880  0.9527 -0.1818
16937TIP3    H172302   4.184   3.466   3.125 -0.3484  0.0134 -0.0438
16937TIP3    H272303   4.334   3.475   3.102 -0.5058  1.7747 -0.4746
16938TIP3   OH272304   1.081   0.423  15.902  1.1665 -0.5071  0.8479
16938TIP3    H172305   1.168   0.457  15.925  0.4819  0.9388  1.3691
16938TIP3    H272306   1.030   0.500  15.880 -0.0931 -1.3227  0.8318
16939TIP3   OH272307   3.291   4.293  12.309  0.2421  0.1543  0.5943
16939TIP3    H172308   3.224   4.345  12.354 -0.6047 -0.5823  0.2087
16939TIP3    H272309   3.277   4.309  12.216  1.1468  0.6358  0.5217
16940TIP3   OH272310   0.528   3.050   1.215  0.2686  0.0287  0.2799
16940TIP3    H172311   0.432   3.045   1.213  0.2633  0.0618 -1.1380
16940TIP3    H272312   0.546   3.144   1.205  0.4469 -0.0111  0.2382
16941TIP3   OH272313   3.358   4.567   3.539  0.1788  0.1445  0.2685
16941TIP3    H172314   3.410   4.642   3.567 -0.0805  0.2906  0.3653
16941TIP3    H272315   3.364   4.505   3.610  2.2923 -0.9146 -0.7621
16942TIP3   OH272316   3.573   2.828  15.420 -0.5315  0.1120 -0.4585
16942TIP3    H172317   3.600   2.871  15.340  1.7809  2.6034  1.4933
16942TIP3    H272318   3.520   2.893  15.466  0.0427 -0.4250  1.0209
16943TIP3   OH272319   1.494   5.364   0.876  0.2260 -0.0385  0.2287
16943TIP3    H172320   1.404   5.392   0.896 -0.4101  0.1109 -2.4139
16943TIP3    H272321   1.487   5.270   0.859  0.7429 -0.1856  0.7984
16944TIP3   OH272322   4.736   2.345  16.183  0.0843 -0.2514  0.1852
16944TIP3    H172323   4.654   2.334  16.231  0.2181  2.3592  1.1836
16944TIP3    H272324   4.723   2.425  16.132  2.2719  0.7314  1.0490
16945TIP3   OH272325   6.490   1.401   0.220  0.1748 -0.1792  0.4114
16945TIP3    H172326   6.441   1.382   0.139 -0.1889 -0.1304  0.6178
16945TIP3    H272327   6.462   1.333   0.281  1.5370 -1.1070  0.0581
16946TIP3   OH272328   5.039   1.521  16.694  0.1499 -0.0249 -0.2734
16946TIP3    H172329   5.051   1.551  16.604  0.5562 -1.3293 -0.6699
16946TIP3    H272330   4.943   1.518  16.705  0.0493 -1.4216 -1.2355
16947TIP3   OH272331   0.811   4.765   2.781  0.4997 -0.0695  0.4472
16947TIP3    H172332   0.828   4.701   2.850  0.9775  1.2624  1.6255
16947TIP3    H272333   0.875   4.744   2.713  2.8790  1.0461  2.1710
16948TIP3   OH272334   0.753   2.949  14.376 -0.3435 -0.1632  0.5465
16948TIP3    H172335   0.800   2.880  14.328 -0.5370  0.0082  0.1015
16948TIP3    H272336   0.821   3.007  14.407 -0.0016 -1.5166  2.5267
16949TIP3   OH272337   1.885   4.753  14.826 -0.3217  0.0640 -0.2568
16949TIP3    H172338   1.965   4.787  14.867 -0.1996 -1.2570  0.6854
16949TIP3    H272339   1.833   4.831  14.807  1.0905  0.9385 -0.6973
16950TIP3   OH272340   1.718   5.612   3.122  0.0221 -0.2639  0.0220
16950TIP3    H172341   1.705   5.616   3.217  0.0257  3.3846 -0.0127
16950TIP3    H272342   1.642   5.657   3.086  1.3877  0.9039 -1.5242
16951TIP3   OH272343   3.225   1.118  11.438  0.0983  0.1763  0.1614
16951TIP3    H172344   3.175   1.122  11.519 -0.5463  1.3284 -0.2831
16951TIP3    H272345   3.161   1.092  11.372 -0.2791  2.9243 -0.6539
16952TIP3   OH272346   3.099   4.923  10.927  0.2993 -0.1545  0.7979
16952TIP3    H172347   3.066   4.835  10.945  0.3819 -0.7400 -1.5651
16952TIP3    H272348   3.164   4.939  10.994 -1.3852 -0.9036  2.7105
16953TIP3   OH272349   2.361   2.958  12.566  0.3729  0.0749  0.3524
16953TIP3    H172350   2.433   2.931  12.623 -1.9254 -0.0786  3.4397
16953TIP3    H272351   2.307   2.879  12.558  0.1359  0.3748 -1.3158
16954TIP3   OH272352   3.648   4.967  14.433  0.8153 -0.7670  0.9616
16954TIP3    H172353   3.733   5.009  14.443  1.1183 -0.7739 -1.1887
16954TIP3    H272354   3.661   4.900  14.366 -1.2382  0.4045 -0.7423
16955TIP3   OH272355   5.356   2.959   2.709 -0.2092 -0.5966 -0.0803
16955TIP3    H172356   5.353   3.011   2.789 -0.1357 -0.0980 -0.4035
16955TIP3    H272357   5.447   2.927   2.704 -0.4245 -1.3361  0.4794
16956TIP3   OH272358   1.071   6.276  13.674  0.3282  0.3384 -0.2149
16956TIP3    H172359   1.153   6.262  13.626  0.1085 -2.4142  0.0488
16956TIP3    H272360   1.008   6.304  13.606  0.5407 -1.4717 -1.2277
16957TIP3   OH272361   4.571   5.413   3.520  0.0865  0.4194 -0.5405
16957TIP3    H172362   4.657   5.401   3.561  1.1643  2.6492 -1.9735
16957TIP3    H272363   4.587   5.397   3.427 -0.9462  1.2302 -0.8677
16958TIP3   OH272364   2.626   5.921  15.247 -0.2003  0.0551 -0.0109
16958TIP3    H172365   2.539   5.937  15.212 -0.2327  0.0669  0.0736
16958TIP3    H272366   2.674   5.880  15.175 -0.4000 -0.3381  0.0736
16959TIP3   OH272367   5.379   0.429   5.960  0.3825  0.1334  0.4937
16959TIP3    H172368   5.401   0.348   6.006 -1.1099  0.2957  1.5530
16959TIP3    H272369   5.344   0.400   5.876  0.0645 -0.3172  0.7768
16960TIP3   OH272370   6.042   5.964   5.738 -0.2890  0.1609 -0.4702
16960TIP3    H172371   6.125   6.009   5.728 -0.8960  1.0555 -1.7875
16960TIP3    H272372   6.065   5.879   5.777  1.4067 -0.2118 -2.1460
16961TIP3   OH272373   0.564   5.185  11.608 -0.2116 -0.2209 -0.0686
16961TIP3    H172374   0.549   5.135  11.688 -1.0901  0.5873  0.2974
16961TIP3    H272375   0.546   5.124  11.537 -2.2248 -0.2009  0.3614
16962TIP3   OH272376   5.223   3.581   6.666  0.1152 -0.1042 -0.0558
16962TIP3    H172377   5.259   3.546   6.584 -0.6768 -0.3138 -0.3270
16962TIP3    H272378   5.146   3.526   6.683  0.0978  0.1354  0.6665
16963TIP3   OH272379   2.823   4.541   0.859 -0.1718  0.2549 -0.2907
16963TIP3    H172380   2.877   4.519   0.936  0.7924  0.9236 -0.7486
16963TIP3    H272381   2.765   4.611   0.890 -0.5592 -0.2415  0.1195
16964TIP3   OH272382   3.243   3.414  15.787  0.7403  0.0535  0.3897
16964TIP3    H172383   3.228   3.408  15.693 -0.1739 -2.3875  0.6220
16964TIP3    H272384   3.169   3.369  15.826 -0.0001  2.7724  2.4361
16965TIP3   OH272385   2.254   0.998  17.283 -0.1411  0.6753 -0.1505
16965TIP3    H172386   2.178   0.978  17.229  1.6414 -0.4797 -2.4290
16965TIP3    H272387   2.303   1.063  17.233  1.1501  0.2252  0.4764
16966TIP3   OH272388   3.529   6.299  14.640  0.0937 -0.4531  0.2303
16966TIP3    H172389   3.546   6.392  14.627 -1.7655  0.0617  1.1854
16966TIP3    H272390   3.613   6.264  14.671  0.5017  1.1306  1.0147
16967TIP3   OH272391   5.435   5.322  14.682  0.7713  0.1131  0.3467
16967TIP3    H172392   5.406   5.409  14.709  0.4671 -0.1972  1.0619
16967TIP3    H272393   5.355   5.270  14.680  0.8046  0.0790 -1.0400
16968TIP3   OH272394   0.445   3.491   1.600  0.4665 -0.3534 -0.1745
16968TIP3    H172395   0.442   3.423   1.532  0.5375  1.3234 -1.9458
16968TIP3    H272396   0.355   3.522   1.607  0.4633 -0.4957  0.5101
16969TIP3   OH272397   2.759   0.722   2.655 -0.0934  0.1346  0.3426
16969TIP3    H172398   2.844   0.703   2.695 -0.5877 -0.8798  0.9363
16969TIP3    H272399   2.696   0.672   2.707 -0.9289 -0.0235 -0.7872
16970TIP3   OH272400   4.185   2.350  14.064 -0.5468  0.5310  0.1123
16970TIP3    H172401   4.247   2.292  14.108 -2.5212 -0.5573  1.6403
16970TIP3    H272402   4.160   2.414  14.131 -0.6333  1.3412 -0.6717
16971TIP3   OH272403   5.325   2.000  12.445  0.0544  1.1072  0.1618
16971TIP3    H172404   5.357   2.008  12.355 -2.2274  0.9399 -0.7252
16971TIP3    H272405   5.247   2.055  12.448  0.0375  1.0563  2.0459
16972TIP3   OH272406   3.367   0.424  14.799  0.4412 -0.2941  0.1192
16972TIP3    H172407   3.396   0.513  14.821  2.9425 -1.1841  0.7561
16972TIP3    H272408   3.308   0.400  14.870 -0.6126  0.9757 -0.2862
16973TIP3   OH272409   0.641   4.373  16.035  0.3959 -0.0790 -0.0319
16973TIP3    H172410   0.725   4.420  16.033  0.1308  0.4065  0.1332
16973TIP3    H272411   0.665   4.281  16.020  0.9422  0.0743 -0.1255
16974TIP3   OH272412   4.504   5.019   0.641  0.2172 -0.3583  0.2124
16974TIP3    H172413   4.470   5.093   0.590  1.0100 -1.5755 -2.2271
16974TIP3    H272414   4.487   5.043   0.732 -1.8849  1.6611 -0.6057
16975TIP3   OH272415   6.521   5.050  14.866  0.3667  0.0964  0.0500
16975TIP3    H172416   6.580   5.070  14.793  1.0489 -0.1079  0.5321
16975TIP3    H272417   6.547   4.962  14.894 -1.7895 -1.0579 -1.2719
16976TIP3   OH272418   2.564   2.868   3.681 -0.8694 -0.2480  0.3054
16976TIP3    H172419   2.513   2.890   3.758 -0.6900 -0.2358  0.4214
16976TIP3    H272420   2.601   2.951   3.651 -2.9306  0.2028 -1.2595
16977TIP3   OH272421   4.069   1.238  15.457 -0.4701 -0.2320  0.1591
16977TIP3    H172422   4.024   1.241  15.541 -0.0049  1.1278  0.3852
16977TIP3    H272423   4.154   1.279  15.473 -0.6379  0.6795 -1.1104
16978TIP3   OH272424   0.748   4.509  13.710 -0.1119  0.2244  0.4244
16978TIP3    H172425   0.799   4.590  13.707 -1.3220  1.0422  1.0730
16978TIP3    H272426   0.715   4.498  13.621  2.1596 -1.0182 -0.3622
16979TIP3   OH272427   2.396   1.737  12.456 -0.6153  0.0786  0.2602
16979TIP3    H172428   2.340   1.778  12.522  0.0234 -1.3993  1.7842
16979TIP3    H272429   2.485   1.756  12.484 -0.2979  1.1546 -1.3389
16980TIP3   OH272430   4.897   3.610  11.523  0.9821  0.4386 -0.2055
16980TIP3    H172431   4.810   3.613  11.561  0.8191  0.5268 -0.5747
16980TIP3    H272432   4.951   3.662  11.582  0.4341  1.7598 -0.8227
16981TIP3   OH272433   2.392   1.467  11.692 -0.3698  0.4764  0.0193
16981TIP3    H172434   2.380   1.375  11.715  2.2937 -0.2772 -1.2312
16981TIP3    H272435   2.319   1.486  11.633 -0.4455 -1.1207 -0.4583
16982TIP3   OH272436   1.114   3.261  16.132  0.2801 -0.2381 -0.0078
16982TIP3    H172437   1.046   3.194  16.141  0.1261 -0.1192 -0.3031
16982TIP3    H272438   1.100   3.300  16.046  1.2256 -0.7672 -0.4205
16983TIP3   OH272439   0.113   3.641   4.346 -0.2722  0.0925 -0.2953
16983TIP3    H172440   0.170   3.578   4.303 -2.7999 -0.3459 -3.3488
16983TIP3    H272441   0.029   3.596   4.355 -1.2585  1.9557  0.4497
16984TIP3   OH272442   0.950   2.941  10.579  0.5324 -0.6056 -0.3910
16984TIP3    H172443   1.012   3.001  10.536  1.7919  0.2276  2.3986
16984TIP3    H272444   0.950   2.863  10.523  0.6426  1.0550 -2.8624
16985TIP3   OH272445   6.210   2.246   1.053  0.1769  0.2469  0.1037
16985TIP3    H172446   6.223   2.287   1.139 -2.8948  1.6306  0.0523
16985TIP3    H272447   6.157   2.168   1.072 -1.3411  1.0768 -0.5399
16986TIP3   OH272448   2.944   1.802   0.649  0.0839  0.5228  0.3306
16986TIP3    H172449   2.852   1.776   0.658 -0.0198  1.0410  0.7575
16986TIP3    H272450   2.991   1.718   0.643 -0.4020  0.2532  0.1958
16987TIP3   OH272451   5.487   3.823  14.168 -0.3226  0.4122  0.1316
16987TIP3    H172452   5.530   3.893  14.120  0.7983  0.5309  1.2664
16987TIP3    H272453   5.496   3.847  14.260  0.5342 -1.4416  0.5810
16988TIP3   OH272454   2.629   1.804   2.241  0.4995  0.0524  0.3834
16988TIP3    H172455   2.690   1.806   2.315 -0.4258  0.3041  1.1570
16988TIP3    H272456   2.562   1.740   2.267  0.4576 -0.2576 -0.4728
16989TIP3   OH272457   0.650   3.929  12.144  0.3657  0.2201 -0.5529
16989TIP3    H172458   0.578   3.951  12.204  1.2063 -0.0363  0.5882
16989TIP3    H272459   0.615   3.859  12.090  0.3436 -1.2333  1.2564
16990TIP3   OH272460   5.538   0.503  14.668 -0.2265 -0.1457 -0.1618
16990TIP3    H172461   5.531   0.518  14.573 -1.3999  2.2601  0.2385
16990TIP3    H272462   5.614   0.445  14.677  1.8195  1.9508 -2.3676
16991TIP3   OH272463   3.998   0.015  14.863 -0.0741  0.1798 -0.3991
16991TIP3    H172464   3.973   0.041  14.774  0.5425 -0.4938 -0.7861
16991TIP3    H272465   4.035  -0.073  14.852 -0.5972 -0.1765  0.6268
16992TIP3   OH272466   5.103   6.707   0.740 -0.2849 -0.0743 -0.3748
16992TIP3    H172467   5.083   6.791   0.781 -0.2996 -0.4326  0.3575
16992TIP3    H272468   5.195   6.713   0.716  0.1008 -0.3731  0.9621
16993TIP3   OH272469   4.185   4.239   2.697 -0.2322  0.3921  0.4335
16993TIP3    H172470   4.242   4.161   2.691 -1.4867 -0.5456  0.2669
16993TIP3    H272471   4.185   4.274   2.608  3.3804  2.9360  1.1925
16994TIP3   OH272472   4.273   1.324  12.364 -0.1386 -0.0886 -0.2502
16994TIP3    H172473   4.254   1.299  12.454 -2.4832  0.2559 -0.6048
16994TIP3    H272474   4.367   1.343  12.364 -0.1435  0.2097  2.1829
16995TIP3   OH272475   3.923   1.381  16.096  0.8526  0.9787 -0.1340
16995TIP3    H172476   3.911   1.301  16.046  3.0199  0.4878  0.0210
16995TIP3    H272477   3.961   1.443  16.034 -1.4283  2.1695 -0.4346
16996TIP3   OH272478   0.691   3.986  13.820  0.3673  0.1487 -0.0731
16996TIP3    H172479   0.689   4.081  13.812  0.6264  0.0263 -2.7851
16996TIP3    H272480   0.601   3.958  13.805  0.1209 -0.0213  1.6159
16997TIP3   OH272481   5.119   5.103   1.684 -0.1287 -0.0509  0.1862
16997TIP3    H172482   5.048   5.164   1.663 -0.1314  0.2195  0.9495
16997TIP3    H272483   5.077   5.017   1.686 -0.3873  0.0776  0.3757
16998TIP3   OH272484   4.560   1.030   6.041  0.4258  0.0622  0.3620
16998TIP3    H172485   4.563   0.942   6.003  0.3061  0.3236 -0.2719
16998TIP3    H272486   4.467   1.045   6.057  0.1745  0.9184 -1.6086
16999TIP3   OH272487   3.908   3.207   2.817  0.4416 -0.0594 -0.3452
16999TIP3    H172488   3.997   3.177   2.831  0.5427 -0.0487 -0.9403
16999TIP3    H272489   3.917   3.287   2.766  0.0903 -0.1563 -0.5661
17000TIP3   OH272490   6.730   1.617   5.029  0.3759 -0.0751  0.2617
17000TIP3    H172491   6.812   1.566   5.028  0.5981  0.1190  2.5799
17000TIP3    H272492   6.670   1.563   5.080 -0.3428  0.6356  0.1762
17001TIP3   OH272493   0.041   4.186   0.644 -0.1253  0.5811 -0.0270
17001TIP3    H172494   0.065   4.248   0.576  0.7130  1.1346  0.7472
17001TIP3    H272495   0.084   4.219   0.723  2.3889 -2.2541 -0.0426
17002TIP3   OH272496   2.408   4.274   2.560  0.0537 -0.1089 -0.0615
17002TIP3    H172497   2.391   4.361   2.595 -0.8721  0.1698 -1.1630
17002TIP3    H272498   2.335   4.220   2.592  1.5308 -0.9778  2.1205
17003TIP3   OH272499   0.929   4.894  14.369 -0.3186 -0.1644 -0.3406
17003TIP3    H172500   0.972   4.840  14.435 -1.2987 -1.6920 -0.8959
17003TIP3    H272501   0.985   4.887  14.292 -0.1396  0.1097 -0.2376
17004TIP3   OH272502   1.937   1.163   4.348 -0.4649  0.1098  0.6353
17004TIP3    H172503   2.009   1.114   4.308 -0.4786 -1.8066  2.7497
17004TIP3    H272504   1.980   1.235   4.393  0.0604 -0.4499  1.0564
17005TIP3   OH272505   2.343   4.216   5.572  0.5703 -0.1451  0.5579
17005TIP3    H172506   2.425   4.199   5.526  1.0807  0.5184  1.1921
17005TIP3    H272507   2.279   4.233   5.503  0.4532 -2.6254 -0.0419
17006TIP3   OH272508   4.115   6.302   5.030 -0.1464 -0.5712 -0.1220
17006TIP3    H172509   4.100   6.209   5.047 -0.5227 -0.7971 -1.5229
17006TIP3    H272510   4.125   6.341   5.117 -0.3719 -1.8492  0.5089
17007TIP3   OH272511   2.025   1.855   0.359  0.1680 -0.7715 -0.6748
17007TIP3    H172512   1.995   1.770   0.391 -0.5805 -0.0068  0.7311
17007TIP3    H272513   2.001   1.917   0.428  3.0625  0.2280 -0.4006
17008TIP3   OH272514   3.693   1.173   0.532  0.3033 -0.9917  0.3125
17008TIP3    H172515   3.690   1.262   0.497  1.4156 -0.5758  1.1970
17008TIP3    H272516   3.603   1.143   0.530 -0.0811  0.1449 -0.0448
17009TIP3   OH272517   6.308   0.702  12.393 -0.1529  0.1620 -0.8333
17009TIP3    H172518   6.295   0.679  12.485 -3.2231  1.3824 -0.8500
17009TIP3    H272519   6.305   0.798  12.392  1.8392  0.2641 -2.0238
17010TIP3   OH272520   5.576   4.885  15.824  0.1157 -0.0550 -0.1641
17010TIP3    H172521   5.486   4.904  15.798 -0.1625  0.1240  0.8808
17010TIP3    H272522   5.592   4.942  15.899  1.0033 -0.2930 -0.1579
17011TIP3   OH272523   6.159   1.930   6.009 -0.0412  0.3787  0.5217
17011TIP3    H172524   6.246   1.945   6.047 -0.5640  0.9727  1.5010
17011TIP3    H272525   6.114   1.875   6.074  0.0372 -1.0850 -0.5968
17012TIP3   OH272526   2.943   6.114   3.913  0.3913 -0.5525  0.3392
17012TIP3    H172527   2.889   6.037   3.927  0.5838 -0.9813 -1.1795
17012TIP3    H272528   2.997   6.093   3.837 -0.0798  1.3547 -0.5834
17013TIP3   OH272529   5.110   5.657  14.682  0.2653 -0.3051 -0.5066
17013TIP3    H172530   5.071   5.642  14.768  2.9204  2.3323  1.3702
17013TIP3    H272531   5.101   5.751  14.667  0.6332 -0.5572 -2.7673
17014TIP3   OH272532   6.806   4.892   1.988 -0.2531 -0.0051 -0.0607
17014TIP3    H172533   6.779   4.905   1.897 -0.3875  1.5722  0.1723
17014TIP3    H272534   6.783   4.975   2.031  0.0377 -0.6407  1.3490
17015TIP3   OH272535   5.571   2.647   1.461  0.3580  0.0875 -0.0282
17015TIP3    H172536   5.549   2.610   1.546  0.0299  0.4306  0.0379
17015TIP3    H272537   5.497   2.625   1.405  0.8535 -0.6852 -0.3987
17016TIP3   OH272538   2.549   6.167   2.280 -0.4956 -0.0434 -0.5122
17016TIP3    H172539   2.580   6.191   2.368 -2.8006  0.1027  0.3198
17016TIP3    H272540   2.518   6.249   2.243  2.3571  0.3340 -2.4104
17017TIP3   OH272541   2.593   3.992  11.546  0.2036  0.0749 -0.4989
17017TIP3    H172542   2.628   3.911  11.583  0.6474 -0.2426 -1.5591
17017TIP3    H272543   2.502   3.996  11.576 -0.4758 -1.9099 -2.1298
17018TIP3   OH272544   4.411   6.038  11.575  0.3038 -0.7144  0.5194
17018TIP3    H172545   4.421   5.946  11.600 -0.1127 -0.7064  0.7306
17018TIP3    H272546   4.317   6.054  11.581  0.4098 -0.1812  0.8285
17019TIP3   OH272547   2.478   6.820  14.415  0.0295 -0.0981  0.3188
17019TIP3    H172548   2.460   6.802  14.507  0.7846 -0.9924  0.3159
17019TIP3    H272549   2.516   6.738  14.382  0.9689  0.6243 -0.4543
17020TIP3   OH272550   1.273   5.713   2.941 -0.6943 -0.3481  0.5154
17020TIP3    H172551   1.180   5.710   2.964 -0.6864 -0.3723  0.5444
17020TIP3    H272552   1.275   5.712   2.845 -0.6612 -2.4212  0.4854
17021TIP3   OH272553   4.542   1.779  15.772  0.2757 -0.0595 -0.5822
17021TIP3    H172554   4.589   1.851  15.730 -0.3805  0.8453  0.2019
17021TIP3    H272555   4.452   1.810  15.781  0.2442 -0.4782  0.8609
17022TIP3   OH272556   5.461   3.067   2.982  0.4009  0.1261  0.5994
17022TIP3    H172557   5.527   3.005   3.014 -0.2239 -0.8041  0.1192
17022TIP3    H272558   5.482   3.149   3.028 -0.2733 -1.0342  3.2027
17023TIP3   OH272559   5.864   0.721   2.600 -0.3741  0.1903 -0.3051
17023TIP3    H172560   5.954   0.707   2.570  1.0686 -0.9260  3.7290
17023TIP3    H272561   5.863   0.811   2.632 -0.4564  0.0091  0.2178
17024TIP3   OH272562   1.401   2.640  16.769 -0.0059 -0.1451 -0.5602
17024TIP3    H172563   1.392   2.544  16.771  0.1435 -0.1605 -0.6424
17024TIP3    H272564   1.477   2.656  16.714 -0.4318  0.0476 -1.1029
17025TIP3   OH272565   0.903   6.556   3.997  0.6959 -0.3856 -0.3141
17025TIP3    H172566   0.893   6.538   3.903  0.5656 -4.1739  0.2774
17025TIP3    H272567   0.991   6.525   4.018  0.9825  1.0487  0.7495
17026TIP3   OH272568   2.484   1.586  15.374  0.1341  0.1401 -0.7723
17026TIP3    H172569   2.487   1.512  15.434 -1.4265  1.2740  0.8558
17026TIP3    H272570   2.436   1.554  15.298  0.9851 -0.9692 -0.8560
17027TIP3   OH272571   3.352   0.709  16.274  0.6663 -0.6586  0.1678
17027TIP3    H172572   3.361   0.789  16.327 -0.4572 -0.3458 -0.0860
17027TIP3    H272573   3.310   0.646  16.333 -0.7371 -0.2587 -0.3625
17028TIP3   OH272574   2.003   0.286  16.420 -0.3755  0.6112 -0.3801
17028TIP3    H172575   1.952   0.219  16.465 -2.7063  1.4773 -1.5191
17028TIP3    H272576   2.028   0.246  16.337  1.1056  0.1092  0.2710
17029TIP3   OH272577   3.403   3.004   1.390 -0.4292 -0.1902 -0.0475
17029TIP3    H172578   3.396   3.002   1.486 -0.8873  0.8192 -0.0464
17029TIP3    H272579   3.414   3.097   1.369 -1.3259 -0.2856 -1.0389
17030TIP3   OH272580   6.043   6.512  14.376 -0.0166  0.3276 -0.1085
17030TIP3    H172581   6.080   6.535  14.461  1.1321 -0.6312 -0.3093
17030TIP3    H272582   5.992   6.433  14.393 -1.2947  1.1539  0.0020
17031TIP3   OH272583   3.698   4.193  11.804 -0.3935  0.2749  0.5452
17031TIP3    H172584   3.668   4.199  11.713 -0.5915  1.9540  0.6883
17031TIP3    H272585   3.721   4.101  11.816 -1.3162 -0.1785 -0.9002
17032TIP3   OH272586   1.554   3.115  15.497 -0.3560 -0.0459  0.2990
17032TIP3    H172587   1.511   3.130  15.413 -0.4405  0.0938  0.3661
17032TIP3    H272588   1.624   3.180  15.500 -0.4317  0.0305  0.3921
17033TIP3   OH272589   3.307   1.129   1.289 -0.4969 -0.2120  0.2367
17033TIP3    H172590   3.224   1.083   1.276  0.9904 -2.7593 -1.0706
17033TIP3    H272591   3.362   1.068   1.338  0.4063  1.7376  1.8141
17034TIP3   OH272592   1.357   2.264   2.687 -0.1865  0.1019 -0.0257
17034TIP3    H172593   1.351   2.211   2.767 -0.5566  0.9318  0.5000
17034TIP3    H272594   1.348   2.200   2.616 -1.4956 -0.4396  0.5981
17035TIP3   OH272595   1.139   2.604  11.526 -0.4801 -0.6774  0.5791
17035TIP3    H172596   1.113   2.531  11.580  2.2174 -0.5077  2.2760
17035TIP3    H272597   1.199   2.567  11.462 -0.0705 -0.1520  0.6488
17036TIP3   OH272598   4.842   0.882  17.059 -0.2117 -0.3157 -0.2515
17036TIP3    H172599   4.783   0.810  17.041 -1.4812  0.9012 -1.1469
17036TIP3    H272600   4.868   0.915  16.973  1.6235 -0.6713  0.1215
17037TIP3   OH272601   6.448   4.388   0.925 -0.0864 -0.4803  0.0190
17037TIP3    H172602   6.391   4.464   0.936  1.1040  0.4946 -0.3348
17037TIP3    H272603   6.515   4.417   0.863  1.9657 -0.8702  1.9330
17038TIP3   OH272604   5.126   1.828   5.164 -0.6739  0.1254 -0.1927
17038TIP3    H172605   5.129   1.863   5.075 -1.5620  0.1358 -0.2266
17038TIP3    H272606   5.176   1.891   5.216 -1.3765  0.9097 -0.4405
17039TIP3   OH272607   0.202   0.199   2.582 -0.5563  0.2177 -0.6221
17039TIP3    H172608   0.280   0.165   2.539 -0.5236 -2.6239  1.4352
17039TIP3    H272609   0.130   0.150   2.544 -0.6741 -1.2456  1.3345
17040TIP3   OH272610   4.788   5.265   4.232  0.4986 -0.0722 -0.1126
17040TIP3    H172611   4.883   5.271   4.222  0.8122  0.1229  2.3595
17040TIP3    H272612   4.762   5.347   4.273 -0.4877 -0.7780  0.7432
17041TIP3   OH272613   3.364   5.919   0.989 -0.2242 -0.1332 -0.1629
17041TIP3    H172614   3.269   5.935   0.986 -0.0804  0.7134 -0.4828
17041TIP3    H272615   3.402   6.004   1.011  0.4508 -0.5399  0.3008
17042TIP3   OH272616   6.760   2.074   1.906  0.4211 -0.8530 -0.1435
17042TIP3    H172617   6.681   2.032   1.940  0.4078  0.3944  1.4770
17042TIP3    H272618   6.792   2.128   1.978  3.3404 -2.0667 -0.3730
17043TIP3   OH272619   1.220   5.739  11.714  0.3023  0.4017 -0.2852
17043TIP3    H172620   1.313   5.762  11.706  1.0068 -1.9401  0.5619
17043TIP3    H272621   1.186   5.803  11.777  1.8111  0.1616  0.8412
17044TIP3   OH272622   2.125   6.266   1.604 -0.1152  0.4168  0.3003
17044TIP3    H172623   2.052   6.285   1.663 -0.4072 -1.6093  0.6785
17044TIP3    H272624   2.089   6.203   1.541  1.2499 -0.5130  0.4047
17045TIP3   OH272625   1.194   0.640  11.850 -0.6128 -0.0764 -0.5334
17045TIP3    H172626   1.234   0.628  11.937 -0.7941 -3.3648 -0.7840
17045TIP3    H272627   1.266   0.674  11.796  0.1041 -0.0288  0.4066
17046TIP3   OH272628   3.187   5.834  13.515 -0.1353 -0.0674  0.7620
17046TIP3    H172629   3.276   5.870  13.507 -0.5771  0.6756 -1.6163
17046TIP3    H272630   3.133   5.890  13.460 -2.2598 -0.1082  2.6529
17047TIP3   OH272631   5.660   1.000  10.457  0.3314  0.6898  0.3068
17047TIP3    H172632   5.620   1.031  10.375  0.4047  0.4678  0.1847
17047TIP3    H272633   5.652   0.905  10.452  0.9806  0.6356  0.2298
17048TIP3   OH272634   3.089   2.292   1.593 -0.2139  0.2742 -0.8282
17048TIP3    H172635   3.130   2.374   1.567 -0.4470  0.6713  0.0457
17048TIP3    H272636   3.150   2.253   1.656 -1.0626  0.7786  0.3332
17049TIP3   OH272637   4.929   4.789  16.529  0.5383  0.1964 -0.0998
17049TIP3    H172638   4.860   4.759  16.469 -0.4431  1.2967  0.4503
17049TIP3    H272639   4.944   4.714  16.587 -0.9445  0.2675  0.4235
17050TIP3   OH272640   3.408   5.617  13.652 -0.1100 -0.1078 -0.5510
17050TIP3    H172641   3.340   5.570  13.699 -0.1427 -0.6779 -1.1575
17050TIP3    H272642   3.400   5.587  13.562  1.3986 -0.7304 -0.5113
17051TIP3   OH272643   1.166   2.000  10.679 -0.0368 -0.0096 -0.1201
17051TIP3    H172644   1.238   1.937  10.668 -0.0068 -0.3939  1.9348
17051TIP3    H272645   1.199   2.081  10.640  1.2259 -0.3935  0.1121
17052TIP3   OH272646   3.860   0.854  12.204 -0.7434 -0.1348 -0.2126
17052TIP3    H172647   3.829   0.908  12.276 -0.9944 -0.7894  0.1852
17052TIP3    H272648   3.904   0.780  12.247 -1.1476 -0.6849 -0.7211
17053TIP3   OH272649   2.418   0.584   4.699 -0.2336  0.0352 -0.6491
17053TIP3    H172650   2.512   0.584   4.680  0.3037 -0.4346  1.7511
17053TIP3    H272651   2.385   0.504   4.658  0.5746 -0.2289 -0.7929
17054TIP3   OH272652   2.092   3.353  15.522  0.2090  0.4688 -0.8198
17054TIP3    H172653   2.182   3.357  15.556 -0.4916  1.4042  1.0837
17054TIP3    H272654   2.057   3.440  15.538 -1.9343 -0.6420  1.2150
17055TIP3   OH272655   4.575   5.708   4.268  0.1762  0.1044  0.0551
17055TIP3    H172656   4.645   5.707   4.202  0.9054 -0.7855  0.8205
17055TIP3    H272657   4.604   5.646   4.335 -0.8415  0.5425  0.9251
17056TIP3   OH272658   1.933   6.241  13.471 -0.3509 -0.0943  0.0967
17056TIP3    H172659   1.910   6.233  13.379 -0.3810 -1.3420  0.2041
17056TIP3    H272660   2.019   6.283  13.471  0.2342 -1.2644 -0.5605
17057TIP3   OH272661   0.641   0.160  14.397  0.2686  0.3349  0.0834
17057TIP3    H172662   0.702   0.225  14.361  0.2515 -1.1681 -3.0392
17057TIP3    H272663   0.696   0.085  14.420  0.0345  0.5718  1.5101
17058TIP3   OH272664   4.964   6.288  15.611  0.3095  0.3085 -0.3578
17058TIP3    H172665   4.876   6.325  15.624  0.2148 -0.0585  0.0557
17058TIP3    H272666   4.972   6.281  15.516 -0.4379 -0.4367 -0.3770
17059TIP3   OH272667   2.756   3.008   1.669 -0.0828 -0.3041  0.5236
17059TIP3    H172668   2.689   3.066   1.634 -0.3947 -0.7324  0.4132
17059TIP3    H272669   2.710   2.928   1.693  0.4149 -0.6738  0.2710
17060TIP3   OH272670   5.799   4.568  13.134  0.1016  0.2254 -0.0389
17060TIP3    H172671   5.713   4.604  13.114  0.3200  1.1671  0.6720
17060TIP3    H272672   5.840   4.633  13.192  0.8469 -0.7463  0.5551
17061TIP3   OH272673   3.888   4.678  17.003  0.2906  0.2445 -0.5876
17061TIP3    H172674   3.984   4.671  17.007  0.1738 -2.3115 -0.6053
17061TIP3    H272675   3.858   4.633  17.082 -0.9254  2.0735  0.0550
17062TIP3   OH272676   4.802   2.349   6.490 -0.2854 -0.2238 -0.3031
17062TIP3    H172677   4.719   2.329   6.532 -1.4725 -0.5795 -2.6212
17062TIP3    H272678   4.841   2.264   6.471  0.2827 -0.0735  0.1762
17063TIP3   OH272679   1.554   0.708  15.787  0.0161  0.4857 -0.0777
17063TIP3    H172680   1.587   0.619  15.798  4.3290  1.8432 -0.2143
17063TIP3    H272681   1.578   0.754  15.867 -0.9311  1.8555 -0.5310
17064TIP3   OH272682   3.823   3.106  16.921  0.2932 -0.5356  0.3585
17064TIP3    H172683   3.753   3.137  16.864  1.8680 -1.2905 -2.1425
17064TIP3    H272684   3.865   3.186  16.954  0.1355 -0.0536 -0.5898
17065TIP3   OH272685   1.108   5.851   4.651 -0.1494  0.3533 -0.0451
17065TIP3    H172686   1.154   5.891   4.725  0.2215 -0.3680  0.1168
17065TIP3    H272687   1.126   5.909   4.577  1.2854 -0.0759 -0.0596
17066TIP3   OH272688   1.285   4.668  15.110  0.1948 -0.2798 -0.3976
17066TIP3    H172689   1.288   4.748  15.057 -0.5494 -1.3588 -2.1665
17066TIP3    H272690   1.376   4.641  15.118  0.7320  1.9073  2.1967
17067TIP3   OH272691   5.588   2.650   6.049  0.6203 -0.6496  0.3842
17067TIP3    H172692   5.680   2.626   6.048  1.2776  1.6541 -0.4734
17067TIP3    H272693   5.576   2.704   5.971 -1.9956 -2.5844 -0.7436
17068TIP3   OH272694   3.504   5.426   0.403 -0.3928  0.8821  0.1253
17068TIP3    H172695   3.434   5.437   0.339 -0.7954 -1.4853  0.0742
17068TIP3    H272696   3.467   5.459   0.485 -0.7288  1.7442 -0.3617
17069TIP3   OH272697   5.626   3.464  17.300 -0.4083 -0.0097 -0.2720
17069TIP3    H172698   5.557   3.401  17.322 -0.6273  0.3398  0.0572
17069TIP3    H272699   5.692   3.412  17.254  0.1783 -0.8378  1.3955
17070TIP3   OH272700   5.580   2.764   0.692  0.0578  0.0733  0.2721
17070TIP3    H172701   5.611   2.673   0.698 -2.3031 -0.9477 -1.3560
17070TIP3    H272702   5.659   2.815   0.677  1.6796 -1.4407  2.8783
17071TIP3   OH272703   6.786   3.237  13.840  0.1429 -0.0504 -0.0732
17071TIP3    H172704   6.712   3.294  13.822 -0.1043 -0.5494 -0.6886
17071TIP3    H272705   6.747   3.158  13.878  0.5476  0.4804  1.5242
17072TIP3   OH272706   1.333   1.860   1.782  0.1026 -0.5642  0.2933
17072TIP3    H172707   1.297   1.941   1.746  0.7043 -0.5280 -0.2315
17072TIP3    H272708   1.409   1.888   1.833 -0.7433 -0.6099  1.6473
17073TIP3   OH272709   2.675   5.606  14.503  0.1388 -0.2907  0.3510
17073TIP3    H172710   2.757   5.628  14.458  0.0847  1.2473  0.9453
17073TIP3    H272711   2.702   5.551  14.577  0.2531 -2.6140 -1.3008
17074TIP3   OH272712   3.068   2.131   5.563 -0.0909  0.2478  0.5018
17074TIP3    H172713   3.111   2.207   5.601 -0.2265 -0.3015  1.7844
17074TIP3    H272714   2.988   2.120   5.614 -1.0278  0.3544 -0.8847
17075TIP3   OH272715   5.536   1.335   0.910 -0.1649  0.3514 -0.0628
17075TIP3    H172716   5.463   1.338   0.848 -0.5653 -1.5329  0.2290
17075TIP3    H272717   5.494   1.313   0.994  0.5475  1.1888  0.5234
17076TIP3   OH272718   6.436   5.611  13.333 -0.1674  0.2782 -0.3035
17076TIP3    H172719   6.380   5.678  13.374 -2.5217 -1.1283 -1.0808
17076TIP3    H272720   6.484   5.659  13.265  1.7018  2.0605  2.0472
17077TIP3   OH272721   0.589   3.754   4.828  0.1146 -0.2798  0.1937
17077TIP3    H172722   0.595   3.725   4.919  0.2290  2.5104  1.1801
17077TIP3    H272723   0.678   3.779   4.804  0.1832 -1.4638 -0.9055
17078TIP3   OH272724   4.709   5.316  11.665  0.3908  0.3080  0.2177
17078TIP3    H172725   4.714   5.296  11.758 -0.7338  0.1233  0.2583
17078TIP3    H272726   4.788   5.278  11.627  1.7122  1.8156  1.3229
17079TIP3   OH272727   2.131   5.879  11.200 -0.2056  0.0070 -0.1455
17079TIP3    H172728   2.136   5.899  11.107  0.3693 -0.1986 -0.1552
17079TIP3    H272729   2.206   5.824  11.218 -0.2017  0.2079  0.4832
17080TIP3   OH272730   5.449   5.129  13.228 -0.0764 -0.1804 -0.2168
17080TIP3    H172731   5.398   5.069  13.174 -0.2816 -0.1233 -0.0889
17080TIP3    H272732   5.385   5.192  13.261  0.0774 -0.1030 -0.0634
17081TIP3   OH272733   4.502   2.772  10.682  0.1589 -0.1312 -0.0792
17081TIP3    H172734   4.486   2.678  10.674 -2.8587  0.3088 -0.2093
17081TIP3    H272735   4.551   2.794  10.603 -0.2647 -1.3614 -0.7196
17082TIP3   OH272736   6.226   4.575  14.600 -0.3955  0.4911  1.1045
17082TIP3    H172737   6.188   4.507  14.544  1.3834 -0.3859  0.8766
17082TIP3    H272738   6.225   4.538  14.688 -0.4814  0.6511  1.1718
17083TIP3   OH272739   3.792   4.721   3.792  0.4590 -0.0533 -0.4753
17083TIP3    H172740   3.831   4.685   3.712  1.4101  0.0560 -0.0798
17083TIP3    H272741   3.784   4.646   3.851  0.5730  0.0210 -0.3643
17084TIP3   OH272742   2.088   4.032   0.188 -0.0817 -0.7427  0.4559
17084TIP3    H172743   2.024   4.072   0.130  0.2705  0.1686  0.6770
17084TIP3    H272744   2.153   3.993   0.130 -0.1376 -0.5091  0.2375
17085TIP3   OH272745   0.216   5.727   5.280  0.3219 -0.7732 -0.1546
17085TIP3    H172746   0.285   5.767   5.333 -0.9712 -1.2320  1.9873
17085TIP3    H272747   0.230   5.633   5.289  0.0984 -0.8635 -0.6896
17086TIP3   OH272748   1.355   4.788  11.803  0.2344 -0.1848  0.1616
17086TIP3    H172749   1.346   4.753  11.714  0.1321 -1.9629  0.8297
17086TIP3    H272750   1.278   4.843  11.815  1.0305  1.3773 -1.3662
17087TIP3   OH272751   3.331   2.547  14.721  0.8268  0.3462  0.0002
17087TIP3    H172752   3.299   2.631  14.754  1.1828  0.3246  0.4000
17087TIP3    H272753   3.255   2.508  14.679 -0.0066 -0.2166  1.9319
17088TIP3   OH272754   3.083   3.919   1.983  0.5179 -0.1866 -0.1006
17088TIP3    H172755   3.050   3.884   1.901  0.1690  0.8126 -0.4010
17088TIP3    H272756   3.073   3.847   2.046 -0.5997 -0.4809 -0.5886
17089TIP3   OH272757   1.159   2.427   4.452 -0.2305  0.3347  0.2254
17089TIP3    H172758   1.203   2.384   4.378  0.9899 -0.5280  1.4229
17089TIP3    H272759   1.183   2.375   4.528 -1.2780  1.3530  1.2901
17090TIP3   OH272760   2.096   0.873   2.977 -0.1322 -0.4190 -0.0972
17090TIP3    H172761   2.150   0.932   3.029  0.0967  0.2653 -1.1000
17090TIP3    H272762   2.131   0.879   2.889 -0.7375 -1.3139 -0.4158
17091TIP3   OH272763   5.058   6.429  15.347  0.0544 -0.1025  0.5162
17091TIP3    H172764   5.058   6.458  15.256 -0.7377  2.9258  1.3452
17091TIP3    H272765   5.020   6.341  15.345  0.2962 -0.2137 -2.0754
17092TIP3   OH272766   4.529   4.529  12.429  0.8898 -0.4091 -0.2158
17092TIP3    H172767   4.484   4.480  12.498  2.5677 -0.3966  0.9539
17092TIP3    H272768   4.590   4.467  12.391  1.5622  0.1935 -0.1433
17093TIP3   OH272769   4.459   5.668  14.198 -0.8897 -0.1321  0.7915
17093TIP3    H172770   4.448   5.592  14.140  1.0558  1.2193 -1.5301
17093TIP3    H272771   4.553   5.670  14.217 -0.9994  1.3705  1.2874
17094TIP3   OH272772   0.499   2.564  14.695 -0.3162 -0.0549 -0.1182
17094TIP3    H172773   0.426   2.618  14.724 -0.8931 -1.8637  2.0430
17094TIP3    H272774   0.569   2.627  14.674 -1.3678  1.5618  1.0302
17095TIP3   OH272775   4.734   6.408  15.613  0.2110  0.3046 -0.1535
17095TIP3    H172776   4.656   6.365  15.579  1.3768 -0.6254 -1.8163
17095TIP3    H272777   4.750   6.481  15.553  1.9565 -1.0038 -1.4184
17096TIP3   OH272778   0.036   1.009  17.062 -0.7664  0.2884 -0.1441
17096TIP3    H172779   0.031   1.095  17.103  0.1489  0.2327  0.1198
17096TIP3    H272780   0.070   1.027  16.974  0.2759  0.1456  0.2041
17097TIP3   OH272781   2.529   4.738  14.819 -0.0058 -0.1140  0.3028
17097TIP3    H172782   2.469   4.803  14.854  0.0618  0.0145  0.1801
17097TIP3    H272783   2.549   4.681  14.894 -0.3060 -0.1795  0.3356
17098TIP3   OH272784   3.809   5.159   2.955 -0.3976  0.2189  0.0390
17098TIP3    H172785   3.808   5.124   3.044 -1.3525  0.4710  0.1423
17098TIP3    H272786   3.883   5.115   2.913 -0.8145 -1.0085  0.5250
17099TIP3   OH272787   0.910   4.536   6.001  0.2264 -0.5011 -0.4394
17099TIP3    H172788   0.829   4.580   6.026 -0.5962 -1.4120 -1.4076
17099TIP3    H272789   0.926   4.564   5.911  0.3352 -1.2400 -0.6567
17100TIP3   OH272790   1.744   5.087   0.328 -0.0758  0.3000 -0.3396
17100TIP3    H172791   1.661   5.050   0.356  0.7225 -0.5546  1.0244
17100TIP3    H272792   1.807   5.015   0.340  0.3655 -0.3044 -4.6252
17101TIP3   OH272793   2.362   1.590   5.544 -0.3241  0.3089 -0.1273
17101TIP3    H172794   2.455   1.611   5.542 -0.2006  0.0151  1.2644
17101TIP3    H272795   2.319   1.674   5.556 -0.0848  0.2624  1.2779
17102TIP3   OH272796   3.415   1.190  13.818  0.3910 -0.3771  0.7504
17102TIP3    H172797   3.481   1.146  13.871  0.0628  0.3842  1.8234
17102TIP3    H272798   3.338   1.133  13.824  0.4666 -0.4738  0.7985
17103TIP3   OH272799   5.661   2.271   1.514  0.3225 -0.0390 -0.0075
17103TIP3    H172800   5.702   2.316   1.440  1.5044 -0.4282  0.3936
17103TIP3    H272801   5.592   2.218   1.475 -0.5627  1.4618 -0.5816
17104TIP3   OH272802   3.614   1.587  11.558  0.4041 -0.8359 -0.2109
17104TIP3    H172803   3.663   1.517  11.515  0.1638 -0.6983 -0.7197
17104TIP3    H272804   3.550   1.615  11.492 -0.5393 -1.1973  0.5244
17105TIP3   OH272805   1.798   5.651   2.378 -0.1087  1.0304 -0.0850
17105TIP3    H172806   1.840   5.666   2.293  0.8138  2.2945  0.5588
17105TIP3    H272807   1.869   5.622   2.435 -0.5443  1.0729  0.4887
17106TIP3   OH272808   4.204   6.693   1.392  0.1451 -0.0492 -0.2720
17106TIP3    H172809   4.141   6.668   1.324 -0.0920 -0.4532  0.0899
17106TIP3    H272810   4.289   6.682   1.350 -0.0068  0.0213 -0.6072
17107TIP3   OH272811   5.447   4.756  15.124  0.0528 -0.0607  0.3138
17107TIP3    H172812   5.434   4.669  15.159 -0.7631  0.0450  0.2842
17107TIP3    H272813   5.409   4.815  15.189 -1.1579  0.1559 -0.5563
17108TIP3   OH272814   1.725   0.443   1.509 -0.0352 -0.1885  0.1979
17108TIP3    H172815   1.738   0.512   1.445 -1.1411  1.7052  1.8665
17108TIP3    H272816   1.806   0.442   1.561 -0.3955  0.6537  0.8172
17109TIP3   OH272817   3.953   3.570   1.238 -0.2521 -0.8541 -0.5351
17109TIP3    H172818   4.021   3.539   1.298  0.5309  0.2192 -0.8538
17109TIP3    H272819   3.935   3.495   1.181  1.4898 -0.8144 -1.1793
17110TIP3   OH272820   5.690   5.273   0.107  0.4541  0.3076  0.2356
17110TIP3    H172821   5.618   5.262   0.045  0.5161  0.8002  0.0706
17110TIP3    H272822   5.713   5.366   0.101  0.6704  0.2944  0.7612
17111TIP3   OH272823   4.616   4.026   5.591 -0.2581 -0.1114 -0.1726
17111TIP3    H172824   4.562   4.011   5.513  0.8456 -1.7419 -0.6875
17111TIP3    H272825   4.590   4.113   5.622 -1.1781  0.3190 -1.9873
17112TIP3   OH272826   0.922   5.085  16.483  0.9459 -0.3257 -0.4279
17112TIP3    H172827   0.925   5.180  16.493  1.3843 -0.2687 -1.0091
17112TIP3    H272828   0.996   5.053  16.534  0.5861 -0.3856  0.0584
17113TIP3   OH272829   1.395   1.489   4.574 -0.7593 -0.0866  0.1332
17113TIP3    H172830   1.464   1.536   4.527 -1.1617 -0.6096 -1.0155
17113TIP3    H272831   1.438   1.458   4.654 -0.2952  1.5689  0.5573
17114TIP3   OH272832   2.492   3.829  12.854 -0.0781  0.1136 -0.0635
17114TIP3    H172833   2.553   3.798  12.788  1.4589  0.7235  1.0055
17114TIP3    H272834   2.547   3.867  12.922 -1.6874  2.8336 -0.0889
17115TIP3   OH272835   1.936   2.712   5.762 -0.3445 -0.1242 -0.5257
17115TIP3    H172836   1.900   2.632   5.800 -0.5098 -0.8443 -2.1223
17115TIP3    H272837   1.968   2.685   5.675  1.5178  1.0895 -0.2666
17116TIP3   OH272838   3.562   5.863   1.394  0.2748  0.0245  0.0583
17116TIP3    H172839   3.612   5.854   1.314 -0.1401  0.6102 -0.2792
17116TIP3    H272840   3.580   5.952   1.424 -0.4625  0.2094 -0.0142
17117TIP3   OH272841   4.300   3.280   0.095  0.4250  0.5905  0.2252
17117TIP3    H172842   4.308   3.260   0.188 -0.6835  0.7796  0.3650
17117TIP3    H272843   4.369   3.228   0.053  1.0709  0.6701  1.1672
17118TIP3   OH272844   0.539   1.326   0.869 -0.3924 -0.2881  0.1939
17118TIP3    H172845   0.472   1.393   0.855 -0.5316 -0.7556 -1.6827
17118TIP3    H272846   0.622   1.374   0.865 -0.5542  0.0307  0.6723
17119TIP3   OH272847   4.243   0.361   5.670  0.1091 -0.0417  0.6961
17119TIP3    H172848   4.160   0.318   5.689  0.5556 -0.5405  1.5798
17119TIP3    H272849   4.272   0.396   5.754  0.3679  0.9021  0.2212
17120TIP3   OH272850   5.568   5.015  11.651  0.4364  0.5342  0.2748
17120TIP3    H172851   5.602   5.034  11.738  1.0647 -1.4307  0.5181
17120TIP3    H272852   5.644   5.020  11.593  0.2005  0.8860 -0.0141
17121TIP3   OH272853   1.515   5.075  12.364  0.2880 -0.7643 -0.0461
17121TIP3    H172854   1.578   5.145  12.382 -1.6620  0.9161  0.7958
17121TIP3    H272855   1.455   5.077  12.439 -2.2023 -0.5291 -1.8937
17122TIP3   OH272856   4.393   4.913   1.421 -0.2908 -0.8953 -0.0347
17122TIP3    H172857   4.454   4.980   1.453 -0.1378 -1.5369  1.0616
17122TIP3    H272858   4.443   4.863   1.357  0.3593 -1.4384  0.8822
17123TIP3   OH272859   3.798   5.391  17.000  0.4817 -0.0450 -0.1225
17123TIP3    H172860   3.816   5.485  16.998 -2.6026  0.6382 -1.4385
17123TIP3    H272861   3.769   5.374  17.090  1.6835  0.0468  0.3124
17124TIP3   OH272862   1.729   3.185  13.153  0.0190 -0.4662  0.1644
17124TIP3    H172863   1.693   3.270  13.179  2.2404  0.9844 -1.2308
17124TIP3    H272864   1.699   3.173  13.063  0.2822 -0.8576  0.1288
17125TIP3   OH272865   0.276   6.281  11.926 -0.1287 -0.5896  0.4898
17125TIP3    H172866   0.307   6.194  11.949 -0.3121 -0.8001 -0.0400
17125TIP3    H272867   0.303   6.337  11.999  1.8758 -0.6652 -0.1392
17126TIP3   OH272868   2.243   6.249  15.221 -0.4366  0.0467  0.3376
17126TIP3    H172869   2.206   6.216  15.139  0.0151 -1.5682  0.7413
17126TIP3    H272870   2.184   6.215  15.289  0.5771 -0.7629  0.8342
17127TIP3   OH272871   2.982   2.823   5.011 -0.0006  0.1007  0.1668
17127TIP3    H172872   3.057   2.862   4.966  1.2151 -2.7338 -0.4817
17127TIP3    H272873   2.908   2.841   4.953  0.6934  0.5354 -0.6019
17128TIP3   OH272874   5.905   6.062  16.876 -0.0566  0.7177  0.1365
17128TIP3    H172875   5.858   6.141  16.904  0.7994  1.5267 -0.6170
17128TIP3    H272876   5.971   6.095  16.815  0.6175 -0.5398  0.1666
17129TIP3   OH272877   5.705   6.245  12.611 -0.0763 -0.1824  0.0999
17129TIP3    H172878   5.775   6.249  12.546  0.2607 -1.8501  0.3036
17129TIP3    H272879   5.649   6.173  12.582 -0.5438 -0.2323  1.0670
17130TIP3   OH272880   4.591   6.019  12.158  0.1700 -0.1344 -0.3958
17130TIP3    H172881   4.686   6.019  12.149  0.3114  0.1721  0.8547
17130TIP3    H272882   4.570   5.936  12.200  0.1109  0.5503  1.0209
17131TIP3   OH272883   2.082   5.417  16.175  0.1494  0.8072  0.3858
17131TIP3    H172884   2.163   5.424  16.225 -0.4400  2.5336  1.1808
17131TIP3    H272885   2.098   5.467  16.095  0.1765  0.3284  0.0857
17132TIP3   OH272886   3.782   2.631  12.653  0.1361 -0.2676 -0.0617
17132TIP3    H172887   3.856   2.594  12.605 -1.1667  0.5783 -2.9912
17132TIP3    H272888   3.706   2.583  12.619 -0.8825  0.3507  1.2605
17133TIP3   OH272889   0.550   2.016   2.471  0.2500  0.6435 -0.0824
17133TIP3    H172890   0.568   2.028   2.378  2.1494 -1.6751 -0.1165
17133TIP3    H272891   0.486   1.945   2.474  0.0363  0.8558  0.3757
17134TIP3   OH272892   4.468   1.301   1.608  0.6673  0.4318  0.1729
17134TIP3    H172893   4.403   1.370   1.598 -0.2031 -0.3794  0.1444
17134TIP3    H272894   4.431   1.226   1.562  1.7517  0.0396 -0.0887
17135TIP3   OH272895   0.907   2.518  12.596  0.1745 -0.0591 -0.0054
17135TIP3    H172896   0.958   2.519  12.677  0.1307  0.0510  0.0198
17135TIP3    H272897   0.851   2.440  12.604  1.8533 -1.4271 -0.9757
17136TIP3   OH272898   1.325   5.201  15.980  0.2675  0.0111  0.1415
17136TIP3    H172899   1.332   5.193  16.075 -1.9660  1.1156  0.4617
17136TIP3    H272900   1.262   5.134  15.955  1.1699 -0.5687 -0.6629
17137TIP3   OH272901   0.706   2.987  11.329 -0.0617 -0.1352  0.7101
17137TIP3    H172902   0.761   3.020  11.400 -0.4611  2.6509 -0.1592
17137TIP3    H272903   0.684   3.065  11.277 -2.9331 -1.4747 -0.2956
17138TIP3   OH272904   1.253   0.221  13.849 -0.0655 -0.1138  0.2205
17138TIP3    H172905   1.169   0.229  13.803 -0.0608 -1.5432 -0.1114
17138TIP3    H272906   1.309   0.174  13.787  1.2257  1.4378  0.1574
17139TIP3   OH272907   3.997   5.140   3.740  0.3782  0.5679 -0.0083
17139TIP3    H172908   3.910   5.101   3.738  0.7410 -0.2392 -0.9422
17139TIP3    H272909   4.043   5.093   3.809  0.1399  0.8764  0.3678
17140TIP3   OH272910   4.182   3.992   4.318  0.0489  0.0139 -0.2815
17140TIP3    H172911   4.177   4.072   4.369 -0.3512 -0.3019  0.1895
17140TIP3    H272912   4.113   3.936   4.354 -0.7422  0.0659 -1.6587
17141TIP3   OH272913   3.378   1.834  16.604 -0.0538 -1.1480 -0.0113
17141TIP3    H172914   3.292   1.792  16.604  0.5185 -2.4763  1.7594
17141TIP3    H272915   3.382   1.877  16.690  1.1729 -1.4573  0.1018
17142TIP3   OH272916   0.168   2.657   4.321  0.4867 -1.3128 -0.1494
17142TIP3    H172917   0.140   2.665   4.229 -1.1647 -0.4128  0.3905
17142TIP3    H272918   0.253   2.702   4.324  0.6418 -1.4930 -1.2599
17143TIP3   OH272919   3.537   1.034  13.994 -0.4090  0.2164  0.1835
17143TIP3    H172920   3.464   1.002  14.046 -0.8455  0.1360 -0.4701
17143TIP3    H272921   3.603   0.965  14.000 -0.6457 -0.0048  0.2481
17144TIP3   OH272922   2.036   5.264   2.207 -0.0349  0.3594  0.1990
17144TIP3    H172923   2.087   5.189   2.239  1.2234 -0.1718 -2.7424
17144TIP3    H272924   2.018   5.243   2.115 -1.7753  2.5972 -0.0373
17145TIP3   OH272925   4.748   2.188  12.174 -0.6767  0.6925 -0.5324
17145TIP3    H172926   4.773   2.277  12.198 -0.9501  0.5398  0.3547
17145TIP3    H272927   4.793   2.172  12.091 -0.0735  1.4019 -0.3528
17146TIP3   OH272928   2.448   0.992   0.420 -0.2314  0.3411 -0.0822
17146TIP3    H172929   2.367   0.985   0.470 -0.3161 -2.5633 -0.4237
17146TIP3    H272930   2.423   0.967   0.331  0.8786  0.2784 -0.3916
17147TIP3   OH272931   5.750   4.862  13.112  0.2899 -0.1615 -0.7737
17147TIP3    H172932   5.700   4.943  13.101 -0.0820 -0.2302  0.2590
17147TIP3    H272933   5.693   4.806  13.165  1.8086  0.1153  1.2695
17148TIP3   OH272934   4.774   4.061   6.550 -0.3887  1.1184 -1.1078
17148TIP3    H172935   4.830   4.110   6.610  0.3540 -2.0672  1.0364
17148TIP3    H272936   4.685   4.087   6.574 -0.0861  0.2728  1.1764
17149TIP3   OH272937   6.263   3.299   0.071 -0.0773  0.4386  0.1531
17149TIP3    H172938   6.357   3.291   0.087 -0.2945  0.0516  1.3443
17149TIP3    H272939   6.225   3.224   0.117 -0.9241  0.2612 -0.8141
17150TIP3   OH272940   4.376   4.565   2.118 -0.5105 -0.5799 -0.3016
17150TIP3    H172941   4.354   4.497   2.054  0.9083 -0.4357 -0.9799
17150TIP3    H272942   4.458   4.535   2.157  1.0451  1.4664 -1.7865
17151TIP3   OH272943   5.509   6.548  10.973 -0.1446 -0.1696  0.6597
17151TIP3    H172944   5.545   6.460  10.975  0.9499  0.2443  0.1461
17151TIP3    H272945   5.415   6.536  10.961  0.2566 -1.2849 -2.3553
17152TIP3   OH272946   0.494   4.711   2.185  0.2994 -0.6777  0.4020
17152TIP3    H172947   0.541   4.731   2.266 -1.6187  1.0199  1.1713
17152TIP3    H272948   0.486   4.795   2.140 -1.4618 -1.0080  0.0311
17153TIP3   OH272949   1.936   4.684   2.963 -0.2010 -0.0323  0.0571
17153TIP3    H172950   1.892   4.719   2.886 -0.0906 -0.8611 -0.3860
17153TIP3    H272951   1.865   4.662   3.024 -0.3033  0.3243  0.0675
17154TIP3   OH272952   0.645   6.052   5.604 -0.0121  0.1571 -0.0109
17154TIP3    H172953   0.674   6.078   5.692 -0.2886  2.0233 -0.4248
17154TIP3    H272954   0.717   6.078   5.547 -0.7222  0.9775 -0.5640
17155TIP3   OH272955   5.380   5.168   0.228 -0.1535  0.0055 -0.2875
17155TIP3    H172956   5.322   5.116   0.173 -1.4257 -0.3526  1.3115
17155TIP3    H272957   5.437   5.103   0.270 -1.3081 -0.0880  1.2095
17156TIP3   OH272958   5.198   0.014  16.925 -0.3094  0.0031  0.2859
17156TIP3    H172959   5.181  -0.066  16.974 -1.6249  0.2174  0.2158
17156TIP3    H272960   5.292   0.011  16.905 -0.1549 -1.0434  1.0999
17157TIP3   OH272961   4.557   0.043   1.092  0.6083  0.2959 -0.4853
17157TIP3    H172962   4.652   0.034   1.101  0.5041  0.2805  0.8421
17157TIP3    H272963   4.544   0.075   1.003  1.7744 -0.9136 -1.1374
17158TIP3   OH272964   3.535   4.813  13.702  0.0163  0.9459 -0.0359
17158TIP3    H172965   3.458   4.766  13.670  0.1974  0.1919  0.6063
17158TIP3    H272966   3.537   4.894  13.650 -0.0618  0.0672 -1.4646
17159TIP3   OH272967   5.743   6.532  12.649  0.2551  0.0994  0.3188
17159TIP3    H172968   5.711   6.455  12.602 -1.3080  0.4157  0.7822
17159TIP3    H272969   5.696   6.605  12.610  1.0719  0.7166  0.4697
17160TIP3   OH272970   2.244   1.888  12.642  0.7510 -0.0834  0.3412
17160TIP3    H172971   2.185   1.913  12.713  0.2082  0.1836 -0.1954
17160TIP3    H272972   2.242   1.963  12.582 -0.3651 -1.0762 -0.9414
17161TIP3   OH272973   3.796   3.901  13.053  0.2728  0.2576 -0.3163
17161TIP3    H172974   3.872   3.844  13.038  0.1163 -0.2317  0.6860
17161TIP3    H272975   3.789   3.908  13.148 -1.7235 -0.8114 -0.3226
17162TIP3   OH272976   4.262   3.537   0.477 -0.2850 -0.0780  0.8077
17162TIP3    H172977   4.181   3.507   0.518 -0.4190 -2.4299 -0.9866
17162TIP3    H272978   4.241   3.624   0.443 -0.8154  0.9872  3.6403
17163TIP3   OH272979   6.632   6.595   4.060 -1.2169  0.1045  0.1978
17163TIP3    H172980   6.715   6.586   4.106 -0.6265 -1.9296 -1.1036
17163TIP3    H272981   6.587   6.511   4.076 -1.9113  0.1990 -1.1216
17164TIP3   OH272982   0.157   2.820   5.520  0.3967 -0.1998  1.0289
17164TIP3    H172983   0.175   2.906   5.481 -0.2500 -0.1234  0.8818
17164TIP3    H272984   0.077   2.833   5.570 -0.8755 -1.1896 -0.6486
17165TIP3   OH272985   4.663   0.102   2.003 -0.2376 -0.0755  0.4213
17165TIP3    H172986   4.574   0.069   2.016 -0.3294  0.4521  1.2142
17165TIP3    H272987   4.656   0.164   1.931 -0.5196 -0.0498  0.4713
17166TIP3   OH272988   3.398   6.049   4.541 -0.1595 -0.0768  0.1468
17166TIP3    H172989   3.416   5.955   4.531  2.8223  0.5809 -1.8739
17166TIP3    H272990   3.307   6.059   4.514 -0.8284 -2.4521  1.2207
17167TIP3   OH272991   4.176   3.510  12.715  0.3780 -0.0329  0.3923
17167TIP3    H172992   4.227   3.434  12.741 -1.4643 -1.6888 -0.5887
17167TIP3    H272993   4.234   3.585  12.733  2.8441 -1.7134  0.0168
17168TIP3   OH272994   3.416   0.977   6.519 -0.3539 -0.4458 -0.0506
17168TIP3    H172995   3.412   0.914   6.590 -2.1152 -0.1302  0.1884
17168TIP3    H272996   3.392   1.060   6.560 -0.1381 -0.0206 -0.7682
17169TIP3   OH272997   6.315   1.318  15.948 -0.2768 -0.1779  0.6027
17169TIP3    H172998   6.359   1.235  15.930 -0.5018 -0.4055  1.0911
17169TIP3    H272999   6.362   1.382  15.895  0.5731 -0.4311  1.0321
17170TIP3   OH273000   0.586   6.243   2.811  0.0371 -0.4838 -0.5314
17170TIP3    H173001   0.560   6.328   2.778 -0.2371 -0.4687 -0.2826
17170TIP3    H273002   0.680   6.236   2.792 -0.2664 -0.7955 -2.0061
17171TIP3   OH273003   1.105   1.832  13.662 -0.2698 -0.2281 -0.0672
17171TIP3    H173004   1.197   1.805  13.663 -0.2023 -0.0142  0.9335
17171TIP3    H273005   1.056   1.750  13.656 -0.0263 -0.4007  0.2700
17172TIP3   OH273006   2.181   3.707   1.758  0.7687  0.0101 -0.0926
17172TIP3    H173007   2.130   3.631   1.731  2.1250 -0.8522 -0.3022
17172TIP3    H273008   2.210   3.747   1.676 -1.6652  2.0402 -0.0762
17173TIP3   OH273009   1.918   6.008   5.959  0.0856  0.2096 -0.1058
17173TIP3    H173010   1.902   5.918   5.989 -0.0809  1.3667  3.8376
17173TIP3    H273011   2.002   6.004   5.915  0.7590 -1.7062  1.2312
17174TIP3   OH273012   2.215   6.476   2.742  0.6518  0.0375 -0.0056
17174TIP3    H173013   2.220   6.525   2.824 -1.0498  0.5929 -0.1948
17174TIP3    H273014   2.127   6.437   2.742  1.4561 -1.8885 -0.5184
17175TIP3   OH273015   1.219   4.011   3.528 -0.4525 -0.1329 -0.3689
17175TIP3    H173016   1.298   3.997   3.476 -0.9127  0.4534 -1.2424
17175TIP3    H273017   1.150   4.026   3.464 -0.8448  1.6471  0.4071
17176TIP3   OH273018   5.513   1.854   1.624  0.1037  0.3067  0.1858
17176TIP3    H173019   5.466   1.918   1.678 -1.4511  0.0828 -0.8415
17176TIP3    H273020   5.588   1.902   1.590 -0.7681  1.4581 -0.1783
17177TIP3   OH273021   1.709   5.466  13.063 -0.0947  0.2596 -0.5310
17177TIP3    H173022   1.798   5.481  13.030 -0.2816 -0.3417 -1.3412
17177TIP3    H273023   1.652   5.497  12.992 -0.5681  1.6511  0.4151
17178TIP3   OH273024   1.542   1.966  16.493 -0.5399 -0.4005 -0.8210
17178TIP3    H173025   1.509   2.054  16.478 -0.6182 -0.0676  1.0912
17178TIP3    H273026   1.628   1.979  16.532 -1.1756 -1.1165  0.8936
17179TIP3   OH273027   1.206   2.502   3.925 -0.0690 -0.1566 -0.2927
17179TIP3    H173028   1.212   2.537   3.836 -1.0809  0.2348 -0.2123
17179TIP3    H273029   1.169   2.414   3.915 -2.9960  0.9536 -0.0769
17180TIP3   OH273030   2.544   6.792  12.242 -0.4458 -0.1443 -0.6198
17180TIP3    H173031   2.538   6.843  12.323  0.2333  0.0415 -0.6785
17180TIP3    H273032   2.462   6.807  12.197 -0.3953  0.6055 -0.4652
17181TIP3   OH273033   0.694   6.029  14.317  0.1569  0.1659 -0.3300
17181TIP3    H173034   0.740   6.112  14.303  0.6442 -0.1836 -0.8365
17181TIP3    H273035   0.761   5.962  14.306 -0.3625 -0.3285 -0.5506
17182TIP3   OH273036   3.501   3.252  14.012  0.0456  0.2207 -0.3088
17182TIP3    H173037   3.527   3.205  13.933  0.3932  0.9057 -0.6139
17182TIP3    H273038   3.578   3.303  14.037 -0.1219  0.1671  0.3640
17183TIP3   OH273039   1.222   3.772   4.862  0.1896 -0.5934 -0.1558
17183TIP3    H173040   1.173   3.837   4.913  0.5687 -0.6680  0.3037
17183TIP3    H273041   1.163   3.696   4.857  0.2607 -0.6866  0.4027
17184TIP3   OH273042   4.600   4.086   1.689  0.0263 -0.6764 -0.2176
17184TIP3    H173043   4.549   4.007   1.708  1.6562 -1.4632  1.0823
17184TIP3    H273044   4.649   4.103   1.769  0.8940  0.7689 -1.0117
17185TIP3   OH273045   5.025   1.106   4.777  0.1286 -0.7853  0.4508
17185TIP3    H173046   4.960   1.111   4.707  0.4540 -0.0546  0.1947
17185TIP3    H273047   5.065   1.019   4.765  0.0288 -0.7592 -0.1377
17186TIP3   OH273048   2.192   0.435  14.280 -0.4174 -0.0537 -0.4055
17186TIP3    H173049   2.180   0.512  14.335 -1.9951  0.0839 -0.9083
17186TIP3    H273050   2.254   0.380  14.329  2.3268  2.3282 -0.9312
17187TIP3   OH273051   5.642   0.410   4.976  0.2954  0.0440  0.4952
17187TIP3    H173052   5.596   0.491   4.954  0.1312 -0.0619  0.4465
17187TIP3    H273053   5.668   0.421   5.068 -0.2949 -0.1158  0.6850
17188TIP3   OH273054   4.809   3.470   1.562 -0.1596  0.8024 -0.7180
17188TIP3    H173055   4.878   3.404   1.557  0.1543  1.1682 -1.2383
17188TIP3    H273056   4.744   3.432   1.623  1.6168  1.4747  1.7497
17189TIP3   OH273057   5.416   1.688   5.065 -0.1480 -0.2697 -0.0654
17189TIP3    H173058   5.444   1.769   5.023  0.3500 -0.3799  0.0469
17189TIP3    H273059   5.385   1.715   5.152 -0.6799 -0.1121 -0.2953
17190TIP3   OH273060   3.423   4.280  15.305  0.4037  0.1323 -0.4853
17190TIP3    H173061   3.453   4.343  15.371  1.3922  0.9730 -1.6777
17190TIP3    H273062   3.345   4.320  15.267 -0.7551 -0.8251  0.8334
17191TIP3   OH273063   4.250   3.666   4.540  0.4917  0.0489 -0.0379
17191TIP3    H173064   4.312   3.710   4.599  1.6054 -3.3150  1.5614
17191TIP3    H273065   4.164   3.688   4.575  0.8428  2.4482 -0.5198
17192TIP3   OH273066   1.487   6.591  14.697  0.1214 -0.0431 -0.4557
17192TIP3    H173067   1.392   6.578  14.702  0.1722 -0.0167  1.3328
17192TIP3    H273068   1.501   6.678  14.734  1.0920 -1.4926  3.0209
17193TIP3   OH273069   2.988   2.139   4.820  0.0579  0.1867 -0.0674
17193TIP3    H173070   2.909   2.183   4.851 -0.6227  0.5962 -2.2092
17193TIP3    H273071   3.046   2.210   4.793  0.5747 -0.1455  0.1534
17194TIP3   OH273072   0.557   2.937   0.450  0.1132  0.0181 -0.3519
17194TIP3    H173073   0.565   2.906   0.540 -1.9909 -0.6764 -0.3550
17194TIP3    H273074   0.614   2.879   0.399  0.4694 -0.2746  0.3677
17195TIP3   OH273075   0.018   2.901   1.046  0.1063  0.0257 -0.2357
17195TIP3    H173076   0.010   2.977   0.989  0.1771  1.2882  1.3784
17195TIP3    H273077  -0.048   2.839   1.013 -0.6738  1.1901 -0.9199
17196TIP3   OH273078   2.113   3.831  17.268  0.9747 -0.2308  0.1715
17196TIP3    H173079   2.032   3.801  17.307  0.8702  1.2005  1.1088
17196TIP3    H273080   2.109   3.801  17.177  0.0417 -1.3446  0.5649
17197TIP3   OH273081   2.763   6.693  14.167 -0.2059  0.0343 -0.7310
17197TIP3    H173082   2.848   6.710  14.127  1.0296 -1.3534  1.1119
17197TIP3    H273083   2.737   6.608  14.130  0.6463 -0.9508  0.8438
17198TIP3   OH273084   2.104   3.516   5.283  0.2773  0.0971 -0.4013
17198TIP3    H173085   2.112   3.557   5.196  1.7332 -0.9488 -0.8016
17198TIP3    H273086   2.137   3.582   5.344  0.0389  0.5226 -0.7245
17199TIP3   OH273087   5.518   3.544  12.450 -0.1885 -0.7267  0.0366
17199TIP3    H173088   5.537   3.507  12.364  0.0709 -0.8662  0.1547
17199TIP3    H273089   5.566   3.627  12.453 -2.6856  0.8969 -1.1903
17200TIP3   OH273090   0.990   0.610   3.968  0.2252  0.0505 -0.1380
17200TIP3    H173091   0.961   0.697   3.939  1.3659  0.3640 -0.3679
17200TIP3    H273092   1.076   0.624   4.005  0.2367 -0.9243  0.2454
17201TIP3   OH273093   2.545   4.158   1.874 -0.3618 -0.0136 -0.0455
17201TIP3    H173094   2.597   4.107   1.935  1.4461 -1.4431 -2.6291
17201TIP3    H273095   2.503   4.094   1.817 -1.9783  1.2537 -0.3791
17202TIP3   OH273096   0.500   0.550   6.125 -0.2039 -0.2635 -0.3422
17202TIP3    H173097   0.533   0.616   6.064 -2.7832 -0.0962 -1.6807
17202TIP3    H273098   0.571   0.487   6.134  0.9246  0.7083 -2.0329
17203TIP3   OH273099   4.110   2.606  11.712  0.4843  0.2650  0.1929
17203TIP3    H173100   4.112   2.516  11.680  0.4177 -0.3693  1.8816
17203TIP3    H273101   4.022   2.637  11.689  0.2878 -0.3069  0.1516
17204TIP3   OH273102   1.745   5.773   4.368 -0.5475 -0.1722 -0.0868
17204TIP3    H173103   1.658   5.743   4.391 -0.2861 -0.3410  0.7033
17204TIP3    H273104   1.798   5.757   4.446  0.4344 -1.0203 -0.8855
17205TIP3   OH273105   6.496   2.839   6.010  0.4947  0.0398 -0.8837
17205TIP3    H173106   6.582   2.880   6.013  0.0133  1.1343 -1.5245
17205TIP3    H273107   6.501   2.777   5.937  1.9586 -2.8658  1.4738
17206TIP3   OH273108   3.021   3.272  15.858  0.6369  0.0284 -0.1830
17206TIP3    H173109   2.939   3.319  15.871 -0.7039 -2.2522  0.1835
17206TIP3    H273110   3.037   3.226  15.940  1.8427 -0.2437 -0.5333
17207TIP3   OH273111   5.902   0.900  12.984 -0.4803  0.2637  0.0622
17207TIP3    H173112   5.969   0.834  12.966  0.3442  0.4500  2.1487
17207TIP3    H273113   5.820   0.860  12.957  0.1131 -1.2597  0.4471
17208TIP3   OH273114   0.809   2.778   5.884  0.4839 -0.1575 -0.1773
17208TIP3    H173115   0.806   2.695   5.837  3.2233 -0.6649  0.3342
17208TIP3    H273116   0.846   2.756   5.970  0.2786  1.4388  0.3679
17209TIP3   OH273117   0.266   1.617   0.222  0.2223  0.2086  0.3262
17209TIP3    H173118   0.283   1.566   0.143 -0.3787  0.5771 -0.0488
17209TIP3    H273119   0.335   1.682   0.224 -0.3267  0.8409 -0.4564
17210TIP3   OH273120   1.251   2.522  12.792 -0.6067  0.5725 -0.3887
17210TIP3    H173121   1.169   2.533  12.840 -1.0148  1.6938 -1.3056
17210TIP3    H273122   1.313   2.578  12.838 -0.2497 -0.5121  0.4907
17211TIP3   OH273123   1.290   6.169   2.785  0.0517 -0.2389 -0.0126
17211TIP3    H173124   1.229   6.237   2.758 -1.1630 -1.2291  0.1256
17211TIP3    H273125   1.374   6.213   2.794 -0.3981  0.9444 -1.3298
17212TIP3   OH273126   2.348   0.920  10.645  0.8569 -0.6344 -0.1368
17212TIP3    H173127   2.343   0.983  10.716  1.1235 -1.3044  0.4926
17212TIP3    H273128   2.435   0.934  10.607 -0.1254  1.2744 -1.8327
17213TIP3   OH273129   0.307   2.894  14.908 -0.4081  0.2565  0.4699
17213TIP3    H173130   0.263   2.839  14.974 -0.4964 -1.8582 -1.2182
17213TIP3    H273131   0.293   2.847  14.825  0.4714  2.3332 -0.9354
17214TIP3   OH273132   1.672   5.612   0.789  0.2628 -0.4124  0.3027
17214TIP3    H173133   1.744   5.577   0.738 -0.3732 -0.8671 -0.2971
17214TIP3    H273134   1.604   5.544   0.785 -0.6282  0.4761 -0.0868
17215TIP3   OH273135   1.465   0.052  12.826 -0.0437  0.3435  0.3955
17215TIP3    H173136   1.372   0.073  12.825 -0.1475 -0.1200 -0.6911
17215TIP3    H273137   1.472  -0.029  12.776  0.6556 -0.9232  2.4242
17216TIP3   OH273138   2.226   2.780   6.562  0.5837  0.5409  0.0249
17216TIP3    H173139   2.137   2.781   6.527  0.0133  0.2056  1.4225
17216TIP3    H273140   2.253   2.872   6.562  0.0768  0.6891  0.0127
17217TIP3   OH273141   0.890   0.159   2.577  0.0451  0.2526  0.1295
17217TIP3    H173142   0.902   0.192   2.488  1.4383  0.1222  0.2457
17217TIP3    H273143   0.967   0.103   2.592 -0.5401 -0.3000  1.1531
17218TIP3   OH273144   1.543   0.219  11.487  0.4064  0.0096  0.3290
17218TIP3    H173145   1.541   0.256  11.399  0.5085 -1.3584 -0.2686
17218TIP3    H273146   1.628   0.174  11.492  0.6878  0.6361  1.3654
17219TIP3   OH273147   0.085   1.987   0.807 -0.3070  0.1529  0.0041
17219TIP3    H173148   0.070   2.036   0.888 -0.0141 -0.0266  0.1702
17219TIP3    H273149  -0.000   1.982   0.765 -0.3190  0.9149 -0.0736
17220TIP3   OH273150   3.806   2.803   2.886  0.0211  0.5493  0.5890
17220TIP3    H173151   3.803   2.818   2.981  4.0303  1.1887  0.7754
17220TIP3    H273152   3.834   2.712   2.877 -1.4609  0.1225 -0.0984
17221TIP3   OH273153   3.837   3.730   5.001  0.0798 -0.0268  0.3457
17221TIP3    H173154   3.927   3.708   5.025  0.2724  0.8119  0.4434
17221TIP3    H273155   3.813   3.801   5.061  0.0260  1.0704 -0.9291
17222TIP3   OH273156   2.050   2.431  14.771 -0.0648 -0.0462 -0.3533
17222TIP3    H173157   2.095   2.433  14.855 -0.4277  0.7694 -0.1703
17222TIP3    H273158   2.061   2.341  14.740  0.5946 -0.1925  0.2772
17223TIP3   OH273159   0.349   0.254  15.095 -0.4627 -0.2836  0.4131
17223TIP3    H173160   0.379   0.225  15.008  0.4030  0.9584  0.2753
17223TIP3    H273161   0.423   0.237  15.153 -0.9797 -0.9558  0.8911
17224TIP3   OH273162   2.953   6.540  13.189  0.1334  0.0599 -0.4203
17224TIP3    H173163   2.947   6.577  13.277 -1.1250 -2.6905  0.7792
17224TIP3    H273164   3.046   6.519  13.178  0.1777 -0.3766  0.6509
17225TIP3   OH273165   2.621   1.595   0.059 -0.4627  1.2614  0.2467
17225TIP3    H173166   2.669   1.550   0.128 -1.3355  0.3401  0.2824
17225TIP3    H273167   2.529   1.577   0.078 -0.6955 -0.6262 -2.1855
17226TIP3   OH273168   6.150   6.095   5.191  0.0365  0.1982 -0.8891
17226TIP3    H173169   6.112   6.113   5.106 -0.4597  0.6507 -0.5769
17226TIP3    H273170   6.075   6.091   5.251  0.5151  1.9190 -0.1133
17227TIP3   OH273171   1.234   0.776   1.120 -0.4944  0.3823  0.2864
17227TIP3    H173172   1.305   0.726   1.079 -1.4475 -0.3547 -0.4965
17227TIP3    H273173   1.216   0.847   1.058 -0.3710  0.6363  0.5387
17228TIP3   OH273174   0.769   0.789   3.383 -0.8800  0.3824 -0.2091
17228TIP3    H173175   0.820   0.871   3.382 -0.0520 -0.0823 -2.1937
17228TIP3    H273176   0.763   0.766   3.475  0.0488  1.9749  0.3020
17229TIP3   OH273177   6.257   3.239   2.097  0.4955 -0.6277  0.0069
17229TIP3    H173178   6.193   3.303   2.067  1.1996  0.1764  0.1696
17229TIP3    H273179   6.302   3.209   2.018 -0.1844 -1.3312 -0.1283
17230TIP3   OH273180   5.700   6.086   1.574  0.4557 -0.0262  0.3857
17230TIP3    H173181   5.790   6.073   1.606 -0.2092 -0.9869  2.0046
17230TIP3    H273182   5.649   6.101   1.654 -0.8040  0.6957 -0.5299
17231TIP3   OH273183   3.195   2.369   0.209  0.2671  0.5386 -0.1865
17231TIP3    H173184   3.288   2.388   0.227 -0.5336  3.6141  1.5421
17231TIP3    H273185   3.174   2.423   0.133 -0.3548  0.7317  0.1164
17232TIP3   OH273186   3.754   2.368   6.000 -0.0359  0.2008 -0.7299
17232TIP3    H173187   3.742   2.358   6.094  1.0578  0.5985 -0.5298
17232TIP3    H273188   3.668   2.396   5.967 -0.5786 -0.4984  0.0522
17233TIP3   OH273189   0.248   3.119   3.899 -0.8719 -0.2369  0.5726
17233TIP3    H173190   0.263   3.024   3.895  1.2091  0.0469  0.4518
17233TIP3    H273191   0.173   3.133   3.841 -0.0199 -1.6253 -0.9893
17234TIP3   OH273192   0.336   4.147   1.332  0.0549 -0.3026 -0.1266
17234TIP3    H173193   0.240   4.153   1.329  0.1186  0.4908 -0.8558
17234TIP3    H273194   0.353   4.060   1.370 -0.9610 -1.8775 -2.9781
17235TIP3   OH273195   0.607   0.331  14.028  0.4055 -0.1093  0.1936
17235TIP3    H173196   0.674   0.317  14.095  1.1966  2.0618 -0.0875
17235TIP3    H273197   0.533   0.276  14.056  1.5744 -1.0639  1.5399
17236TIP3   OH273198   3.276   5.679  11.775 -0.3612 -0.1150  0.7714
17236TIP3    H173199   3.208   5.716  11.830  0.0569  0.0184  1.2073
17236TIP3    H273200   3.327   5.624  11.834 -1.5311 -2.1808 -0.0474
17237TIP3   OH273201   5.767   0.242   1.820  0.1309 -0.3024  0.8281
17237TIP3    H173202   5.746   0.303   1.750  0.7497  0.7512  1.5366
17237TIP3    H273203   5.682   0.216   1.856 -0.1180  1.2334  1.4193
17238TIP3   OH273204   6.738   6.129  12.187  0.2951 -0.2461 -0.1340
17238TIP3    H173205   6.642   6.129  12.194  0.2944  2.3505  0.8382
17238TIP3    H273206   6.757   6.178  12.108  0.7835  2.1040  1.3461
17239TIP3   OH273207   2.435   2.380   5.394 -0.3658 -0.1696 -0.3741
17239TIP3    H173208   2.473   2.341   5.472 -1.0669 -0.3134 -0.0937
17239TIP3    H273209   2.347   2.343   5.389 -0.6300  0.4788 -0.7602
17240TIP3   OH273210   1.172   4.748   4.785 -0.4129  0.1253 -0.4847
17240TIP3    H173211   1.080   4.724   4.788 -0.8617  1.7229 -0.4564
17240TIP3    H273212   1.196   4.741   4.692 -0.3744 -0.9150 -0.4011
17241TIP3   OH273213   0.584   4.347  17.032 -0.0861  0.1632 -0.3859
17241TIP3    H173214   0.624   4.264  17.058 -0.4990  0.1415  0.2026
17241TIP3    H273215   0.503   4.322  16.987 -0.0885  0.2381 -0.4231
17242TIP3   OH273216   5.654   4.201   1.231  0.4394 -0.0017  0.1004
17242TIP3    H173217   5.567   4.182   1.197 -0.4392  1.0809  1.6593
17242TIP3    H273218   5.672   4.130   1.293  0.4766  0.0235  0.1184
17243TIP3   OH273219   2.671   2.869  16.616  0.1830  0.1822 -1.0157
17243TIP3    H173220   2.591   2.836  16.574 -0.7033  0.2024  0.5726
17243TIP3    H273221   2.720   2.791  16.640  0.2494  0.1473 -1.2644
17244TIP3   OH273222   1.078   4.725   4.283  0.5043  0.4044 -0.0533
17244TIP3    H173223   1.045   4.753   4.369 -1.3093 -0.7943 -0.3161
17244TIP3    H273224   1.119   4.640   4.300  1.0346  0.6249 -0.2119
17245TIP3   OH273225   6.123   5.711   1.600  0.1331  0.3652 -0.1575
17245TIP3    H173226   6.090   5.621   1.598  0.0289  0.4100 -1.3049
17245TIP3    H273227   6.164   5.720   1.685 -0.5651 -0.5183  0.2921
17246TIP3   OH273228   6.239   4.607   2.885 -0.5627  0.0192  0.1224
17246TIP3    H173229   6.201   4.530   2.929 -1.6527  1.4376  1.7773
17246TIP3    H273230   6.331   4.606   2.910 -0.4495 -1.0139 -0.2887
17247TIP3   OH273231   5.111   5.747  12.903  0.1404  0.4024 -0.2804
17247TIP3    H173232   5.078   5.758  12.992  0.3560  0.2700 -0.1815
17247TIP3    H273233   5.206   5.754  12.913  0.2042 -0.2759 -0.3991
17248TIP3   OH273234   0.004   5.834  16.720 -0.0651 -0.0153  0.0652
17248TIP3    H173235   0.100   5.830  16.717  0.2186  2.6237  2.1247
17248TIP3    H273236  -0.020   5.892  16.648  0.0236  0.6609  0.5816
17249TIP3   OH273237   6.424   6.429  16.327  0.5016  0.5010 -0.0181
17249TIP3    H173238   6.506   6.463  16.290 -0.3332  2.4261 -0.2370
17249TIP3    H273239   6.384   6.382  16.254  1.0565  0.1792 -0.1281
17250TIP3   OH273240   0.671   1.026  15.201  0.1976  0.1882 -0.2288
17250TIP3    H173241   0.587   1.072  15.195  0.6554  1.0162 -0.3335
17250TIP3    H273242   0.655   0.942  15.156 -0.8043 -0.0171  0.4639
17251TIP3   OH273243   2.863   1.938   5.025 -0.4096 -0.4004  0.0550
17251TIP3    H173244   2.887   2.020   4.982 -3.3489  0.0869 -0.8333
17251TIP3    H273245   2.916   1.937   5.105  3.5447 -0.2310 -2.3036
17252TIP3   OH273246   1.575   2.796   2.546 -0.2756 -0.2896  0.3435
17252TIP3    H173247   1.544   2.800   2.637 -0.7148 -1.5696  0.2762
17252TIP3    H273248   1.496   2.802   2.493 -0.0522  0.1093  0.0485
17253TIP3   OH273249   3.110   0.838  13.747  0.0832 -0.2335  0.3145
17253TIP3    H173250   3.140   0.835  13.656 -1.1151  2.4754 -0.2629
17253TIP3    H273251   3.019   0.808  13.743 -0.0454  0.1208  0.5919
17254TIP3   OH273252   4.522   4.397  14.774  0.1533  0.3993  0.0349
17254TIP3    H173253   4.504   4.354  14.691  1.5881 -0.8512  0.3247
17254TIP3    H273254   4.617   4.401  14.779  0.0798  2.6686  0.5394
17255TIP3   OH273255   6.721   4.035   3.238 -0.4752  0.3854 -0.4116
17255TIP3    H173256   6.702   4.097   3.308 -0.4462  1.2029 -1.0993
17255TIP3    H273257   6.776   4.084   3.177  2.0642 -1.2233  0.4274
17256TIP3   OH273258   1.306   1.409   1.932 -0.0151 -0.0253  0.0966
17256TIP3    H173259   1.339   1.451   1.852  0.9329 -0.9987 -0.0531
17256TIP3    H273260   1.243   1.345   1.901 -1.3122  1.1041  0.3116
17257TIP3   OH273261   2.341   1.897   0.734  0.7709  0.6904 -0.1952
17257TIP3    H173262   2.363   1.968   0.793  2.3794 -0.5807  0.8126
17257TIP3    H273263   2.261   1.859   0.770  0.9304  0.8393  0.3134
17258TIP3   OH273264   3.475   2.998  10.866 -0.2310  0.3651 -0.8491
17258TIP3    H173265   3.552   2.970  10.816  0.6501  1.3542 -0.1059
17258TIP3    H273266   3.499   2.982  10.957 -1.5204 -0.7066 -0.6650
17259TIP3   OH273267   3.208   6.506   2.730 -0.4149  0.3440  0.0103
17259TIP3    H173268   3.299   6.517   2.700 -0.9568  1.7039 -1.2305
17259TIP3    H273269   3.215   6.501   2.825  1.1111 -1.3758 -0.1364
17260TIP3   OH273270   1.366   4.611   1.206 -0.0031 -1.0287  0.4126
17260TIP3    H173271   1.274   4.588   1.194 -0.9024  2.4268 -0.3064
17260TIP3    H273272   1.367   4.673   1.279  1.6453 -0.4217 -0.0676
17261TIP3   OH273273   0.876   4.637  16.365 -0.3444  0.1987 -0.0489
17261TIP3    H173274   0.833   4.624  16.280 -0.8613 -1.4051  0.4209
17261TIP3    H273275   0.813   4.689  16.416 -0.5200  0.2028 -0.2698
17262TIP3   OH273276   5.398   1.709   3.144 -0.2494 -0.2921 -0.3203
17262TIP3    H173277   5.387   1.630   3.196  0.2236 -0.4390 -0.4358
17262TIP3    H273278   5.449   1.680   3.068  0.7720  0.3183  0.1198
17263TIP3   OH273279   3.070   2.112   4.456  0.3200 -0.1631  0.5699
17263TIP3    H173280   3.086   2.199   4.419  1.5415 -1.0413 -1.1339
17263TIP3    H273281   3.086   2.052   4.383  3.7090 -2.0874  2.6007
17264TIP3   OH273282   2.426   4.582  13.864 -0.2273 -0.6173 -0.3784
17264TIP3    H173283   2.340   4.565  13.825 -1.1400  1.0516  0.7503
17264TIP3    H273284   2.422   4.675  13.890  1.7683 -0.6147  0.0897
17265TIP3   OH273285   4.924   2.970   1.140  0.4389 -0.1005  0.3170
17265TIP3    H173286   4.968   3.020   1.208 -0.2127 -0.1974  0.8126
17265TIP3    H273287   4.846   2.935   1.182 -0.5301  0.7168 -0.7595
17266TIP3   OH273288   0.523   2.294  11.584  0.0114  0.2236 -0.2453
17266TIP3    H173289   0.598   2.313  11.528  1.3653  0.5315  1.5835
17266TIP3    H273290   0.540   2.343  11.665 -2.0753  0.1440  0.3068
17267TIP3   OH273291   6.386   2.385   3.101 -0.0832  0.3602  0.9179
17267TIP3    H173292   6.427   2.366   3.185  0.5541 -0.5016  0.4327
17267TIP3    H273293   6.459   2.385   3.038 -0.7744 -1.1113  0.0498
17268TIP3   OH273294   6.005   4.613   4.088 -0.1964 -0.4195  0.4823
17268TIP3    H173295   5.924   4.656   4.118  0.7480 -0.0588  2.7507
17268TIP3    H273296   5.975   4.537   4.038 -2.1228 -2.2916  4.0765
17269TIP3   OH273297   3.078   2.238  15.543 -0.5395 -0.2108 -0.4519
17269TIP3    H173298   3.120   2.191  15.472 -1.1055  0.5539 -1.3101
17269TIP3    H273299   3.021   2.173  15.585 -1.0400 -0.3919 -1.3958
17270TIP3   OH273300   2.283   1.461   1.078 -0.0422  0.2890  0.6169
17270TIP3    H173301   2.189   1.466   1.062  0.0138  0.2918  0.2889
17270TIP3    H273302   2.319   1.539   1.037  0.1444  0.1090  0.4305
17271TIP3   OH273303   5.162   2.202  12.970 -0.1610 -0.2538  0.2827
17271TIP3    H173304   5.127   2.281  12.929  1.4517  1.0905  1.3493
17271TIP3    H273305   5.230   2.171  12.910 -2.4183 -2.3551 -1.3573
17272TIP3   OH273306   4.744   2.775  11.786  0.4033  0.1526  0.0573
17272TIP3    H173307   4.793   2.857  11.790  0.5128  0.1303 -0.7145
17272TIP3    H273308   4.758   2.742  11.697 -0.4628 -0.1977  0.0346
17273TIP3   OH273309   3.309   1.210  15.241 -0.4711  0.4883  0.1552
17273TIP3    H173310   3.273   1.174  15.159  0.0522  1.7572 -0.6658
17273TIP3    H273311   3.374   1.274  15.212  0.7997 -0.1095  1.6059
17274TIP3   OH273312   1.535   6.237  12.226 -0.5364 -0.2043 -0.3320
17274TIP3    H173313   1.602   6.302  12.247 -1.3948  0.4016  0.5771
17274TIP3    H273314   1.516   6.252  12.133  0.6290 -0.4501 -0.6351
17275TIP3   OH273315   0.899   0.888  10.747 -0.1464  0.3888  0.2044
17275TIP3    H173316   0.834   0.819  10.761  0.9303 -0.6553  0.1798
17275TIP3    H273317   0.859   0.946  10.682 -0.3826 -1.1525 -1.0815
17276TIP3   OH273318   5.312   6.409  14.824 -0.6096  0.2478  0.0837
17276TIP3    H173319   5.279   6.443  14.741  0.5356 -0.5764 -0.7434
17276TIP3    H273320   5.309   6.314  14.813  0.4293  0.1461  0.6115
17277TIP3   OH273321   4.694   6.184  11.577  0.0272 -0.5055 -0.3117
17277TIP3    H173322   4.599   6.171  11.586 -0.3491  0.3257 -2.5595
17277TIP3    H273323   4.732   6.121  11.639 -1.9826  0.2183  1.8032
17278TIP3   OH273324   5.679   4.641   0.533  0.1594 -0.7038  0.2037
17278TIP3    H173325   5.630   4.607   0.458  1.1296 -1.1376 -0.2379
17278TIP3    H273326   5.680   4.569   0.595 -0.4014 -0.4370  0.5399
17279TIP3   OH273327   0.152   6.124  15.884 -0.2732  0.3566  0.0471
17279TIP3    H173328   0.184   6.213  15.897  1.4951 -0.0900 -0.8921
17279TIP3    H273329   0.061   6.134  15.857  0.1190  1.9123 -0.7724
17280TIP3   OH273330   2.596   2.779   5.174 -0.5115 -0.3896 -0.3585
17280TIP3    H173331   2.667   2.781   5.239  0.3397  2.3414 -1.2224
17280TIP3    H273332   2.640   2.762   5.091 -1.1464 -0.5042 -0.6794
17281TIP3   OH273333   3.149   3.957  16.162 -0.4735  0.5520 -0.0005
17281TIP3    H173334   3.100   3.977  16.242 -0.5693 -2.3014  0.7549
17281TIP3    H273335   3.118   4.022  16.098 -2.4910  1.1451  1.4821
17282TIP3   OH273336   6.482   5.774  12.436 -0.1744  0.1500  0.0957
17282TIP3    H173337   6.448   5.834  12.503 -0.3809 -0.3434  0.4330
17282TIP3    H273338   6.554   5.822  12.396 -1.4658  1.3904 -0.8745
17283TIP3   OH273339   3.060   6.141   5.359 -0.2538 -0.1202  0.4617
17283TIP3    H173340   3.147   6.102   5.349  0.1972  1.0616 -0.5167
17283TIP3    H273341   3.078   6.231   5.387 -1.1911  0.0016  0.7147
17284TIP3   OH273342   1.523   0.491  12.861  0.1727 -0.1461 -0.0536
17284TIP3    H173343   1.540   0.575  12.820 -0.0613  0.5118  1.1497
17284TIP3    H273344   1.428   0.479  12.853  0.3493 -0.8877 -1.2902
17285TIP3   OH273345   2.918   3.383   3.468 -0.2629 -0.1482 -0.4174
17285TIP3    H173346   2.957   3.296   3.477  0.2514  0.1954  1.0328
17285TIP3    H273347   2.900   3.393   3.375  1.3440 -1.0897 -0.8533
17286TIP3   OH273348   2.917   2.466   3.369 -0.0811 -0.8069 -0.6337
17286TIP3    H173349   2.943   2.553   3.338 -1.4714  0.0203  0.3959
17286TIP3    H273350   2.939   2.466   3.462 -2.2353 -0.6115 -0.0596
17287TIP3   OH273351   5.307   4.931   1.113  0.0394  0.6712  0.0749
17287TIP3    H173352   5.247   4.999   1.081  0.3573  0.3932 -1.1375
17287TIP3    H273353   5.254   4.851   1.113 -0.7085  1.0681  2.6600
17288TIP3   OH273354   3.615   0.791   1.624  0.4298  0.1393 -0.3804
17288TIP3    H173355   3.642   0.882   1.608  0.5149  0.3382  0.8073
17288TIP3    H273356   3.587   0.790   1.716  1.0413 -1.1908 -0.1934
17289TIP3   OH273357   1.383   5.113   1.466  0.0545  0.3390  0.0427
17289TIP3    H173358   1.289   5.101   1.457  0.2060  0.2195 -1.7472
17289TIP3    H273359   1.419   5.025   1.471  0.0151  0.3736  2.2100
17290TIP3   OH273360   1.606   1.582  13.387  0.2718  0.0077  0.3981
17290TIP3    H173361   1.615   1.536  13.470 -1.6999 -2.2259 -0.5199
17290TIP3    H273362   1.512   1.600  13.380  0.4617  0.5415 -1.1758
17291TIP3   OH273363   5.747   5.023  14.707 -0.5291 -0.0766 -0.0464
17291TIP3    H173364   5.658   4.988  14.707 -0.4664 -0.2500  0.8164
17291TIP3    H273365   5.743   5.099  14.765  0.1848 -0.8761  1.0876
17292TIP3   OH273366   0.001   3.808  17.292  0.2065  0.2739  0.3166
17292TIP3    H173367   0.030   3.892  17.255 -0.5369  0.5427  0.3298
17292TIP3    H273368  -0.030   3.759  17.216 -0.0287  0.2907  0.4036
17293TIP3   OH273369   3.886   0.074   3.102  0.2475 -0.6329  0.9625
17293TIP3    H173370   3.954   0.131   3.065 -0.1697  0.4044  1.7581
17293TIP3    H273371   3.862   0.116   3.185 -3.6006  0.8087 -0.6672
17294TIP3   OH273372   6.624   1.814   4.878  0.4219 -0.4384 -0.3067
17294TIP3    H173373   6.667   1.744   4.929 -0.3417  0.3950  1.5649
17294TIP3    H273374   6.532   1.809   4.904  0.7847  3.1575  2.3308
17295TIP3   OH273375   1.838   1.655   0.889 -0.0470 -0.0033  0.1485
17295TIP3    H173376   1.837   1.742   0.928 -0.3556  0.0016  0.1340
17295TIP3    H273377   1.786   1.663   0.809 -2.0258 -0.7109  1.2851
17296TIP3   OH273378   0.064   2.077   2.541  0.3170 -0.1076 -0.1725
17296TIP3    H173379   0.100   2.095   2.454  1.7104 -0.7520  0.2438
17296TIP3    H273380   0.140   2.050   2.593  0.1267  3.2529  2.1662
17297TIP3   OH273381   3.323   1.169  11.850  0.4309 -0.3373  0.6387
17297TIP3    H173382   3.374   1.204  11.776  1.0385 -0.1478  1.1409
17297TIP3    H273383   3.387   1.154  11.919 -0.2656  0.4452  1.4884
17298TIP3   OH273384   4.448   2.643  13.347  0.4622  0.2744 -0.6231
17298TIP3    H173385   4.395   2.665  13.424  1.3344  0.8113 -0.1576
17298TIP3    H273386   4.534   2.679  13.367  1.2596 -1.3290 -0.9674
17299TIP3   OH273387   4.712   2.222   2.767 -0.1753  0.1284 -0.1663
17299TIP3    H173388   4.663   2.187   2.693  0.7615 -0.7332 -0.3992
17299TIP3    H273389   4.720   2.316   2.748 -1.4313  0.2379 -0.2721
17300TIP3   OH273390   3.734   5.631   2.791  0.2313 -0.4169  0.7307
17300TIP3    H173391   3.800   5.698   2.809  0.0713  0.7640 -2.5601
17300TIP3    H273392   3.781   5.548   2.800  1.6222  0.3248  0.5190
17301TIP3   OH273393   3.071   5.480  12.996 -0.0044 -0.0118  0.2654
17301TIP3    H173394   3.024   5.529  12.928 -1.0031  0.2986  1.1427
17301TIP3    H273395   3.009   5.411  13.021  0.1357  0.1940  1.2058
17302TIP3   OH273396   6.409   6.138   6.017 -0.2813 -0.5554 -0.1729
17302TIP3    H173397   6.440   6.049   6.035  0.1760 -0.1779  1.0661
17302TIP3    H273398   6.387   6.173   6.104 -0.6027  0.4780 -0.6565
17303TIP3   OH273399   0.368   2.480   2.134  0.7041 -0.2852  0.2497
17303TIP3    H173400   0.368   2.400   2.186  4.2386  1.0792  2.7109
17303TIP3    H273401   0.437   2.466   2.069 -0.2312 -0.0546 -0.8167
17304TIP3   OH273402   5.479   3.607  15.878 -0.3481  0.1117 -0.4010
17304TIP3    H173403   5.527   3.657  15.944 -0.1147  1.0553 -1.2644
17304TIP3    H273404   5.496   3.516  15.901 -1.3807  0.3783  1.6349
17305TIP3   OH273405   3.404   0.222  14.105  0.1710  0.1181  0.2061
17305TIP3    H173406   3.419   0.128  14.114  0.3969  0.0115 -1.0813
17305TIP3    H273407   3.321   0.229  14.058  0.0297  0.5688  0.5162
17306TIP3   OH273408   6.619   4.679   2.076  0.8425 -0.9435  0.2159
17306TIP3    H173409   6.622   4.717   2.164 -1.8434  0.4091 -0.1904
17306TIP3    H273410   6.683   4.731   2.026 -0.8219  1.4251  0.3481
17307TIP3   OH273411   3.203   5.383   2.906 -0.0088  0.1879 -0.1141
17307TIP3    H173412   3.190   5.437   2.983  0.2828 -1.5508  1.2088
17307TIP3    H273413   3.289   5.409   2.872 -0.8443  2.1385 -0.9114
17308TIP3   OH273414   1.259   2.430   3.006 -0.2731 -0.3156 -0.2041
17308TIP3    H173415   1.334   2.466   3.053  0.8189 -1.3337 -1.1018
17308TIP3    H273416   1.260   2.474   2.921 -0.4268 -0.6366 -0.3741
17309TIP3   OH273417   6.031   5.519   4.485 -0.4674 -0.3844  0.0017
17309TIP3    H173418   6.097   5.544   4.550 -1.1902  1.5503  0.0406
17309TIP3    H273419   5.997   5.602   4.451  0.0402 -1.2825 -3.0524
17310TIP3   OH273420   1.842   1.313   0.052  0.2468  0.7571  0.3449
17310TIP3    H173421   1.923   1.357   0.026 -0.2491  1.4900 -0.0054
17310TIP3    H273422   1.803   1.284  -0.031  0.2076  0.2948  0.5209
17311TIP3   OH273423   5.927   1.275   0.687 -0.1449  0.4397 -0.0070
17311TIP3    H173424   5.945   1.287   0.593 -1.7628  0.5100 -0.3397
17311TIP3    H273425   5.952   1.358   0.727  0.4594  0.4485 -0.3894
17312TIP3   OH273426   3.219   1.053   3.175 -0.2714  0.3566 -0.0203
17312TIP3    H173427   3.204   0.977   3.231  0.1799  0.0516 -0.3078
17312TIP3    H273428   3.302   1.090   3.206 -0.9901  1.3509  0.8005
17313TIP3   OH273429   0.794   6.665   4.559 -0.2234  0.1457  0.2483
17313TIP3    H173430   0.779   6.752   4.596  2.2388  1.2261 -1.0413
17313TIP3    H273431   0.890   6.654   4.561 -0.2428 -1.2667 -2.3459
17314TIP3   OH273432   6.455   1.380   4.870 -0.2938 -0.0324 -0.0847
17314TIP3    H173433   6.536   1.417   4.834 -0.4674 -0.4154 -0.8823
17314TIP3    H273434   6.405   1.456   4.899  0.9642  0.1575  1.8048
17315TIP3   OH273435   2.752   2.341   0.033  0.0554 -0.0927 -0.3012
17315TIP3    H173436   2.765   2.247   0.044 -2.9936 -0.8017 -1.7871
17315TIP3    H273437   2.662   2.349   0.002  0.2778  3.3325 -0.3734
17316TIP3   OH273438   5.389   2.595   2.841  0.5925 -0.1834 -0.2001
17316TIP3    H173439   5.364   2.504   2.828  2.1028 -0.7284  0.5411
17316TIP3    H273440   5.397   2.631   2.753 -0.3111 -0.6591 -0.4895
17317TIP3   OH273441   1.792   5.017   2.083 -0.1095 -0.0017  0.4780
17317TIP3    H173442   1.734   4.941   2.092 -2.1434  1.4856  0.6565
17317TIP3    H273443   1.734   5.093   2.091  1.9010  1.6038  0.7088
17318TIP3   OH273444   0.248   1.325  17.004 -0.0753 -0.2531  0.1452
17318TIP3    H173445   0.300   1.247  17.026 -0.9159 -1.8433 -2.9909
17318TIP3    H273446   0.311   1.383  16.960 -0.4063 -1.3621 -1.9301
17319TIP3   OH273447   2.786   1.995   1.101 -0.5535 -0.0372 -0.0724
17319TIP3    H173448   2.826   2.045   1.172  0.0526  0.0749 -0.4798
17319TIP3    H273449   2.718   2.052   1.067 -0.0246  0.4254 -0.3804
17320TIP3   OH273450   6.183   6.158   4.278  0.2677 -0.1330  0.1262
17320TIP3    H173451   6.195   6.134   4.370  0.8340  1.1346  0.4016
17320TIP3    H273452   6.106   6.214   4.277  0.3327 -0.0465 -0.1565
17321TIP3   OH273453   3.331   0.487   2.857  0.3715 -0.0392 -0.3421
17321TIP3    H173454   3.255   0.454   2.905  2.1112 -0.8815  2.0326
17321TIP3    H273455   3.299   0.565   2.811 -1.9870 -0.5867  0.2655
17322TIP3   OH273456   5.343   3.727  11.095  0.3957  0.3142  0.6371
17322TIP3    H173457   5.285   3.684  11.032  0.8774 -0.4078  0.6780
17322TIP3    H273458   5.291   3.731  11.176  0.5083 -0.6236  0.7632
17323TIP3   OH273459   5.154   3.590   3.893  0.2054 -0.1838 -0.6374
17323TIP3    H173460   5.182   3.510   3.849 -0.6087  0.1720 -1.8543
17323TIP3    H273461   5.065   3.605   3.861 -0.4772  0.0305  1.2667
17324TIP3   OH273462   0.451   4.607  13.254 -0.2325 -0.0601  0.1841
17324TIP3    H173463   0.381   4.634  13.313  0.0473  1.7270 -0.2398
17324TIP3    H273464   0.508   4.683  13.248  1.9559 -1.5459  0.7600
17325TIP3   OH273465   2.512   3.082  12.157  0.3505  0.1191 -0.4089
17325TIP3    H173466   2.436   3.026  12.175  1.4793 -1.0041  1.1115
17325TIP3    H273467   2.565   3.078  12.237  0.0786  4.1493  0.1764
17326TIP3   OH273468   0.898   3.383  12.643 -0.2131 -0.1326  0.3290
17326TIP3    H173469   0.894   3.426  12.557 -1.3850 -0.6789  0.0899
17326TIP3    H273470   0.988   3.350  12.648  0.7335  2.2844  0.5277
17327TIP3   OH273471   0.058   3.884   4.114 -0.0874 -0.9470  0.3047
17327TIP3    H173472   0.089   3.794   4.105  0.7454 -0.7454  1.0931
17327TIP3    H273473  -0.036   3.875   4.129 -0.1397 -1.6441 -0.3669
17328TIP3   OH273474   5.321   4.246   3.222 -0.2145  0.0948 -0.3387
17328TIP3    H173475   5.270   4.311   3.173  1.2872  0.4002 -1.5615
17328TIP3    H273476   5.277   4.163   3.205 -1.6211  0.6298  0.5017
17329TIP3   OH273477   5.810   3.562   0.183  0.6414  0.1089  0.2641
17329TIP3    H173478   5.849   3.645   0.210  2.2310 -0.1190 -1.1129
17329TIP3    H273479   5.770   3.580   0.098  1.3589 -0.5821 -0.2447
17330TIP3   OH273480   3.507   3.711  15.980  0.1532 -0.0149 -0.0673
17330TIP3    H173481   3.590   3.706  15.932  0.4691  0.6073  0.3842
17330TIP3    H273482   3.529   3.681  16.068 -0.1734 -0.1463 -0.0301
17331TIP3   OH273483   3.892   4.945   0.003 -0.2246  0.3564 -0.4597
17331TIP3    H173484   3.944   5.024   0.020  0.8922  0.0528 -2.2666
17331TIP3    H273485   3.877   4.907   0.090  2.1665  0.7298  0.1754
17332TIP3   OH273486   0.169   1.412   1.953 -0.5059 -0.4071 -0.2834
17332TIP3    H173487   0.092   1.455   1.990  0.2971 -0.9097  2.1514
17332TIP3    H273488   0.240   1.475   1.966 -0.0857 -0.8252 -0.5105
17333TIP3   OH273489   4.756   5.198   0.011  0.0312  0.0430 -0.0921
17333TIP3    H173490   4.732   5.289   0.030 -0.2745  0.0267 -0.3759
17333TIP3    H273491   4.762   5.156   0.097  0.0168  0.2952  0.0329
17334TIP3   OH273492   3.332   5.942  17.052  0.2740  0.1777  0.1178
17334TIP3    H173493   3.387   5.887  17.107 -0.1544  1.1940  1.6524
17334TIP3    H273494   3.393   5.996  17.001  0.6790 -1.0710 -0.7525
17335TIP3   OH273495   2.468   0.750   1.609 -0.0903 -0.1993  0.0767
17335TIP3    H173496   2.549   0.773   1.562 -0.8949  2.2647 -0.2515
17335TIP3    H273497   2.417   0.700   1.545 -0.4816  1.7214 -1.1896
17336TIP3   OH273498   2.321   5.567  13.576  0.0382  0.4664 -0.1058
17336TIP3    H173499   2.237   5.612  13.565 -1.3228 -1.9219 -0.0489
17336TIP3    H273500   2.332   5.517  13.495  1.2530  0.4654  0.0453
17337TIP3   OH273501   2.392   4.294  13.982  0.0026 -0.0862 -0.1263
17337TIP3    H173502   2.303   4.327  13.995 -0.1944 -0.1282 -1.2380
17337TIP3    H273503   2.384   4.229  13.912  1.1645  1.2705 -1.5990
17338TIP3   OH273504   3.727   4.913  16.178 -0.2330 -0.0855  0.2754
17338TIP3    H173505   3.803   4.857  16.165  1.9337  1.9526  3.0551
17338TIP3    H273506   3.664   4.857  16.224 -0.2537 -1.5922 -1.4419
17339TIP3   OH273507   3.986   4.163  13.340 -0.2614  0.4437  0.6613
17339TIP3    H173508   3.955   4.072  13.345  1.3160 -0.3076 -1.4940
17339TIP3    H273509   3.972   4.188  13.248  1.9319  1.3250  0.5088
17340TIP3   OH273510   0.185   3.830  10.381 -0.1782 -0.4148 -0.5086
17340TIP3    H173511   0.129   3.808  10.456 -0.8324  0.7649 -0.6353
17340TIP3    H273512   0.233   3.749  10.363  0.3198 -0.6019  1.4521
17341TIP3   OH273513   5.091   6.151  15.835  0.2041  0.3777 -0.1281
17341TIP3    H173514   5.085   6.085  15.765 -1.8285 -0.5737  0.8640
17341TIP3    H273515   5.031   6.220  15.807 -0.6116 -0.0050  0.6413
17342TIP3   OH273516   6.165   2.094  16.800  0.5762 -0.2933 -0.2351
17342TIP3    H173517   6.187   2.187  16.807  1.2402 -0.4067 -0.7374
17342TIP3    H273518   6.183   2.072  16.709  0.3067 -0.8920 -0.1474
17343TIP3   OH273519   2.456   4.267   1.632 -0.1605 -0.3382  0.4722
17343TIP3    H173520   2.518   4.302   1.697  0.8389 -1.2200  0.0249
17343TIP3    H273521   2.468   4.172   1.637  0.4799 -0.4018 -1.5073
17344TIP3   OH273522   2.212   6.320   3.804 -0.2058  0.0238 -0.0876
17344TIP3    H173523   2.291   6.266   3.807 -0.5712 -0.5476 -0.4767
17344TIP3    H273524   2.142   6.258   3.781 -0.4762  0.8102 -1.5007
17345TIP3   OH273525   6.560   3.173   4.547 -0.0209  0.3363 -0.5577
17345TIP3    H173526   6.583   3.185   4.639  1.3431 -0.5066 -0.7507
17345TIP3    H273527   6.517   3.087   4.544  1.8090 -0.6159 -0.9609
17346TIP3   OH273528   1.647   2.022  11.200 -0.2137  0.2638 -0.4853
17346TIP3    H173529   1.592   1.960  11.152 -2.4238  2.1537 -0.6293
17346TIP3    H273530   1.660   2.095  11.139  0.1212  1.0486  0.4846
17347TIP3   OH273531   4.393   2.956   3.230 -0.3100  0.1698  0.3555
17347TIP3    H173532   4.454   2.985   3.298  0.2622  0.4239 -0.2540
17347TIP3    H273533   4.413   2.863   3.219  0.0047  0.2606  0.1288
17348TIP3   OH273534   3.230   2.883  15.575 -0.3728 -0.1301 -0.0140
17348TIP3    H173535   3.218   2.938  15.652 -0.7130 -1.5189  0.9667
17348TIP3    H273536   3.289   2.933  15.518  0.5123  0.5993  1.4828
17349TIP3   OH273537   0.493   1.172   5.293  0.4657  0.4437  0.4367
17349TIP3    H173538   0.404   1.136   5.289 -0.1747  1.9721 -0.0410
17349TIP3    H273539   0.490   1.235   5.365  1.2149  0.3802  0.5268
17350TIP3   OH273540   3.153   5.155   5.051  0.6484  0.9256  0.5843
17350TIP3    H173541   3.209   5.115   4.985 -0.0049  0.1178  0.5009
17350TIP3    H273542   3.199   5.141   5.134  0.7940  0.6816  0.4618
17351TIP3   OH273543   2.543   4.257   0.786  0.0294 -0.2659 -0.3505
17351TIP3    H173544   2.490   4.180   0.764 -0.2675 -0.2632  0.3291
17351TIP3    H273545   2.480   4.330   0.788  0.2819 -0.0263 -0.8227
17352TIP3   OH273546   3.735   2.397  11.685 -0.1618  0.0266 -0.1734
17352TIP3    H173547   3.669   2.431  11.625 -0.2280  0.0609 -0.0796
17352TIP3    H273548   3.812   2.382  11.630 -1.0094 -2.4542 -0.8228
17353TIP3   OH273549   4.762   5.712   6.810 -0.0408  0.2483  0.6208
17353TIP3    H173550   4.811   5.652   6.753 -0.3906  1.2716 -0.8302
17353TIP3    H273551   4.671   5.687   6.797 -0.2085  1.1925 -0.1734
17354TIP3   OH273552   1.671   3.401   3.243 -0.0312  0.2426 -0.1503
17354TIP3    H173553   1.594   3.363   3.284 -2.1110  3.6130 -0.5359
17354TIP3    H273554   1.659   3.386   3.150  2.2881 -3.2260 -0.0781
17355TIP3   OH273555   4.084   4.982  12.030 -0.2992  0.6492  0.7272
17355TIP3    H173556   4.167   5.030  12.024 -0.3287  0.5770 -0.7861
17355TIP3    H273557   4.048   5.005  12.116  1.2137  0.7969  1.3505
17356TIP3   OH273558   6.680   3.904   0.215 -0.5505 -0.1752  0.3962
17356TIP3    H173559   6.727   3.855   0.283 -0.4293 -0.2492  0.2594
17356TIP3    H273560   6.740   3.906   0.141 -0.9346 -0.6396  0.0675
17357TIP3   OH273561   6.255   1.906  13.731  0.7899  0.6573  0.6970
17357TIP3    H173562   6.200   1.896  13.654 -1.2519  0.3910  2.0917
17357TIP3    H273563   6.303   1.987  13.717 -0.1533  1.0390 -0.4737
17358TIP3   OH273564   5.958   4.477  16.391 -0.4632 -0.0718 -0.2135
17358TIP3    H173565   5.932   4.398  16.344 -0.1150  0.2427 -0.9524
17358TIP3    H273566   5.980   4.540  16.322  0.0004  0.4209  0.3711
17359TIP3   OH273567   6.156   5.512  13.042 -0.4364  0.2284 -0.1682
17359TIP3    H173568   6.061   5.519  13.032 -0.2155 -0.0742 -3.3059
17359TIP3    H273569   6.191   5.582  12.988  1.1666  0.4785  1.1256
17360TIP3   OH273570   3.312   5.981  11.939  0.0083 -0.7389 -0.1987
17360TIP3    H173571   3.374   5.960  12.009  3.6001  1.0771 -2.4791
17360TIP3    H273572   3.287   6.072  11.956 -0.3939 -0.8075 -0.4124
17361TIP3   OH273573   0.217   1.062   2.872  0.3804 -0.7170  0.4696
17361TIP3    H173574   0.239   1.015   2.953  2.4358 -0.8004 -0.0926
17361TIP3    H273575   0.301   1.089   2.836 -0.5244 -0.2120 -1.3921
17362TIP3   OH273576   5.015   2.051  12.182 -0.1645  0.0623 -0.0686
17362TIP3    H173577   4.974   1.974  12.222  0.1253  0.0302  0.1658
17362TIP3    H273578   5.045   2.104  12.256 -2.1679  1.4178 -0.1436
17363TIP3   OH273579   3.597   2.634   4.582  0.3972 -0.0074 -0.1588
17363TIP3    H173580   3.567   2.617   4.671  2.1747 -0.5974  0.3696
17363TIP3    H273581   3.566   2.559   4.531 -0.7001  0.3736 -0.0803
17364TIP3   OH273582   2.739   5.101   3.980  0.6471  0.0275  0.1349
17364TIP3    H173583   2.643   5.108   3.974  0.7886  1.5106 -1.4007
17364TIP3    H273584   2.758   5.107   4.073 -0.6244  3.0805  0.3084
17365TIP3   OH273585   2.698   2.124  14.257 -0.5953  0.4709  0.4927
17365TIP3    H173586   2.697   2.186  14.184  2.8158 -1.7741 -1.7352
17365TIP3    H273587   2.662   2.043  14.221  0.1851 -0.4127  1.6268
17366TIP3   OH273588   6.273   5.849   6.346  0.3477 -0.3024 -0.4443
17366TIP3    H173589   6.218   5.778   6.379  1.2651 -1.8214 -2.0276
17366TIP3    H273590   6.277   5.912   6.418 -0.2440 -1.9899  1.1243
17367TIP3   OH273591   6.263   1.622  14.894  0.4424  0.3401 -0.1762
17367TIP3    H173592   6.336   1.683  14.903  0.9711 -0.3566  0.3828
17367TIP3    H273593   6.185   1.674  14.912  0.8881  0.8592  0.2711
17368TIP3   OH273594   6.568   6.318   2.357  0.6151 -0.3416  0.1059
17368TIP3    H173595   6.496   6.267   2.320  0.5157 -0.8070  0.9117
17368TIP3    H273596   6.549   6.323   2.451 -0.1675  2.4760 -0.1057
17369TIP3   OH273597   1.862   2.882  11.559 -0.5225 -0.1885  0.5362
17369TIP3    H173598   1.778   2.896  11.604 -1.3644 -1.0083 -0.7230
17369TIP3    H273599   1.839   2.833  11.480  1.1425 -0.3234  0.1034
17370TIP3   OH273600   4.358   4.534  16.249 -0.0990 -0.2142  0.2787
17370TIP3    H173601   4.286   4.488  16.291 -0.8754  0.6870 -0.0295
17370TIP3    H273602   4.395   4.590  16.317 -1.5536  1.4786 -0.2476
17371TIP3   OH273603   0.409   2.240  11.989  0.3568 -0.1183 -0.7053
17371TIP3    H173604   0.446   2.226  12.076  1.5018 -1.3492 -1.3464
17371TIP3    H273605   0.315   2.223  11.999  0.6112 -1.1735  0.1118
17372TIP3   OH273606   3.167   2.476  16.167 -0.0085  0.3331 -0.2105
17372TIP3    H173607   3.192   2.481  16.074  0.4916  0.1261 -0.0944
17372TIP3    H273608   3.165   2.382  16.186  0.0970  0.3795  0.0381
17373TIP3   OH273609   3.278   5.018   4.824  0.3557  0.2138  0.6108
17373TIP3    H173610   3.357   4.995   4.776  0.2249 -0.7339  0.8339
17373TIP3    H273611   3.207   5.001   4.763  0.2888  0.5519  0.5937
17374TIP3   OH273612   4.091   5.766  13.474  0.1277  0.4159 -0.0923
17374TIP3    H173613   4.019   5.823  13.498  0.1949  0.8369 -0.8560
17374TIP3    H273614   4.137   5.748  13.556 -2.0923 -1.6614  0.8107
17375TIP3   OH273615   3.062   5.857   3.052  0.1713 -0.3759  0.5860
17375TIP3    H173616   3.038   5.807   2.974 -1.5829 -1.3799  1.6788
17375TIP3    H273617   2.980   5.863   3.102  1.0905  0.8087  2.0425
17376TIP3   OH273618   3.513   5.409   1.075  0.2518  0.2884 -0.2795
17376TIP3    H173619   3.447   5.361   1.024  0.1466  0.2186 -0.0781
17376TIP3    H273620   3.483   5.500   1.074 -0.0908  0.1855  0.1899
17377TIP3   OH273621   3.658   1.087   6.386  0.4896 -0.3504 -0.5114
17377TIP3    H173622   3.574   1.051   6.414  0.8207 -0.7643 -0.0419
17377TIP3    H273623   3.723   1.031   6.427  1.1629  2.6765  3.1495
17378TIP3   OH273624   3.546   6.802   4.644 -0.4151 -0.2511  0.0471
17378TIP3    H173625   3.622   6.838   4.599  1.8098  1.2103  4.3471
17378TIP3    H273626   3.566   6.709   4.656  1.1738  0.2366  1.6908
17379TIP3   OH273627   3.318   2.460   0.918  0.1872 -0.3776 -0.2221
17379TIP3    H173628   3.276   2.470   0.833 -1.2821  0.6451  0.5815
17379TIP3    H273629   3.308   2.367   0.939 -0.8910 -0.3273 -0.4566
17380TIP3   OH273630   1.220   3.537   3.289 -0.4326  0.3146 -0.3472
17380TIP3    H173631   1.189   3.460   3.242 -0.7667  1.0889 -1.4363
17380TIP3    H273632   1.141   3.572   3.332 -0.5639  0.7884 -0.9533
17381TIP3   OH273633   2.311   5.270   6.299  0.4863  0.0226 -0.4287
17381TIP3    H173634   2.290   5.343   6.241  0.3613  0.8895  0.6732
17381TIP3    H273635   2.402   5.248   6.280  0.4649  0.3420 -0.8938
17382TIP3   OH273636   4.729   0.363   4.874 -0.5025 -0.2971  0.1039
17382TIP3    H173637   4.772   0.432   4.925 -0.4015 -0.8174  0.7291
17382TIP3    H273638   4.767   0.282   4.906  0.9856 -0.5581 -2.1423
17383TIP3   OH273639   4.604   4.691  14.537 -0.2362  0.1867  0.1877
17383TIP3    H173640   4.541   4.732  14.595  0.6888  0.1868  1.2232
17383TIP3    H273641   4.621   4.605  14.575 -0.9978 -0.5819 -1.1231
17384TIP3   OH273642   1.322   1.645  13.405 -0.6820  0.2122 -0.5414
17384TIP3    H173643   1.236   1.684  13.391 -0.5610  0.0236 -1.9068
17384TIP3    H273644   1.322   1.565  13.353 -0.4883 -1.0427  1.2792
17385TIP3   OH273645   4.128   6.185   5.624  0.3747  0.6281 -0.1889
17385TIP3    H173646   4.185   6.224   5.557  2.3660 -3.4225 -1.1313
17385TIP3    H273647   4.041   6.183   5.583  0.5574  2.3576 -0.7490
17386TIP3   OH273648   4.261   5.977   2.160 -0.1031 -0.0618 -0.4447
17386TIP3    H173649   4.304   5.897   2.189 -0.0972  0.0743 -0.0664
17386TIP3    H273650   4.245   5.964   2.067  2.7171  0.7587 -1.1367
17387TIP3   OH273651   6.029   1.859   1.668  0.0408  0.2590 -0.1646
17387TIP3    H173652   6.060   1.776   1.634 -0.6975 -0.4908  0.9121
17387TIP3    H273653   5.963   1.835   1.734  0.9738  1.6273  1.3446
17388TIP3   OH273654   3.676   0.635   1.943 -0.2149 -0.6169 -0.0224
17388TIP3    H173655   3.701   0.595   2.026 -0.2618  0.7861  0.7033
17388TIP3    H273656   3.759   0.652   1.899 -0.0186  0.8174  0.8275
17389TIP3   OH273657   6.536   6.376   5.916 -0.1656 -0.0415  0.0670
17389TIP3    H173658   6.471   6.311   5.941  0.5461 -1.8198 -2.3281
17389TIP3    H273659   6.612   6.357   5.970 -0.4811 -0.1764  0.4660
17390TIP3   OH273660   2.885   1.545  16.669 -0.0198 -0.0531 -0.0048
17390TIP3    H173661   2.804   1.566  16.714  0.1382  1.2989 -0.3084
17390TIP3    H273662   2.864   1.555  16.576  0.7533  1.4253 -0.0528
17391TIP3   OH273663   2.121   3.892   3.429 -0.9918 -0.3011  0.2561
17391TIP3    H173664   2.032   3.858   3.422 -0.5321 -1.2269 -2.1027
17391TIP3    H273665   2.136   3.936   3.345  0.6967  0.0331  0.6980
17392TIP3   OH273666   3.691   0.978   2.267  0.2657  0.2746  0.1356
17392TIP3    H173667   3.622   0.956   2.330 -2.1564 -0.2654 -2.4685
17392TIP3    H273668   3.726   1.061   2.297  0.9312 -1.0580  3.4298
17393TIP3   OH273669   0.095   6.520   4.891 -0.2232  0.5097  0.0403
17393TIP3    H173670   0.126   6.431   4.879 -0.5426  0.3367  0.4842
17393TIP3    H273671  -0.001   6.513   4.895 -0.2430  0.8451  0.2683
17394TIP3   OH273672   0.899   2.890  12.995 -0.4851 -0.0005  0.2191
17394TIP3    H173673   0.966   2.837  13.038  1.4001 -0.2818 -2.7901
17394TIP3    H273674   0.874   2.955  13.061  2.0016 -0.5384  1.8342
17395TIP3   OH273675   5.681   5.910   1.998 -0.3985 -0.4071  0.5435
17395TIP3    H173676   5.617   5.950   2.056  0.2279 -1.3013  1.9066
17395TIP3    H273677   5.758   5.895   2.053  0.3884 -0.8682 -0.6315
17396TIP3   OH273678   3.768   3.253   1.492 -0.1727  0.3242  0.1621
17396TIP3    H173679   3.844   3.309   1.506  0.9281 -1.1213  0.1709
17396TIP3    H273680   3.756   3.251   1.397  0.3367 -0.1136  0.1027
17397TIP3   OH273681   0.499   2.107  16.318 -0.2364 -0.2651 -0.1943
17397TIP3    H173682   0.513   2.066  16.403  1.3761 -0.3768 -0.4861
17397TIP3    H273683   0.524   2.198  16.331  1.2044 -0.5356 -0.8032
17398TIP3   OH273684   0.027   2.507   2.958  0.2344  0.2161  0.0107
17398TIP3    H173685   0.104   2.456   2.931 -0.4287 -1.3391  0.9432
17398TIP3    H273686  -0.043   2.475   2.901 -0.0507  0.5361  0.1857
17399TIP3   OH273687   0.103   2.328   4.644  0.2238  0.5033 -0.9063
17399TIP3    H173688   0.181   2.351   4.593 -0.2811 -0.3268 -2.1040
17399TIP3    H273689   0.092   2.400   4.706  1.8050  0.7480 -0.8704
17400TIP3   OH273690   6.464   3.189  12.665  0.5519 -0.0554  0.1505
17400TIP3    H173691   6.516   3.151  12.595 -0.1763  2.3185 -1.8325
17400TIP3    H273692   6.521   3.256  12.703  0.2668 -0.0306  0.5384
17401TIP3   OH273693   4.996   5.109   3.256  0.4537  0.8524  0.1641
17401TIP3    H173694   5.001   5.152   3.341  0.1114  0.2707  0.4888
17401TIP3    H273695   4.925   5.153   3.210 -0.3175  0.2410  0.7349
17402TIP3   OH273696   4.703   0.975  11.534  0.5161  0.5946 -0.4616
17402TIP3    H173697   4.698   1.002  11.443 -1.5189 -0.8271 -0.8382
17402TIP3    H273698   4.686   0.880  11.532  0.2019  0.5654  1.3948
17403TIP3   OH273699   3.072   5.827   4.145  0.0120  0.0418  0.0519
17403TIP3    H173700   3.003   5.860   4.088  0.2500  1.2701  0.4587
17403TIP3    H273701   3.055   5.733   4.151 -0.2309 -0.0553 -1.7371
17404TIP3   OH273702   3.694   6.173   1.789 -0.0172  0.2124  0.0544
17404TIP3    H173703   3.609   6.135   1.765  0.4872 -2.3413  1.8796
17404TIP3    H273704   3.673   6.263   1.814 -2.3002 -0.4475  0.7950
17405TIP3   OH273705   3.174   1.328   3.805 -0.1727 -0.2648 -0.1027
17405TIP3    H173706   3.256   1.328   3.855 -0.0382  1.9615 -0.2168
17405TIP3    H273707   3.147   1.420   3.805 -1.7457 -0.6959 -1.5795
17406TIP3   OH273708   3.244   3.521  12.542  0.2420  0.0562 -0.4124
17406TIP3    H173709   3.262   3.541  12.450  1.7171  1.5270  0.1418
17406TIP3    H273710   3.217   3.605  12.579 -0.5790 -0.5794  0.4580
17407TIP3   OH273711   1.075   1.970  16.172  0.2205  0.4822  0.3532
17407TIP3    H173712   1.069   1.899  16.108  1.2920  0.4500  0.2654
17407TIP3    H273713   0.997   2.024  16.157 -0.5037 -0.5618  0.2936
17408TIP3   OH273714   0.083   1.630   6.237  0.3597  0.6797  0.2473
17408TIP3    H173715   0.084   1.716   6.195  0.9520  0.7156  0.3266
17408TIP3    H273716   0.048   1.646   6.325 -1.1038  0.5687 -0.2815
17409TIP3   OH273717   3.977   0.282  12.100 -0.0350 -0.3173  0.1785
17409TIP3    H173718   4.001   0.261  12.191  1.2652 -0.9571 -0.2819
17409TIP3    H273719   3.979   0.378  12.097 -0.3462 -0.2826  0.8952
17410TIP3   OH273720   2.649   0.895  15.107  0.0803 -0.1856 -0.5112
17410TIP3    H173721   2.653   0.987  15.080 -0.3193 -0.4096 -1.3614
17410TIP3    H273722   2.706   0.849  15.045  2.3701 -0.2004  1.4246
17411TIP3   OH273723   1.153   2.244   3.170  0.3610 -0.2288 -0.0343
17411TIP3    H173724   1.167   2.279   3.258 -0.6350  1.3567 -0.4639
17411TIP3    H273725   1.193   2.308   3.111 -2.1003  0.6737 -0.8806
17412TIP3   OH273726   4.705   2.946  16.593  0.1526 -0.1565  0.5604
17412TIP3    H173727   4.643   3.004  16.548 -0.8872 -1.2126  0.5809
17412TIP3    H273728   4.789   2.962  16.550 -0.4435  0.1931 -0.5121
17413TIP3   OH273729   3.150   6.641  11.809  0.3383  0.0325  0.0818
17413TIP3    H173730   3.193   6.685  11.735 -1.0681  1.1372 -0.1189
17413TIP3    H273731   3.118   6.713  11.864 -0.4429 -0.7660  0.6898
17414TIP3   OH273732   5.081   3.818  11.310  0.3462 -0.0723 -0.8523
17414TIP3    H173733   5.013   3.795  11.247  0.1141 -0.8023 -0.3527
17414TIP3    H273734   5.046   3.788  11.394  1.6289 -1.1903 -0.6931
17415TIP3   OH273735   3.337   5.685  11.321  0.2254  0.4728  0.2778
17415TIP3    H173736   3.265   5.709  11.379  1.2644  2.5107  0.7973
17415TIP3    H273737   3.415   5.688  11.377  0.8417 -1.0534 -0.4238
17416TIP3   OH273738   0.825   2.892   3.425  0.2324  0.2799 -0.2144
17416TIP3    H173739   0.777   2.880   3.506  1.1570 -0.7050  0.2019
17416TIP3    H273740   0.916   2.876   3.448  0.5968  0.7140 -1.2897
17417TIP3   OH273741   5.625   0.265   6.035 -0.5003 -0.0502 -0.6949
17417TIP3    H173742   5.615   0.276   6.129  0.3318 -1.7328 -0.3808
17417TIP3    H273743   5.713   0.299   6.016 -0.7184  0.4137 -0.9062
17418TIP3   OH273744   5.380   1.441  14.818 -0.0276  0.2012 -0.2331
17418TIP3    H173745   5.392   1.469  14.727  0.4010 -0.7513 -0.4767
17418TIP3    H273746   5.353   1.521  14.863  2.8590  1.5107 -0.5535
17419TIP3   OH273747   5.601   3.136   0.554  0.2743  0.3590 -0.4144
17419TIP3    H173748   5.541   3.061   0.560 -2.0776  2.1974  0.7778
17419TIP3    H273749   5.650   3.133   0.636  0.0348  0.2391 -0.2727
17420TIP3   OH273750   5.594   3.605   6.867  0.0664 -0.4982  0.4161
17420TIP3    H173751   5.670   3.556   6.834  0.1440 -0.4460  0.5153
17420TIP3    H273752   5.619   3.697   6.857 -0.5690 -0.4481 -0.9091
17421TIP3   OH273753   0.430   1.708  10.749 -0.4409 -0.1319  0.0162
17421TIP3    H173754   0.383   1.676  10.672  0.7192 -0.3530 -0.6242
17421TIP3    H273755   0.408   1.645  10.818 -1.5517  0.1121 -0.0978
17422TIP3   OH273756   1.662   3.897   0.170 -1.0300  0.6722 -0.4369
17422TIP3    H173757   1.643   3.803   0.179 -0.1291  0.4136 -1.0790
17422TIP3    H273758   1.679   3.909   0.077  2.6430  0.6715  0.1040
17423TIP3   OH273759   0.277   1.429   4.758  0.2798  0.2234 -0.1414
17423TIP3    H173760   0.292   1.413   4.665  0.5151 -0.4132  0.0010
17423TIP3    H273761   0.226   1.510   4.760  0.0688  0.1192 -0.8366
17424TIP3   OH273762   4.056   1.951  12.818 -0.0885  0.3418  0.1383
17424TIP3    H173763   4.003   2.006  12.875 -0.9338  0.9975 -1.2064
17424TIP3    H273764   4.043   1.862  12.850 -1.0170  0.6333  0.6078
17425TIP3   OH273765   6.446   0.673   2.076 -0.3291 -0.1264 -0.4773
17425TIP3    H173766   6.521   0.730   2.090 -0.3411  0.3396 -2.1117
17425TIP3    H273767   6.479   0.604   2.018 -0.5731 -1.2349  0.6750
17426TIP3   OH273768   2.149   2.327  14.401  0.6988 -0.1203 -0.6271
17426TIP3    H173769   2.139   2.379  14.481 -1.4647 -0.8184 -0.3785
17426TIP3    H273770   2.243   2.330  14.382  1.5550 -1.0335  2.6988
17427TIP3   OH273771   0.040   0.457  13.846 -0.2486 -0.3352 -0.6065
17427TIP3    H173772   0.021   0.396  13.917 -2.2781  2.5081  1.5123
17427TIP3    H273773  -0.038   0.454  13.790 -0.4281  0.3723 -0.4065
17428TIP3   OH273774   3.557   1.461  16.999  0.0442 -0.4833  0.0183
17428TIP3    H173775   3.480   1.424  17.041 -1.3168 -0.5646 -2.3795
17428TIP3    H273776   3.593   1.390  16.947  0.0824  0.3007 -1.0616
17429TIP3   OH273777   3.756   2.886  17.245 -0.0722 -0.1004 -0.4866
17429TIP3    H173778   3.738   2.975  17.213 -2.3574 -0.8296 -1.3870
17429TIP3    H273779   3.678   2.836  17.223  1.2790 -2.4437 -0.2676
17430TIP3   OH273780   4.232   0.045  15.166  0.2347 -0.0945 -0.4534
17430TIP3    H173781   4.226  -0.030  15.226  2.7276  0.8553  1.1628
17430TIP3    H273782   4.293   0.017  15.098  0.7731  0.2731 -0.1294
17431TIP3   OH273783   5.960   3.555   4.213 -0.7846  0.3705  0.1102
17431TIP3    H173784   5.978   3.474   4.260  0.2901  0.3679 -0.2860
17431TIP3    H273785   5.877   3.538   4.168  0.3103 -1.2190 -1.4613
17432TIP3   OH273786   2.515   1.451   5.739  0.1876  0.1459  0.1789
17432TIP3    H173787   2.475   1.436   5.653  1.1293  1.5975 -0.5602
17432TIP3    H273788   2.456   1.513   5.782  1.0246  1.4609 -0.4936
17433TIP3   OH273789   6.168   2.699   3.206 -0.7282 -0.2821  0.0997
17433TIP3    H173790   6.109   2.636   3.164  0.3921 -1.1969 -0.1618
17433TIP3    H273791   6.224   2.731   3.135  0.6085 -1.1893  0.6937
17434TIP3   OH273792   0.196   4.930   2.859  0.6890  0.1329  0.3037
17434TIP3    H173793   0.166   5.015   2.829 -1.5972  0.0671  2.1315
17434TIP3    H273794   0.133   4.868   2.822  0.8544 -0.4761  1.0149
17435TIP3   OH273795   2.239   3.215  12.817  0.3511 -0.0382 -0.0867
17435TIP3    H173796   2.268   3.127  12.841 -1.4501 -0.7842 -0.4582
17435TIP3    H273797   2.288   3.237  12.738  0.8361 -0.6890  0.0296
17436TIP3   OH273798   1.158   5.366   3.380 -0.7065  0.7089 -0.2493
17436TIP3    H173799   1.175   5.369   3.286 -1.5449  0.7345 -0.4001
17436TIP3    H273800   1.103   5.442   3.397  0.0671  1.1428  0.3975
17437TIP3   OH273801   0.682   2.745   4.939  0.0551  0.0147  0.0656
17437TIP3    H173802   0.728   2.820   4.978  0.9012  0.1598 -1.1586
17437TIP3    H273803   0.591   2.774   4.930 -0.0147  0.2119  1.2972
17438TIP3   OH273804   3.379   6.582  11.452  0.2284 -0.0259  0.1663
17438TIP3    H173805   3.443   6.543  11.513  0.1104 -0.2180  0.1663
17438TIP3    H273806   3.432   6.614  11.380  0.1662 -2.0202 -0.8396
17439TIP3   OH273807   0.513   6.352   1.815 -0.6441  0.0717 -0.5127
17439TIP3    H173808   0.517   6.269   1.864  1.1415 -0.8740 -2.1129
17439TIP3    H273809   0.431   6.347   1.767 -1.1169 -0.2185  0.2906
17440TIP3   OH273810   5.260   6.743   2.779  0.0840  0.0432 -0.3431
17440TIP3    H173811   5.174   6.780   2.801 -0.9084 -1.4752 -1.4238
17440TIP3    H273812   5.255   6.653   2.810  0.2792 -0.8336 -2.6694
17441TIP3   OH273813   1.913   1.531  15.548  0.1221  0.0539  0.4082
17441TIP3    H173814   1.984   1.574  15.499 -0.9922  1.0110 -0.4090
17441TIP3    H273815   1.835   1.542  15.493 -1.2976  1.6473  2.6061
17442TIP3   OH273816   2.252   6.593  11.489 -0.2372  0.0281 -0.0724
17442TIP3    H173817   2.312   6.558  11.423 -0.0191 -1.3056  0.7970
17442TIP3    H273818   2.308   6.631  11.556 -0.2954 -1.8188  1.0725
17443TIP3   OH273819   5.431   4.960   2.604 -0.3050 -0.0202 -0.6360
17443TIP3    H173820   5.526   4.960   2.589 -0.2529  2.6521 -0.7612
17443TIP3    H273821   5.410   5.051   2.623 -2.5050 -0.9336  1.9323
17444TIP3   OH273822   3.740   3.937   6.618 -0.0782 -0.3188 -0.3572
17444TIP3    H173823   3.649   3.914   6.635  0.0490  0.1550  1.0662
17444TIP3    H273824   3.791   3.871   6.664  0.3161 -0.7127 -1.3280
17445TIP3   OH273825   1.434   1.653   4.002 -0.0143  0.6366  0.2080
17445TIP3    H173826   1.407   1.732   3.956  0.0365 -0.0794 -1.0753
17445TIP3    H273827   1.393   1.581   3.954  2.0465 -0.3097 -0.2479
17446TIP3   OH273828   4.086   4.620  16.673  0.7237  0.1789 -0.2423
17446TIP3    H173829   4.039   4.652  16.750  1.6172  0.8736  0.0317
17446TIP3    H273830   4.131   4.541  16.703  0.1547 -0.1942 -0.3644
17447TIP3   OH273831   2.405   6.816  16.569 -0.5961  0.2215  0.0316
17447TIP3    H173832   2.359   6.734  16.590  0.1287 -0.0037  0.7861
17447TIP3    H273833   2.414   6.814  16.474  2.0678 -2.0850  0.1950
17448TIP3   OH273834   4.153   6.680  17.244  0.6986 -0.1499  0.1977
17448TIP3    H173835   4.099   6.662  17.321 -2.3785 -0.8791 -1.9085
17448TIP3    H273836   4.155   6.775  17.237 -0.7110 -0.1004  0.1473
17449TIP3   OH273837   1.702   4.223  14.308  0.3352  0.1549 -0.9120
17449TIP3    H173838   1.638   4.155  14.286 -0.4916  0.7172 -0.3125
17449TIP3    H273839   1.655   4.305  14.293  0.5701  0.5744  0.4775
17450TIP3   OH273840   5.519   6.152   0.063  0.3750  0.2741 -0.2487
17450TIP3    H173841   5.470   6.220   0.107 -0.4641 -1.2377  1.2710
17450TIP3    H273842   5.452   6.093   0.026  0.8903 -2.0983  2.2967
17451TIP3   OH273843   3.843   3.379   6.654 -0.2662  0.5777  0.0932
17451TIP3    H173844   3.904   3.389   6.728 -0.2786  0.3485  0.1347
17451TIP3    H273845   3.830   3.284   6.646  1.2731  0.4553 -1.4493
17452TIP3   OH273846   4.209   5.802  17.056 -0.5750  0.0370  0.3545
17452TIP3    H173847   4.143   5.870  17.063  1.0911  1.6101  1.5883
17452TIP3    H273848   4.160   5.724  17.029 -2.9941  0.9832  1.6895
17453TIP3   OH273849   2.141   5.143  15.407 -0.0002  0.3092 -0.2870
17453TIP3    H173850   2.078   5.082  15.369 -2.0107  1.7896  0.5293
17453TIP3    H273851   2.128   5.224  15.359  0.4725  0.9681  0.6745
17454TIP3   OH273852   2.277   3.546  14.023  0.0774 -0.1557  0.6678
17454TIP3    H173853   2.325   3.505  13.951  2.4686  0.7250  1.6790
17454TIP3    H273854   2.309   3.502  14.102 -1.9827 -0.6153  1.3112
17455TIP3   OH273855   1.351   2.249  13.612  0.0235  0.3625  0.1186
17455TIP3    H173856   1.385   2.220  13.527  0.2442 -0.8988  0.6147
17455TIP3    H273857   1.357   2.172  13.668 -3.7340 -0.0125  0.2414
17456TIP3   OH273858   6.370   2.114  12.310  0.3134  0.6197  0.2295
17456TIP3    H173859   6.304   2.149  12.251  0.1891  0.4340  0.2580
17456TIP3    H273860   6.324   2.103  12.393  0.2250 -0.0705  0.0906
17457TIP3   OH273861   1.339   0.907   3.349  0.3110 -0.2924 -0.3365
17457TIP3    H173862   1.367   0.878   3.262  0.5884  0.7488 -0.6113
17457TIP3    H273863   1.414   0.888   3.405  2.0974  3.2482 -1.2257
17458TIP3   OH273864   6.236   2.661  13.660  0.1970  0.0170 -0.2603
17458TIP3    H173865   6.271   2.610  13.734 -1.7004 -0.0857  0.6190
17458TIP3    H273866   6.268   2.750  13.675 -0.2766  0.0233  0.7770
17459TIP3   OH273867   3.145   5.998   3.401 -0.2305 -0.2537  0.0839
17459TIP3    H173868   3.123   5.952   3.482  0.4891  1.4765  1.3133
17459TIP3    H273869   3.227   5.958   3.372  0.9218  0.8470  1.6838
17460TIP3   OH273870   0.079   2.841  15.309 -0.5607 -0.4175 -0.3597
17460TIP3    H173871   0.019   2.893  15.363  1.2349  1.0224  0.3194
17460TIP3    H273872   0.094   2.762  15.361 -0.2067  0.1857  0.4841
17461TIP3   OH273873   0.558   0.653   4.666  0.1018 -0.3260 -0.1120
17461TIP3    H173874   0.572   0.622   4.576  0.0394 -1.0892  0.1393
17461TIP3    H273875   0.477   0.612   4.694 -0.0092  0.1040  0.2178
17462TIP3   OH273876   2.542   5.884   1.740  0.0697  0.3417 -0.3899
17462TIP3    H173877   2.637   5.893   1.745 -0.0488  0.8015  1.5785
17462TIP3    H273878   2.510   5.974   1.732 -0.2156  0.1677 -1.3952
17463TIP3   OH273879   6.727   5.035   3.387  0.0992  0.3138 -0.0183
17463TIP3    H173880   6.734   5.051   3.293 -0.1994 -1.0884 -0.3009
17463TIP3    H273881   6.707   5.121   3.424 -2.2157  0.5207 -1.5016
17464TIP3   OH273882   3.966   0.708   2.650 -0.3575 -0.0216 -0.0598
17464TIP3    H173883   3.900   0.639   2.650 -1.0308  0.6003  0.7313
17464TIP3    H273884   3.918   0.788   2.670  0.5681  0.5173  0.0845
17465TIP3   OH273885   3.563   4.572  10.805  0.2251  0.0360 -0.1153
17465TIP3    H173886   3.562   4.631  10.881  0.2622 -0.9093  0.6276
17465TIP3    H273887   3.611   4.621  10.739  0.7003  0.6453  0.6531
17466TIP3   OH273888   2.406   3.817  16.415  0.2549 -0.4551 -0.5546
17466TIP3    H173889   2.474   3.750  16.407 -1.3026 -1.9434 -2.1449
17466TIP3    H273890   2.361   3.796  16.497  1.9440  0.8695  0.7991
17467TIP3   OH273891   4.837   5.608  11.684  0.5223  0.0627 -0.1703
17467TIP3    H173892   4.911   5.567  11.729 -0.9560 -0.9729  1.4452
17467TIP3    H273893   4.779   5.535  11.663 -1.1097  1.0406  0.6948
17468TIP3   OH273894   5.014   0.120   4.394 -0.4465  0.4224  0.1341
17468TIP3    H173895   5.027   0.028   4.371 -0.2380  0.5292 -0.1725
17468TIP3    H273896   5.075   0.135   4.466  1.0164  0.8609 -1.1450
17469TIP3   OH273897   5.009   3.721  12.717  0.4094 -0.2124  0.0937
17469TIP3    H173898   5.094   3.680  12.733 -0.0613 -0.2488  3.2093
17469TIP3    H273899   5.027   3.815  12.713  0.6241 -0.2129  0.8651
17470TIP3   OH273900   1.721   2.955   6.694 -0.3433 -0.1103  0.2169
17470TIP3    H173901   1.638   2.958   6.647 -0.8299  1.3722  1.0868
17470TIP3    H273902   1.752   3.046   6.695  1.0906 -0.5753  0.2542
17471TIP3   OH273903   0.162   2.818  17.113  0.1190 -0.3449 -0.0159
17471TIP3    H173904   0.236   2.838  17.055  0.0623 -1.1016 -0.3682
17471TIP3    H273905   0.095   2.881  17.088  0.9368  0.9406  0.9185
17472TIP3   OH273906   3.175   6.452  16.255  0.2700  0.0701 -0.1113
17472TIP3    H173907   3.195   6.546  16.256 -2.9978  0.8721 -0.0684
17472TIP3    H273908   3.165   6.429  16.347 -0.3036  0.0533 -0.1726
17473TIP3   OH273909   1.947   2.477   6.624  0.3851  0.4390  0.7119
17473TIP3    H173910   1.905   2.557   6.655  0.8542  0.0311  2.5200
17473TIP3    H273911   2.040   2.497   6.625  0.5552 -0.2930  1.7943
17474TIP3   OH273912   2.964   6.422   5.756 -0.1079 -0.2832  0.4447
17474TIP3    H173913   3.039   6.370   5.786  0.4494 -0.1939 -0.7379
17474TIP3    H273914   2.914   6.439   5.835  0.8117 -0.8485  1.1740
17475TIP3   OH273915   1.493   2.076  12.320  0.0456 -0.5006 -0.1887
17475TIP3    H173916   1.547   2.102  12.394 -0.4803  1.4079 -0.4121
17475TIP3    H273917   1.539   2.001  12.282  1.2325 -0.4354  1.0302
17476TIP3   OH273918   3.908   0.755   5.620 -0.2162  0.4731 -0.4340
17476TIP3    H173919   3.819   0.727   5.600 -0.1413  0.0583 -0.2055
17476TIP3    H273920   3.914   0.747   5.716  0.1183  0.3395 -0.4657
17477TIP3   OH273921   5.350   0.659   4.901  0.2726 -0.1486 -0.6395
17477TIP3    H173922   5.396   0.741   4.883 -0.1892  0.3078  0.1911
17477TIP3    H273923   5.386   0.597   4.838  0.8160  0.6254 -1.1109
17478TIP3   OH273924   4.318   1.880   5.812 -0.1924 -0.2916  0.3647
17478TIP3    H173925   4.280   1.820   5.749 -0.5225  0.3130 -0.0196
17478TIP3    H273926   4.259   1.955   5.813  1.3982  1.0549 -0.9051
17479TIP3   OH273927   4.297   0.798  15.801 -0.0771  0.0746 -0.0930
17479TIP3    H173928   4.392   0.799  15.814 -0.0859  0.7363 -0.0266
17479TIP3    H273929   4.276   0.707  15.783  0.4935 -0.1842  0.4932
17480TIP3   OH273930   6.554   6.473  11.460  0.3751  0.1282 -0.2351
17480TIP3    H173931   6.516   6.558  11.481  0.3866  0.0574  0.0700
17480TIP3    H273932   6.500   6.410  11.507 -0.5931 -0.1625 -1.6772
17481TIP3   OH273933   2.315   4.380   3.580 -0.1255 -0.1553 -0.5742
17481TIP3    H173934   2.357   4.466   3.570  3.0950 -1.1796  2.2098
17481TIP3    H273935   2.374   4.319   3.535 -0.7424 -1.2422  0.0454
17482TIP3   OH273936   4.079   4.362  17.305  0.4598  0.9579  0.4675
17482TIP3    H173937   4.116   4.450  17.305  2.0698  0.3133 -0.3074
17482TIP3    H273938   4.068   4.341  17.398 -0.6512  2.2427  0.6456
17483TIP3   OH273939   2.302   5.517  16.319 -0.5624 -0.7835 -0.7467
17483TIP3    H173940   2.317   5.534  16.412  0.5768 -1.8929 -0.6937
17483TIP3    H273941   2.337   5.594  16.275 -0.0372 -0.7588 -0.3007
17484TIP3   OH273942   5.401   5.923  17.056  0.2824 -0.5032 -1.0002
17484TIP3    H173943   5.379   5.924  17.150  0.7291  1.0956 -0.8866
17484TIP3    H273944   5.373   6.009  17.024  0.8239 -0.7474 -2.1740
17485TIP3   OH273945   6.247   4.767   1.673  0.0573 -0.1928 -0.1978
17485TIP3    H173946   6.228   4.678   1.704  0.3213 -0.2135 -0.0950
17485TIP3    H273947   6.172   4.789   1.618 -0.9935  0.2702  1.3380
17486TIP3   OH273948   3.148   4.521  15.883 -0.0126 -0.2486 -0.3502
17486TIP3    H173949   3.206   4.557  15.816  1.2598 -3.0433 -0.8849
17486TIP3    H273950   3.194   4.537  15.965 -0.0353  0.3825 -0.4580
17487TIP3   OH273951   4.373   1.940   1.757 -0.1954 -0.4453  0.5679
17487TIP3    H173952   4.294   1.917   1.707  0.5971 -1.8502 -0.1030
17487TIP3    H273953   4.415   1.856   1.775  1.1104  0.2731  0.9721
17488TIP3   OH273954   1.618   4.859  15.598 -0.4803  0.6970  0.5634
17488TIP3    H173955   1.568   4.887  15.675 -0.5392 -1.4774  1.3931
17488TIP3    H273956   1.671   4.785  15.630  2.2493  2.0140 -0.6270
17489TIP3   OH273957   1.195   0.291  13.430 -1.1269 -0.6251 -0.2604
17489TIP3    H173958   1.286   0.267  13.415 -0.7750  0.0304  0.7381
17489TIP3    H273959   1.153   0.278  13.345 -0.0529 -0.6912 -0.8047
17490TIP3   OH273960   0.066   0.607  10.482  0.4902  0.1277 -0.5751
17490TIP3    H173961   0.022   0.682  10.443 -1.3713 -0.4229  0.3335
17490TIP3    H273962   0.135   0.585  10.420 -1.5151  0.0571 -2.9510
17491TIP3   OH273963   2.767   4.813  14.044 -1.0485 -0.2574  0.2258
17491TIP3    H173964   2.712   4.802  14.121 -1.0138  0.4516  0.3565
17491TIP3    H273965   2.856   4.818  14.077 -1.0926  0.7495  0.2074
17492TIP3   OH273966   5.929   5.219   0.226  0.5093 -0.0917 -0.1597
17492TIP3    H173967   5.947   5.141   0.173  0.0480 -0.3465  0.0464
17492TIP3    H273968   5.842   5.247   0.199  0.9648  0.7982 -0.7565
17493TIP3   OH273969   0.880   0.370  15.048  0.3490  0.0516  0.1501
17493TIP3    H173970   0.830   0.289  15.036 -1.1861  1.3498 -3.5417
17493TIP3    H273971   0.961   0.355  15.001 -0.6743  1.1364 -2.0912
17494TIP3   OH273972   3.071   2.231  12.172  0.3141  0.0130  0.1012
17494TIP3    H173973   3.038   2.264  12.088  1.1618  0.0082 -0.2431
17494TIP3    H273974   3.162   2.209  12.155  0.2285 -0.9150  0.7781
17495TIP3   OH273975   6.716   4.040  14.096  0.3338  0.4692 -0.0938
17495TIP3    H173976   6.659   3.977  14.051 -0.5209  1.7542 -0.8998
17495TIP3    H273977   6.668   4.064  14.175  0.0226  1.0937 -0.4640
17496TIP3   OH273978   3.590   5.140  16.194 -0.0650 -0.3353  0.1268
17496TIP3    H173979   3.649   5.064  16.190 -0.2976 -0.4676 -1.5902
17496TIP3    H273980   3.612   5.191  16.115  1.8716  2.7852  2.4305
17497TIP3   OH273981   1.082   1.682  12.198  0.6301 -0.2097  0.5635
17497TIP3    H173982   1.057   1.767  12.234 -1.9683 -0.2043 -0.9783
17497TIP3    H273983   1.178   1.681  12.201  0.6825  2.1981  1.8168
17498TIP3   OH273984   3.526   0.997  12.679  0.0015  0.6795 -0.1747
17498TIP3    H173985   3.431   0.993  12.686 -0.0256 -0.2807 -0.8463
17498TIP3    H273986   3.558   0.969  12.764 -0.3207 -0.5177 -0.4346
17499TIP3   OH273987   5.754   3.193   3.251  0.0848  0.3564 -0.2624
17499TIP3    H173988   5.668   3.167   3.285 -0.5891  0.3998 -1.8444
17499TIP3    H273989   5.810   3.118   3.269 -0.1854  0.4428  1.0542
17500TIP3   OH273990   0.546   1.867  11.481  0.5183  0.0388 -0.8038
17500TIP3    H173991   0.526   1.799  11.418 -0.6672  1.1229 -1.6454
17500TIP3    H273992   0.531   1.826  11.567  0.8665 -1.0491 -1.2462
17501TIP3   OH273993   0.106   4.157   3.451 -0.0946  0.1418  0.4564
17501TIP3    H173994   0.065   4.237   3.485  1.2549  0.7178  0.7625
17501TIP3    H273995   0.104   4.096   3.525  1.4745  0.8831  1.1440
17502TIP3   OH273996   2.199   3.528  11.632  0.2247 -0.2003  0.3302
17502TIP3    H173997   2.196   3.470  11.556 -0.7638 -0.5809  0.6492
17502TIP3    H273998   2.191   3.470  11.707 -0.9094  0.3468  0.6518
17503TIP3   OH273999   1.120   5.553  15.291  0.2995 -0.2910 -0.3272
17503TIP3    H174000   1.119   5.552  15.387  1.6911  0.1685 -0.2924
17503TIP3    H274001   1.055   5.487  15.267  0.9508 -1.4590  0.9454
17504TIP3   OH274002   4.257   1.299   0.753  0.5653  0.1643  0.2213
17504TIP3    H174003   4.339   1.251   0.741  0.0113 -0.7109 -0.1773
17504TIP3    H274004   4.284   1.391   0.761  1.4913  0.0510 -1.2144
17505TIP3   OH274005   3.173   1.153   6.297 -0.4882  0.3930  0.8780
17505TIP3    H174006   3.138   1.142   6.385  0.0037 -1.0628  0.9363
17505TIP3    H274007   3.103   1.124   6.239  0.0311 -1.0784  0.9320
17506TIP3   OH274008   5.900   1.750   5.284  0.4433  0.4475 -0.0109
17506TIP3    H174009   5.986   1.781   5.311  1.1800  0.5991 -2.2683
17506TIP3    H274010   5.915   1.663   5.248  0.5618  1.9375 -4.1638
17507TIP3   OH274011   4.930   3.986  15.369  0.2471  0.2898 -0.0187
17507TIP3    H174012   4.978   3.974  15.451 -1.1154  0.6709  0.8751
17507TIP3    H274013   4.880   3.905  15.358  0.3730  0.2659 -0.4527
17508TIP3   OH274014   0.954   6.093   3.416 -0.2405 -0.3663  0.3677
17508TIP3    H174015   0.940   6.156   3.487  0.1353 -0.1518  0.2569
17508TIP3    H274016   1.049   6.093   3.403 -0.3080 -0.3813 -0.1497
17509TIP3   OH274017   3.290   2.793  15.972 -0.6308  0.2780 -0.0858
17509TIP3    H174018   3.384   2.779  15.961 -0.6101  0.5982 -0.3597
17509TIP3    H274019   3.279   2.814  16.065 -0.2826  1.2821 -0.2544
17510TIP3   OH274020   6.700   0.349   1.122 -0.2910  0.3360 -0.0440
17510TIP3    H174021   6.757   0.378   1.051 -0.4067  1.2049  0.2150
17510TIP3    H274022   6.632   0.416   1.129  0.1438  0.6735  1.3852
17511TIP3   OH274023   6.040   4.952  13.402 -0.2493 -0.0695 -0.3684
17511TIP3    H174024   6.009   4.954  13.311 -3.8078 -0.2260  0.7169
17511TIP3    H274025   6.007   5.033  13.441  2.2898  0.6223  0.6041
17512TIP3   OH274026   4.791   6.595   5.770 -0.1007 -0.0423 -0.2387
17512TIP3    H174027   4.718   6.545   5.807  0.2262 -0.4674 -0.1556
17512TIP3    H274028   4.804   6.667   5.832  0.8760 -1.1220  0.8791
17513TIP3   OH274029   3.380   2.590  11.307  0.7524  0.6891 -0.6498
17513TIP3    H174030   3.474   2.581  11.318  0.8078  0.0465 -1.4988
17513TIP3    H274031   3.369   2.675  11.264  0.8857  1.0525  0.0214
17514TIP3   OH274032   0.845   1.460   0.065 -0.2571  0.2376 -0.6937
17514TIP3    H174033   0.936   1.486   0.059  0.3167 -1.3685  0.3441
17514TIP3    H274034   0.821   1.479   0.156 -0.1073 -1.8046 -0.1829
17515TIP3   OH274035   4.489   5.737  11.556  0.0102 -0.1898 -0.0565
17515TIP3    H174036   4.508   5.722  11.648  0.1802 -1.0661 -0.2292
17515TIP3    H274037   4.413   5.682  11.538 -0.7229  0.8282 -0.1726
17516TIP3   OH274038   5.467   6.689   1.350 -0.4730 -0.1998 -0.1390
17516TIP3    H174039   5.436   6.660   1.264  0.1306  0.3882 -0.5670
17516TIP3    H274040   5.429   6.626   1.412  0.1628 -1.4329 -0.9590
17517TIP3   OH274041   0.938   4.669  12.464 -0.4742  0.0643 -0.0160
17517TIP3    H174042   0.904   4.751  12.429  0.9937  1.2176  1.1349
17517TIP3    H274043   0.868   4.605  12.447 -0.6415  0.9365 -3.1506
17518TIP3   OH274044   3.445   0.667  13.552  0.2046 -0.3280  0.3958
17518TIP3    H174045   3.464   0.580  13.586  0.0928  0.1602  1.7398
17518TIP3    H274046   3.446   0.724  13.628 -1.2854  0.6029 -0.2324
17519TIP3   OH274047   1.047   2.952   6.258 -0.5494  0.2594 -0.5308
17519TIP3    H174048   0.998   3.009   6.316 -0.8911  0.6164 -1.1554
17519TIP3    H274049   1.135   2.949   6.295 -1.2245 -1.0735  1.0852
17520TIP3   OH274050   0.325   0.134  17.183 -0.3950 -0.1941  0.0305
17520TIP3    H174051   0.302   0.122  17.091 -0.1940 -0.4505  0.0128
17520TIP3    H274052   0.342   0.228  17.191 -0.6456 -0.1328 -0.1382
17521TIP3   OH274053   5.921   3.172   4.944 -0.3114 -0.4803  0.5014
17521TIP3    H174054   5.919   3.266   4.926 -0.8854 -0.4166  0.8724
17521TIP3    H274055   6.009   3.156   4.979 -0.8666  0.3014  2.3871
17522TIP3   OH274056   5.798   4.117  13.735 -0.2346  0.2501  0.2128
17522TIP3    H174057   5.868   4.155  13.789 -1.3873  0.7601  1.3940
17522TIP3    H274058   5.719   4.130  13.786 -1.0012 -1.6740 -0.4254
17523TIP3   OH274059   4.398   5.874  12.921  0.5842  0.2723 -0.1131
17523TIP3    H174060   4.489   5.904  12.925  0.6181  0.3170 -0.9341
17523TIP3    H274061   4.346   5.954  12.933  0.6674  0.4602 -0.9402
17524TIP3   OH274062   3.257   4.581  16.320  0.0378 -0.1302 -0.7217
17524TIP3    H174063   3.222   4.648  16.261  1.4572  1.5031  0.2001
17524TIP3    H274064   3.349   4.605  16.331  1.0651 -3.2462 -1.6633
17525TIP3   OH274065   2.392   0.613   2.308 -0.0654  0.8033  0.0677
17525TIP3    H174066   2.483   0.639   2.327  0.4791  0.0508 -1.3656
17525TIP3    H274067   2.365   0.671   2.236  0.0453 -0.3716 -0.9562
17526TIP3   OH274068   5.229   2.969   0.231  0.2741 -0.3563  0.3018
17526TIP3    H174069   5.273   2.887   0.208 -0.2750 -0.9317  1.2431
17526TIP3    H274070   5.299   3.035   0.230  0.6903 -0.7809 -0.6421
17527TIP3   OH274071   0.402   3.726   5.146 -0.3974  0.1704  0.0188
17527TIP3    H174072   0.411   3.636   5.114  0.4993  0.8279 -1.7079
17527TIP3    H274073   0.311   3.748   5.131 -0.3080 -0.0139 -0.8405
17528TIP3   OH274074   4.690   1.295  17.142 -0.5137  0.1143  0.1418
17528TIP3    H174075   4.637   1.267  17.216  1.1585  0.7799  1.6579
17528TIP3    H274076   4.650   1.251  17.066 -2.0405 -0.8923  1.4588
17529TIP3   OH274077   1.441   4.682   5.745 -0.2315 -0.1679 -0.3770
17529TIP3    H174078   1.459   4.737   5.669 -0.0518  0.9531  0.4482
17529TIP3    H274079   1.466   4.736   5.820  0.2754 -1.5148  0.4542
17530TIP3   OH274080   0.305   4.836   4.094  0.5610 -0.0589 -0.0167
17530TIP3    H174081   0.273   4.788   4.018 -1.0853  2.6987 -1.2077
17530TIP3    H274082   0.400   4.840   4.082  0.3707  0.0039 -1.7355
17531TIP3   OH274083   3.320   5.409  16.080 -0.4165  0.0438 -0.0754
17531TIP3    H174084   3.237   5.450  16.060 -1.0266 -0.5457  1.1183
17531TIP3    H274085   3.354   5.458  16.155 -0.7138 -1.0027  0.7721
17532TIP3   OH274086   3.181   4.103   4.516 -0.4076 -0.4100  0.3389
17532TIP3    H174087   3.118   4.035   4.491 -1.0749 -0.4077  1.8989
17532TIP3    H274088   3.145   4.184   4.479  1.0619 -0.9974 -2.6669
17533TIP3   OH274089   3.467   5.197   3.377  0.8360  0.3217  0.3814
17533TIP3    H174090   3.382   5.239   3.390  1.3402  1.0118  1.6175
17533TIP3    H274091   3.488   5.212   3.285 -0.3309  0.2200  0.0871
17534TIP3   OH274092   5.477   5.859  14.278  0.0283  0.1823 -0.0460
17534TIP3    H174093   5.516   5.886  14.361  0.0956  0.4694 -0.1728
17534TIP3    H274094   5.458   5.940  14.232  0.7024  0.0186 -0.6423
17535TIP3   OH274095   2.637   2.299   0.314 -0.1138  0.2700 -0.1168
17535TIP3    H174096   2.555   2.296   0.265 -0.3681  0.8402  0.2639
17535TIP3    H274097   2.696   2.350   0.260 -0.5144  1.2303  0.3316
17536TIP3   OH274098   2.705   4.154   4.525 -0.2959  0.2649 -0.2674
17536TIP3    H174099   2.699   4.078   4.584  0.0782 -0.2482 -0.8676
17536TIP3    H274100   2.737   4.117   4.442  0.0165  1.1039 -0.5337
17537TIP3   OH274101   4.525   2.864  17.044 -0.4110  0.3308  0.4810
17537TIP3    H174102   4.589   2.934  17.027  0.3390 -0.1480  1.2493
17537TIP3    H274103   4.572   2.802  17.098 -1.2752 -0.4732  0.3268
17538TIP3   OH274104   4.570   0.348   1.116 -0.1129  0.1908 -0.1382
17538TIP3    H174105   4.573   0.430   1.067 -1.0382  0.4083  0.1604
17538TIP3    H274106   4.532   0.285   1.055 -0.2405  0.1956 -0.0618
17539TIP3   OH274107   0.807   2.276  14.249 -0.4106 -0.4699 -0.0216
17539TIP3    H174108   0.775   2.355  14.294 -0.4458 -0.2110 -0.4987
17539TIP3    H274109   0.844   2.223  14.319  0.7484  0.5258  0.1519
17540TIP3   OH274110   3.360   0.248  15.991  0.0281  0.0595 -0.6355
17540TIP3    H174111   3.340   0.340  15.977 -1.1106 -0.1718 -0.6888
17540TIP3    H274112   3.366   0.239  16.086  0.3131  0.2279 -0.6389
17541TIP3   OH274113   4.896   5.353  14.625 -0.4478  0.2501 -0.2931
17541TIP3    H174114   4.802   5.353  14.607 -0.3169 -0.6713 -1.1056
17541TIP3    H274115   4.931   5.289  14.563  0.9216  1.6974 -1.0949
17542TIP3   OH274116   3.674   4.763   1.976 -0.4551 -0.0835  0.0447
17542TIP3    H174117   3.667   4.842   2.029  0.2900 -1.3357  2.1177
17542TIP3    H274118   3.766   4.758   1.951 -0.9383  0.9499 -2.2351
17543TIP3   OH274119   5.826   3.130  12.992 -0.1996 -0.4622  0.5847
17543TIP3    H174120   5.790   3.154  13.077  0.5283  0.3594  0.6811
17543TIP3    H274121   5.775   3.053  12.964 -0.8043 -0.4046  1.5040
17544TIP3   OH274122   6.622   1.828   3.313  0.7166 -0.5300  0.0990
17544TIP3    H174123   6.689   1.764   3.286  0.4274 -0.9698  0.4121
17544TIP3    H274124   6.635   1.837   3.407 -0.7986 -1.9695  0.4831
17545TIP3   OH274125   4.274   6.329  13.001  0.0440 -0.4501  0.5118
17545TIP3    H174126   4.263   6.347  12.907 -2.1327 -0.5131  0.7027
17545TIP3    H274127   4.246   6.238  13.011  1.4600 -0.8447  1.0597
17546TIP3   OH274128   3.327   1.831  11.076 -0.0527 -0.3603  0.5097
17546TIP3    H174129   3.369   1.905  11.120  1.3132 -0.8692  0.1101
17546TIP3    H274130   3.342   1.847  10.983 -1.0304 -0.4128  0.3287
17547TIP3   OH274131   2.929   4.730  12.165 -0.1714  0.2189  0.6706
17547TIP3    H174132   2.953   4.648  12.121  1.0523  0.5351  0.7237
17547TIP3    H274133   3.010   4.761  12.204 -0.2523  2.2725 -0.6363
17548TIP3   OH274134   3.814   1.572   3.585  0.0821  0.4043 -0.1354
17548TIP3    H174135   3.815   1.666   3.568 -0.7898  0.5860  0.7215
17548TIP3    H274136   3.755   1.562   3.660 -1.8516 -1.0842 -1.7458
17549TIP3   OH274137   1.106   0.065   0.593 -0.1022  0.5032  0.0757
17549TIP3    H174138   1.039   0.087   0.528 -0.7891 -0.7294  0.3372
17549TIP3    H274139   1.064   0.000   0.650  1.9118 -1.7665 -0.8680
17550TIP3   OH274140   3.127   2.753   5.463 -0.5742  0.1046  0.8840
17550TIP3    H174141   3.180   2.677   5.439  0.4892  0.5720  1.6328
17550TIP3    H274142   3.041   2.738   5.423 -0.0346 -0.9412  0.1011
17551TIP3   OH274143   5.851   6.279  16.427  0.4890 -0.2197 -0.4427
17551TIP3    H174144   5.831   6.367  16.395  0.0201  0.4552  1.5211
17551TIP3    H274145   5.931   6.290  16.478  0.9398 -1.1256 -0.9498
17552TIP3   OH274146   4.207   3.747  10.563 -0.2096  0.1603 -0.3643
17552TIP3    H174147   4.118   3.764  10.591  0.1848  0.7361  0.6082
17552TIP3    H274148   4.209   3.653  10.545 -0.9028  0.0683  0.0128
17553TIP3   OH274149   0.669   1.876  15.678 -0.4274 -0.3604  0.3452
17553TIP3    H174150   0.760   1.853  15.694 -0.6972 -1.5863  0.1804
17553TIP3    H274151   0.654   1.853  15.586 -1.3514 -1.7544  0.8186
17554TIP3   OH274152   1.384   2.467  13.390 -0.7186  0.0214 -0.4161
17554TIP3    H174153   1.403   2.401  13.457  0.2769 -0.6340 -1.3000
17554TIP3    H274154   1.450   2.452  13.323 -1.1313  1.2570 -1.1290
17555TIP3   OH274155   5.234   6.345   3.361 -0.1839  0.1903 -0.2321
17555TIP3    H174156   5.239   6.281   3.431 -0.9806 -0.2399 -0.5530
17555TIP3    H274157   5.270   6.300   3.284 -1.2903 -0.0921 -0.5984
17556TIP3   OH274158   1.971   4.387  16.814  0.0303 -0.1599 -0.5249
17556TIP3    H174159   1.967   4.456  16.880  0.5344 -0.1636 -0.4923
17556TIP3    H274160   1.953   4.307  16.862 -0.1996 -0.0941 -0.5009
17557TIP3   OH274161   3.361   0.222   1.742 -0.0591 -0.1914 -0.2087
17557TIP3    H174162   3.333   0.296   1.797  0.0729 -0.5278  0.3120
17557TIP3    H274163   3.454   0.210   1.764  0.2255  0.2244 -1.1378
17558TIP3   OH274164   3.550   3.865   1.578  0.6035 -0.3594  0.0434
17558TIP3    H174165   3.583   3.794   1.523  0.4322 -1.1346  0.9179
17558TIP3    H274166   3.629   3.912   1.606  0.6855  0.1392 -0.9587
17559TIP3   OH274167   1.672   4.803   1.152 -0.9958  0.0075 -0.3689
17559TIP3    H174168   1.740   4.746   1.114 -1.6094 -0.3339 -0.9679
17559TIP3    H274169   1.670   4.778   1.245 -1.2535 -0.9678 -0.6191
17560TIP3   OH274170   6.610   1.995   1.373  0.1723 -0.3517  0.3069
17560TIP3    H174171   6.572   1.953   1.295 -1.2180  1.1355  0.1380
17560TIP3    H274172   6.612   1.926   1.439 -3.0946 -0.5129  0.3891
17561TIP3   OH274173   2.784   2.284   2.069  0.2065 -0.4459  0.0476
17561TIP3    H174174   2.785   2.192   2.041  0.1849 -0.0621 -1.2618
17561TIP3    H274175   2.844   2.287   2.144  1.1050 -1.3096 -0.6131
17562TIP3   OH274176   5.728   2.284  13.915  0.6779  0.7966  0.2113
17562TIP3    H174177   5.748   2.347  13.846 -0.0275 -0.3016 -1.0543
17562TIP3    H274178   5.804   2.226  13.917  0.2362  0.1868 -0.4090
17563TIP3   OH274179   6.298   1.735   3.597 -0.3066  0.0182 -0.2436
17563TIP3    H174180   6.300   1.827   3.571 -0.2550 -0.7155 -3.3109
17563TIP3    H274181   6.354   1.730   3.674  1.6443  2.2249 -1.4017
17564TIP3   OH274182   1.790   3.272  13.954  0.0001 -0.1340 -0.0683
17564TIP3    H174183   1.849   3.256  14.028  1.4970 -0.1381 -1.1952
17564TIP3    H274184   1.722   3.206  13.963  1.5371 -1.8077 -0.0585
17565TIP3   OH274185   4.293   1.827  16.353  0.3313 -0.2032  0.5517
17565TIP3    H174186   4.212   1.780  16.335 -0.1317  1.3846 -2.1046
17565TIP3    H274187   4.362   1.764  16.335 -0.2865 -0.1704 -2.5190
17566TIP3   OH274188   0.649   1.338  11.540 -0.6193 -0.7903 -0.7674
17566TIP3    H174189   0.737   1.354  11.574 -0.9500 -0.0432 -0.2369
17566TIP3    H274190   0.661   1.270  11.473  0.1056 -1.9146  0.4704
17567TIP3   OH274191   1.920   0.879  14.613  0.3430 -0.4690  0.2677
17567TIP3    H174192   1.972   0.889  14.533  0.0686 -2.6293 -0.2388
17567TIP3    H274193   1.881   0.965  14.627  0.5781  0.0291 -1.7963
17568TIP3   OH274194   4.895   3.425  17.207  0.0108  0.1098 -0.0062
17568TIP3    H174195   4.951   3.402  17.281 -0.2095  0.2692  0.2140
17568TIP3    H274196   4.951   3.415  17.130 -0.0893 -1.1900  0.0709
17569TIP3   OH274197   2.808   4.758   6.452  0.3903 -0.0718  0.3292
17569TIP3    H174198   2.736   4.717   6.405  0.6581 -1.0626  0.7455
17569TIP3    H274199   2.778   4.847   6.470  0.0071  0.0897 -1.0643
17570TIP3   OH274200   3.869   2.452   3.222 -0.1256 -0.4646  0.4669
17570TIP3    H174201   3.866   2.533   3.274 -0.1651  0.9834 -1.6919
17570TIP3    H274202   3.950   2.459   3.172 -0.4164 -1.5149 -0.1621
17571TIP3   OH274203   1.957   4.233  16.417  0.1202 -0.4036 -0.3102
17571TIP3    H174204   2.026   4.166  16.419  0.5312 -0.1297 -2.5308
17571TIP3    H274205   1.913   4.225  16.501  1.8980 -1.6236  0.5636
17572TIP3   OH274206   0.527   4.148  15.570 -0.4719  0.6284 -0.4649
17572TIP3    H174207   0.440   4.146  15.609  0.0033  0.2445  0.6133
17572TIP3    H274208   0.582   4.102  15.633  1.1052  3.4000  0.3336
17573TIP3   OH274209   4.486   3.777  13.515 -0.0333  0.3421  0.0377
17573TIP3    H174210   4.465   3.689  13.484  0.9893  0.0908  0.0290
17573TIP3    H274211   4.416   3.798  13.577 -0.5956 -0.2419 -0.3818
17574TIP3   OH274212   2.196   4.595   5.199 -0.0724  0.3076  0.6821
17574TIP3    H174213   2.276   4.556   5.166  0.3233  0.1856  1.7398
17574TIP3    H274214   2.178   4.668   5.140  0.2399 -0.2833 -0.1659
17575TIP3   OH274215   2.192   2.738  12.541 -0.0454  0.5639 -0.3369
17575TIP3    H174216   2.131   2.776  12.605  1.2749  1.9498  0.1828
17575TIP3    H274217   2.136   2.701  12.473 -1.4766  1.9793  0.0006
17576TIP3   OH274218   6.620   3.126   3.199  0.3797 -0.3086  0.2414
17576TIP3    H174219   6.618   3.033   3.177 -1.0988 -0.4816  0.9771
17576TIP3    H274220   6.562   3.167   3.135  1.8360  0.3110 -0.7548
17577TIP3   OH274221   0.702   0.109   3.092 -0.7220  0.0136 -0.3283
17577TIP3    H174222   0.795   0.104   3.068 -0.8217 -0.6527 -0.5926
17577TIP3    H274223   0.696   0.189   3.144 -0.5456  1.7026 -2.7310
17578TIP3   OH274224   4.061   2.012  15.179 -0.4442  0.1710  0.4176
17578TIP3    H174225   3.966   2.012  15.190 -0.2857  1.4263  2.2745
17578TIP3    H274226   4.091   1.933  15.223 -0.5266  0.5392  1.1450
17579TIP3   OH274227   1.986   3.344  16.132  0.6591  0.4852  0.2939
17579TIP3    H174228   1.897   3.342  16.167  0.3757  0.4625 -0.4094
17579TIP3    H274229   1.978   3.391  16.049  1.2596  0.2634  0.1059
17580TIP3   OH274230   3.299   5.241  13.190 -0.3261  0.1849 -0.4362
17580TIP3    H174231   3.327   5.284  13.271 -1.4138  1.4443 -0.7100
17580TIP3    H274232   3.224   5.187  13.216 -1.0509  1.0489 -0.6923
17581TIP3   OH274233   4.217   3.568  11.586  0.2801  0.2500  0.5407
17581TIP3    H174234   4.202   3.655  11.624  1.0585  1.0639 -0.9731
17581TIP3    H274235   4.136   3.548  11.540  0.1941  0.2793  0.6780
17582TIP3   OH274236   3.982   0.517   5.377 -1.0239  0.1485 -0.3179
17582TIP3    H174237   3.914   0.562   5.326 -0.6300 -0.6060 -1.5612
17582TIP3    H274238   3.956   0.529   5.468 -1.6353  1.7512 -0.6646
17583TIP3   OH274239   3.496   4.661   3.158 -0.3412 -0.0614  0.4427
17583TIP3    H174240   3.433   4.589   3.153 -0.5197  0.0409  1.1348
17583TIP3    H274241   3.474   4.717   3.083  0.5062 -1.2674 -0.7798
17584TIP3   OH274242   2.574   0.190   1.374 -0.6449 -0.1753  0.2299
17584TIP3    H174243   2.563   0.275   1.416  0.3081 -0.1245  0.4044
17584TIP3    H274244   2.590   0.129   1.447 -1.1352 -0.4749  0.0940
17585TIP3   OH274245   2.159   6.354  12.633 -0.2774  0.1542  0.2203
17585TIP3    H174246   2.226   6.292  12.662 -0.6366  0.9552  3.0199
17585TIP3    H274247   2.202   6.407  12.567  0.7197 -1.5948 -0.6097
17586TIP3   OH274248   1.784   2.679  12.770 -0.0290 -0.8389  0.2971
17586TIP3    H174249   1.832   2.639  12.842  1.5304 -0.8421 -0.7039
17586TIP3    H274250   1.828   2.763  12.756 -1.4090 -0.0593  0.4513
17587TIP3   OH274251   5.825   4.691  14.845  0.1224 -0.5838  0.3274
17587TIP3    H174252   5.762   4.645  14.789 -1.3288  0.4600  1.0573
17587TIP3    H274253   5.806   4.659  14.933  0.8643 -0.5123  0.5205
17588TIP3   OH274254   3.304   1.763   4.802  0.2965 -0.5929  0.1105
17588TIP3    H174255   3.390   1.730   4.777  0.7840  0.8311 -0.1567
17588TIP3    H274256   3.321   1.822   4.875 -0.2929  0.6568 -0.7421
17589TIP3   OH274257   0.066   5.215  12.642 -0.2240  0.2128 -0.5007
17589TIP3    H174258   0.131   5.146  12.628 -0.2875  0.4945 -2.5372
17589TIP3    H274259  -0.006   5.171  12.687  1.8776  0.2250  3.1895
17590TIP3   OH274260   0.805   4.575   1.022 -0.0137 -0.0734 -0.0430
17590TIP3    H174261   0.757   4.587   0.940 -0.1260  0.5126  0.1003
17590TIP3    H274262   0.780   4.651   1.076 -0.5703 -0.8605  0.8482
17591TIP3   OH274263   1.373   4.810   0.522 -0.0670  0.9505  0.6480
17591TIP3    H174264   1.291   4.783   0.564  0.7439 -0.7598  1.2269
17591TIP3    H274265   1.440   4.754   0.562  1.2747  1.7393 -0.4063
17592TIP3   OH274266   6.369   4.735  17.158  0.4699  0.3401  0.2770
17592TIP3    H174267   6.422   4.717  17.080  1.3054  0.9121  0.7026
17592TIP3    H274268   6.282   4.701  17.136  0.4971  1.1515 -1.1870
17593TIP3   OH274269   1.656   2.339   6.022 -0.2297 -0.4782 -0.3577
17593TIP3    H174270   1.591   2.352   5.952  0.4251 -2.5194 -1.4086
17593TIP3    H274271   1.670   2.245   6.025  1.7585 -0.1995  0.7293
17594TIP3   OH274272   6.130   4.537  11.455 -0.3312  0.1267  0.1856
17594TIP3    H174273   6.141   4.501  11.367 -1.7639 -0.3467  0.1648
17594TIP3    H274274   6.214   4.577  11.476 -0.0749  0.5570 -1.5367
17595TIP3   OH274275   5.772   6.010  13.088  0.3230 -0.2019 -0.4903
17595TIP3    H174276   5.847   6.001  13.147  0.3612  1.0419 -0.3170
17595TIP3    H274277   5.746   6.102  13.096 -0.4690 -0.3196 -1.4601
17596TIP3   OH274278   0.154   0.357  12.293  0.1293 -0.2463 -0.1983
17596TIP3    H174279   0.080   0.310  12.255 -0.1578  0.5242 -0.6149
17596TIP3    H274280   0.160   0.437  12.242  0.0112  0.6142  1.0902
17597TIP3   OH274281   3.416   5.029  11.354  0.6099 -0.0623 -0.4631
17597TIP3    H174282   3.398   4.942  11.389  0.9449 -0.0362 -0.2231
17597TIP3    H274283   3.336   5.052  11.306 -1.3346  1.3071  3.0377
17598TIP3   OH274284   3.254   3.260   4.060 -0.3655  0.0265  0.2796
17598TIP3    H174285   3.275   3.289   3.971 -2.6039 -0.6817 -0.5437
17598TIP3    H274286   3.187   3.321   4.090  1.4020  1.1839  2.1295
17599TIP3   OH274287   5.558   0.678  15.986 -0.1259 -0.2315  0.1623
17599TIP3    H174288   5.582   0.588  16.009  0.5482  0.0255  0.4679
17599TIP3    H274289   5.515   0.711  16.065 -0.9218 -0.4752 -0.1587
17600TIP3   OH274290   1.226   1.273   0.730 -0.2278  0.1378 -0.4306
17600TIP3    H174291   1.193   1.191   0.693 -0.1081 -0.3064  0.4267
17600TIP3    H274292   1.149   1.314   0.768  0.2813 -1.5047  2.7219
17601TIP3   OH274293   1.243   5.728  13.688  0.3290  0.0990  0.1776
17601TIP3    H174294   1.256   5.754  13.597  1.2246  0.4187  0.3828
17601TIP3    H274295   1.234   5.810  13.735 -1.8032 -0.0845  0.1766
17602TIP3   OH274296   5.506   3.496  12.151 -0.1689 -0.6266  0.4225
17602TIP3    H174297   5.455   3.533  12.079  0.2442  1.0561  0.9471
17602TIP3    H274298   5.444   3.444  12.201 -0.7109 -0.8941 -0.5232
17603TIP3   OH274299   4.109   2.541  14.691 -0.2977 -0.0297 -0.6651
17603TIP3    H174300   4.037   2.604  14.698 -2.2064 -2.0481 -0.9324
17603TIP3    H274301   4.186   2.590  14.717 -1.6525  2.4309 -0.9380
17604TIP3   OH274302   4.807   4.564  11.785  0.3142  0.0898  0.5046
17604TIP3    H174303   4.831   4.585  11.695 -0.4108  1.9412  0.7055
17604TIP3    H274304   4.749   4.488  11.778  1.6686 -0.8890 -0.4172
17605TIP3   OH274305   1.774   6.105   3.620  0.2193 -0.8341 -0.6049
17605TIP3    H174306   1.727   6.156   3.553  0.1532 -0.5718 -0.3610
17605TIP3    H274307   1.741   6.016   3.610 -0.3901 -0.6382 -0.3872
17606TIP3   OH274308   3.554   4.043  15.714 -0.0220 -0.8809 -0.0905
17606TIP3    H174309   3.472   4.015  15.673  0.9994 -0.7872 -2.4030
17606TIP3    H274310   3.600   3.961  15.733 -1.0126 -0.9762  2.1747
17607TIP3   OH274311   3.727   3.586  11.632  0.3646 -0.1870 -0.3295
17607TIP3    H174312   3.725   3.548  11.544  1.4794 -0.7831 -0.1238
17607TIP3    H274313   3.701   3.514  11.689 -2.6549  0.7934 -0.2796
17608TIP3   OH274314   3.755   1.666  16.591 -0.0864 -0.3541  0.3160
17608TIP3    H174315   3.691   1.613  16.638  0.2361 -1.3955 -0.3774
17608TIP3    H274316   3.747   1.637  16.500  0.0424  0.8626 -0.1006
17609TIP3   OH274317   3.593   6.428   4.409  0.3891 -0.5842 -0.9222
17609TIP3    H174318   3.634   6.424   4.323 -0.0134 -1.4993 -1.0823
17609TIP3    H274319   3.524   6.493   4.400  0.6418 -0.3474 -1.1591
17610TIP3   OH274320   1.101   2.444   0.128  0.1722  0.2403  0.1483
17610TIP3    H174321   1.037   2.500   0.085  0.3826  1.6845  1.5956
17610TIP3    H274322   1.079   2.355   0.099 -1.6689  0.8200 -0.3864
17611TIP3   OH274323   2.573   2.525   2.486 -0.1042 -0.1637  0.4955
17611TIP3    H174324   2.512   2.598   2.489  1.4665  1.2474 -0.0755
17611TIP3    H274325   2.659   2.566   2.495  0.8335 -1.9340  0.0310
17612TIP3   OH274326   2.548   1.247  12.085  0.0197 -0.1705 -0.8168
17612TIP3    H174327   2.465   1.239  12.132  0.9332 -0.6448  0.8208
17612TIP3    H274328   2.601   1.175  12.118  1.2290  0.3647 -1.5262
17613TIP3   OH274329   1.003   3.071  11.231  0.4627 -0.1666 -0.5964
17613TIP3    H174330   0.915   3.040  11.251  0.7699 -1.3584 -1.0347
17613TIP3    H274331   1.019   3.043  11.141  2.2426 -2.2567  0.3002
17614TIP3   OH274332   5.564   3.055   3.370  0.0533  0.1427  0.3406
17614TIP3    H174333   5.475   3.057   3.334  0.4168 -1.3683 -0.7293
17614TIP3    H274334   5.562   2.984   3.434  0.4693  0.1616  0.3750
17615TIP3   OH274335   0.684   0.475  14.516 -0.0687  0.0525  0.1923
17615TIP3    H174336   0.727   0.404  14.563 -0.6059 -2.0509 -2.2618
17615TIP3    H274337   0.755   0.518  14.468  0.4544  2.1005  2.5941
17616TIP3   OH274338   2.687   1.036   4.155  0.8014  0.3869  0.0897
17616TIP3    H174339   2.678   1.074   4.242  1.8953 -1.9382  1.3188
17616TIP3    H274340   2.713   1.108   4.099  3.5854  1.3616  2.4099
17617TIP3   OH274341   6.473   6.345  16.067 -0.0426 -0.0871 -0.4620
17617TIP3    H174342   6.558   6.383  16.046  0.5248 -1.7346 -1.3000
17617TIP3    H274343   6.492   6.255  16.092 -1.4897 -0.3068 -0.0412
17618TIP3   OH274344   1.200   0.694   4.151 -0.4684  0.2650  0.0459
17618TIP3    H174345   1.198   0.678   4.246  1.5957  3.1752  0.7045
17618TIP3    H274346   1.277   0.749   4.138  1.0191 -2.3286 -3.7973
17619TIP3   OH274347   4.773   4.330  10.936 -0.4226 -0.3221  0.3093
17619TIP3    H174348   4.718   4.254  10.955 -2.6594  0.9016 -0.8124
17619TIP3    H274349   4.828   4.302  10.863 -0.4266 -1.2234  0.6449
17620TIP3   OH274350   4.701   5.648   1.445  0.0198 -0.0945  0.4521
17620TIP3    H174351   4.757   5.667   1.370  1.2505 -0.4591  1.2398
17620TIP3    H274352   4.762   5.634   1.517 -0.7824 -4.2855  0.5707
17621TIP3   OH274353   3.844   0.419   3.583 -0.2880 -0.4049 -1.3147
17621TIP3    H174354   3.798   0.488   3.631 -0.5139 -1.8822  0.7546
17621TIP3    H274355   3.930   0.414   3.625 -0.1092 -1.0670 -1.7453
17622TIP3   OH274356   5.110   3.987  12.683  0.3344 -0.0615 -1.1471
17622TIP3    H174357   5.137   4.030  12.764  1.2244 -0.6651 -1.1087
17622TIP3    H274358   5.184   3.932  12.659 -1.2788 -2.7167 -0.4180
17623TIP3   OH274359   0.175   3.360  14.699 -0.4555 -0.4122 -0.2401
17623TIP3    H174360   0.172   3.293  14.631 -1.3917  0.7349 -1.3705
17623TIP3    H274361   0.268   3.372  14.717 -0.2646 -1.7497 -0.2793
17624TIP3   OH274362   2.136   4.115   1.810 -0.2664  0.0745  0.1505
17624TIP3    H174363   2.076   4.141   1.880  0.2716  1.1073  0.2550
17624TIP3    H274364   2.202   4.061   1.853  1.2418  2.3813  0.9189
17625TIP3   OH274365   2.019   5.291  11.716 -0.2934 -0.5184 -0.8130
17625TIP3    H174366   1.978   5.320  11.634 -0.9290  1.1213  0.0305
17625TIP3    H274367   2.029   5.372  11.766 -0.1002 -1.5221  0.7977
17626TIP3   OH274368   0.213   1.670   5.284 -0.6137  0.2652  0.2138
17626TIP3    H174369   0.195   1.575   5.282 -1.0162  0.3539 -0.6472
17626TIP3    H274370   0.273   1.681   5.358  0.0848 -0.7760 -0.1708
17627TIP3   OH274371   1.877   0.840   2.713 -0.3201 -0.4512 -0.2893
17627TIP3    H174372   1.839   0.752   2.707  2.4460 -1.9795  2.0568
17627TIP3    H274373   1.972   0.826   2.709  0.2176  2.5659 -0.7586
17628TIP3   OH274374   1.495   6.349  11.721 -0.4859 -0.1643  0.4788
17628TIP3    H174375   1.494   6.430  11.671 -3.8328 -0.1323  0.3397
17628TIP3    H274376   1.545   6.288  11.668 -0.8805  0.8632 -1.1444
17629TIP3   OH274377   6.297   0.948   3.201 -0.1658  0.5303  0.1771
17629TIP3    H174378   6.280   1.033   3.241 -0.3403 -0.7019  2.9384
17629TIP3    H274379   6.211   0.913   3.178 -0.1851  0.5782  0.1788
17630TIP3   OH274380   3.576   4.936  15.161 -0.4502  0.3871  0.4391
17630TIP3    H174381   3.493   4.963  15.124  0.4916  0.8612 -1.4366
17630TIP3    H274382   3.561   4.845  15.189 -1.6880  0.5939  0.4989
17631TIP3   OH274383   0.393   3.413  15.156 -0.2243 -0.0048 -0.0327
17631TIP3    H174384   0.449   3.404  15.079  0.2969 -1.0042  0.4428
17631TIP3    H274385   0.311   3.370  15.131  0.3943 -1.4843  0.3866
17632TIP3   OH274386   2.518   0.212   0.661 -0.5100 -0.1750  0.4999
17632TIP3    H174387   2.531   0.213   0.566 -1.3059 -0.6435  0.3783
17632TIP3    H274388   2.448   0.147   0.675 -0.6524  0.1562  1.3691
17633TIP3   OH274389   4.803   2.652  14.286  0.5614  0.1274  0.6558
17633TIP3    H174390   4.834   2.631  14.373  0.1158  0.7738  0.9809
17633TIP3    H274391   4.829   2.743  14.272 -0.1130  0.2972  0.4574
17634TIP3   OH274392   0.986   3.772  16.203  0.1359 -0.1968 -0.2885
17634TIP3    H174393   0.956   3.706  16.265  0.9749 -0.6689 -0.3749
17634TIP3    H274394   0.975   3.731  16.117  0.2018 -0.0389 -0.3733
17635TIP3   OH274395   3.429   6.316  15.483 -0.0046  0.4011 -0.0346
17635TIP3    H174396   3.361   6.274  15.431  0.1785  0.3724 -0.2513
17635TIP3    H274397   3.511   6.293  15.440  0.0748  1.2870 -0.3888
17636TIP3   OH274398   0.658   4.643  11.956  0.3497  0.0471  0.3330
17636TIP3    H174399   0.703   4.689  11.885 -1.5392  2.8764  0.8174
17636TIP3    H274400   0.704   4.559  11.963  2.0403  0.5801 -2.6858
17637TIP3   OH274401   5.776   6.389   4.941  0.2864  0.6576  0.0769
17637TIP3    H174402   5.775   6.475   4.899  0.9027  0.8490  0.4431
17637TIP3    H274403   5.863   6.382   4.980  0.2361 -0.1280  0.0630
17638TIP3   OH274404   2.445   0.521  11.710  0.5002  0.2166  0.1016
17638TIP3    H174405   2.433   0.443  11.764  4.8369 -1.7356 -1.2925
17638TIP3    H274406   2.363   0.529  11.661 -1.0205 -1.9447  2.0815
17639TIP3   OH274407   0.777   2.777  16.995  0.0058  0.0826 -0.3667
17639TIP3    H174408   0.740   2.817  17.074 -1.9826  0.9301 -1.6335
17639TIP3    H274409   0.867   2.812  16.990 -0.5965  1.8542  0.3216
17640TIP3   OH274410   3.424   4.917   4.493 -0.4667 -0.6673 -0.0113
17640TIP3    H174411   3.399   4.843   4.437 -1.3208 -1.1163  0.9274
17640TIP3    H274412   3.345   4.970   4.499 -0.3768 -0.6114  0.7362
17641TIP3   OH274413   0.062   4.748  13.757 -0.1102 -0.2145 -0.0091
17641TIP3    H174414   0.158   4.752  13.759  0.0635  3.2359 -3.4486
17641TIP3    H274415   0.042   4.666  13.713  1.2606 -0.8583  0.5145
17642TIP3   OH274416   0.804   3.875   4.761 -0.5869  0.0311  0.0343
17642TIP3    H174417   0.759   3.916   4.688  0.1857 -0.4244 -0.7264
17642TIP3    H274418   0.872   3.938   4.786  0.3900 -0.6082 -0.9218
17643TIP3   OH274419   6.219   1.265  14.069  0.1831 -0.3426 -0.4214
17643TIP3    H174420   6.289   1.257  14.134  1.2103  0.5661 -1.3544
17643TIP3    H274421   6.212   1.359  14.052 -1.0129 -0.4509 -0.6340
17644TIP3   OH274422   0.439   0.590   0.436  0.6714 -0.5901 -0.1226
17644TIP3    H174423   0.458   0.666   0.493  0.4116 -0.4697 -0.1945
17644TIP3    H274424   0.365   0.619   0.383  1.4402 -0.3996 -1.1085
17645TIP3   OH274425   4.881   4.731  13.136  0.2359  0.2961 -0.1692
17645TIP3    H174426   4.858   4.712  13.227 -0.4583 -0.4127 -0.4804
17645TIP3    H274427   4.808   4.783  13.103  0.0654 -0.1913 -0.5654
17646TIP3   OH274428   1.398   5.672  14.382  0.1246  0.4911 -0.4196
17646TIP3    H174429   1.370   5.624  14.460  2.0815 -1.2825 -0.7278
17646TIP3    H274430   1.436   5.753  14.415 -1.7452  1.1498  0.2283
17647TIP3   OH274431   4.877   3.028  12.222 -0.0059 -0.9008 -0.8005
17647TIP3    H174432   4.909   2.944  12.256 -1.0276 -0.4351  1.4723
17647TIP3    H274433   4.941   3.051  12.154  0.9877 -2.8976 -0.6419
17648TIP3   OH274434   5.323   5.021  12.730  0.1275  0.5693  0.0492
17648TIP3    H174435   5.312   4.982  12.643  1.7978  1.9253 -0.8196
17648TIP3    H274436   5.380   4.960  12.776 -0.5751 -0.0340  0.1525
17649TIP3   OH274437   2.823   2.832  13.496  1.3416  0.0870 -0.0537
17649TIP3    H174438   2.737   2.792  13.486 -0.0698  2.7722  0.3568
17649TIP3    H274439   2.868   2.816  13.413 -0.6517  1.0150 -1.3718
17650TIP3   OH274440   6.809   4.668  16.630 -0.1244  0.1388 -0.5641
17650TIP3    H174441   6.749   4.700  16.562  0.8313  2.8740 -0.2601
17650TIP3    H274442   6.770   4.696  16.712 -0.1409 -1.1359 -0.1320
17651TIP3   OH274443   2.006   3.663   0.548  0.0805 -0.4043  0.2685
17651TIP3    H174444   1.990   3.734   0.486  3.0639 -1.6440 -2.2007
17651TIP3    H274445   1.947   3.593   0.520  0.8026 -0.6512 -0.6979
17652TIP3   OH274446   5.484   3.095  12.718 -0.1723 -0.0745  0.4403
17652TIP3    H174447   5.492   3.170  12.777  0.7306  0.2327 -0.0452
17652TIP3    H274448   5.524   3.022  12.764  1.7239  0.4644 -0.2720
17653TIP3   OH274449   5.672   2.807  10.817  0.1226 -0.5088  0.1174
17653TIP3    H174450   5.730   2.742  10.778 -0.3688 -0.3926 -0.8419
17653TIP3    H274451   5.639   2.766  10.896 -0.6021 -1.6525 -0.7543
17654TIP3   OH274452   0.519   6.772   6.524  0.5991  0.0264 -0.6911
17654TIP3    H174453   0.577   6.833   6.570  0.6570 -0.0223 -0.6991
17654TIP3    H274454   0.437   6.820   6.513  0.2239 -0.3317  0.4229
17655TIP3   OH274455   4.663   1.322  15.424  0.3826 -0.7288  0.0716
17655TIP3    H174456   4.725   1.386  15.460  0.5941 -0.4495 -0.7682
17655TIP3    H274457   4.717   1.267  15.367 -0.4621  0.8197 -2.3676
17656TIP3   OH274458   6.564   3.314  13.705 -0.0397  0.2597 -0.3759
17656TIP3    H174459   6.504   3.333  13.777 -0.9039  2.0184 -1.4862
17656TIP3    H274460   6.585   3.400  13.668  1.5727 -0.4835 -1.2958
17657TIP3   OH274461   1.757   0.533   1.055  0.0048 -0.5543  0.1027
17657TIP3    H174462   1.692   0.509   0.989  0.0525 -2.0724  0.5663
17657TIP3    H274463   1.841   0.513   1.015  0.4125  2.9172 -1.1294
17658TIP3   OH274464   1.399   5.631   1.190  0.3239  0.0996 -0.8157
17658TIP3    H174465   1.484   5.590   1.174  0.9425  1.5805 -1.5699
17658TIP3    H274466   1.369   5.658   1.103  0.1911  1.6580 -0.3112
17659TIP3   OH274467   4.581   2.426   1.848  0.1096 -0.0279  0.3500
17659TIP3    H174468   4.516   2.489   1.878  0.2831 -1.0280  3.1869
17659TIP3    H274469   4.534   2.342   1.849  0.9672 -0.5145  0.7522
17660TIP3   OH274470   3.063   5.221  13.490  0.1447  0.1324 -0.1704
17660TIP3    H174471   3.048   5.189  13.400  0.8774  0.6069 -0.4682
17660TIP3    H274472   2.975   5.231  13.526 -0.1457 -0.5697 -0.6559
17661TIP3   OH274473   5.070   5.699  12.507  0.0939  0.3433 -0.6093
17661TIP3    H174474   5.122   5.647  12.569  0.2518 -0.3444 -1.3003
17661TIP3    H274475   5.014   5.753  12.563  0.2141 -0.2765  0.1367
17662TIP3   OH274476   2.436   4.035  11.877 -0.0132 -0.2559 -0.1009
17662TIP3    H174477   2.524   4.073  11.871 -0.3534  0.6015  0.1367
17662TIP3    H274478   2.422   4.021  11.970  0.1056 -0.9846 -0.1855
17663TIP3   OH274479   4.593   4.783   2.141  0.1340 -0.0194  0.2592
17663TIP3    H174480   4.511   4.735   2.126  2.0045 -3.3972 -0.2194
17663TIP3    H274481   4.604   4.783   2.236  0.9780 -2.3236  0.2122
17664TIP3   OH274482   4.654   0.459   0.489 -0.0295  0.3302  0.3283
17664TIP3    H174483   4.601   0.483   0.412 -0.1131 -1.9118 -0.3667
17664TIP3    H274484   4.724   0.404   0.454 -0.3451 -1.1379  1.9125
17665TIP3   OH274485   0.877   5.848  15.868 -0.4071  0.2850 -0.2661
17665TIP3    H174486   0.852   5.763  15.905  2.5414 -0.4465  0.2676
17665TIP3    H274487   0.879   5.833  15.773  1.7066 -0.8084 -0.0999
17666TIP3   OH274488   3.382   1.205   5.924  0.3639  0.6008  0.2181
17666TIP3    H174489   3.402   1.285   5.972 -0.6381  1.2758 -0.4467
17666TIP3    H274490   3.376   1.234   5.832 -1.2056  0.0059  0.1103
17667TIP3   OH274491   3.253   5.607  10.783 -0.2176  0.0735  0.6986
17667TIP3    H174492   3.317   5.606  10.854 -0.2153 -2.2561  0.7116
17667TIP3    H274493   3.254   5.698  10.752  0.8264  0.8059  2.7085
17668TIP3   OH274494   3.611   0.485  15.060  0.0057 -0.4407  0.5061
17668TIP3    H174495   3.646   0.437  15.136  2.1304  2.4851  1.5755
17668TIP3    H274496   3.672   0.467  14.989  1.3398  1.2160  1.1592
17669TIP3   OH274497   4.577   0.731  11.830 -0.4369 -0.0194 -0.6388
17669TIP3    H174498   4.490   0.727  11.869  0.3199 -0.0004  1.1600
17669TIP3    H274499   4.632   0.678  11.889  1.2613  2.0428 -0.2494
17670TIP3   OH274500   5.003   2.186  13.365  0.4577 -0.0966 -0.7391
17670TIP3    H174501   5.091   2.184  13.403  0.0725 -1.9906  0.1702
17670TIP3    H274502   5.008   2.126  13.290 -0.1272 -0.4546 -0.4988
17671TIP3   OH274503   4.161   6.105  15.772 -0.4788  0.2444  0.0034
17671TIP3    H174504   4.223   6.043  15.811  1.8970  2.5235  0.1156
17671TIP3    H274505   4.092   6.114  15.839  0.9138  0.2867  1.5063
17672TIP3   OH274506   0.335   2.737  11.478  0.4142  0.0205  1.1023
17672TIP3    H174507   0.351   2.820  11.522  2.0342 -0.3882  1.3805
17672TIP3    H274508   0.395   2.738  11.404 -2.3135  0.7245 -1.2519
17673TIP3   OH274509   1.888   4.484  12.227 -0.3628  0.3662  0.6696
17673TIP3    H174510   1.804   4.447  12.252 -0.0784  0.0915  1.2593
17673TIP3    H274511   1.943   4.408  12.206  0.3975  0.3743  2.4349
17674TIP3   OH274512   3.000   2.091   3.791 -0.1019 -0.0308  0.1128
17674TIP3    H174513   3.045   2.055   3.714  3.3378  0.3966  1.7157
17674TIP3    H274514   3.039   2.177   3.803 -0.6085 -0.0413  2.2316
17675TIP3   OH274515   5.964   2.868   2.803  0.0502 -0.2193  0.1778
17675TIP3    H174516   6.007   2.793   2.844  1.6684  0.8938  0.6398
17675TIP3    H274517   5.911   2.830   2.733 -0.3263 -1.8971  1.3085
17676TIP3   OH274518   0.937   0.676  15.058 -0.0235  0.2192  0.0530
17676TIP3    H174519   0.974   0.700  14.973 -0.2155  1.6082  0.3339
17676TIP3    H274520   0.964   0.586  15.071  2.8583  0.9642 -0.0242
17677TIP3   OH274521   0.748   4.449  12.397  0.0273  0.4868 -0.2587
17677TIP3    H174522   0.689   4.477  12.327  0.2859 -1.3392 -1.2888
17677TIP3    H274523   0.694   4.445  12.475 -0.8125  0.4918 -0.8244
17678TIP3   OH274524   1.091   4.161  11.453 -0.1321 -0.1064  0.4117
17678TIP3    H174525   1.057   4.248  11.433 -3.1464 -0.8013  2.0051
17678TIP3    H274526   1.166   4.151  11.394 -1.0789  2.6247 -1.4639
17679TIP3   OH274527   4.057   0.130   0.187  0.3095  0.0086 -0.4782
17679TIP3    H174528   4.098   0.095   0.266  2.4374  1.4440 -0.8484
17679TIP3    H274529   4.023   0.054   0.141  0.1883 -0.9797  1.1804
17680TIP3   OH274530   0.286   4.681   5.000 -0.2781 -0.4464 -0.1461
17680TIP3    H174531   0.287   4.776   4.994 -0.9688 -0.4112  0.1447
17680TIP3    H274532   0.260   4.662   5.090  0.4226 -0.9154 -0.0372
17681TIP3   OH274533   0.833   3.245  12.401  0.1123 -0.4270 -0.1624
17681TIP3    H174534   0.849   3.240  12.495  1.7414 -0.1974 -0.3956
17681TIP3    H274535   0.917   3.273  12.364 -0.4266 -0.7634 -1.7069
17682TIP3   OH274536   2.506   4.606   4.887  0.6393 -0.1114 -0.0853
17682TIP3    H174537   2.585   4.654   4.913  0.1321  1.5142 -1.3594
17682TIP3    H274538   2.516   4.593   4.792 -1.2842  1.5310 -0.5874
17683TIP3   OH274539   5.460   2.547   0.907  0.3836  0.5279  0.4493
17683TIP3    H174540   5.396   2.549   0.836  0.4000 -1.2257  0.3453
17683TIP3    H274541   5.495   2.458   0.906  2.2785  1.2177  1.0077
17684TIP3   OH274542   2.225   2.225   3.578  0.2206  0.2626 -0.4957
17684TIP3    H174543   2.159   2.162   3.606  1.7403 -1.6756 -1.0371
17684TIP3    H274544   2.179   2.283   3.518 -1.2008 -0.4362 -0.1277
17685TIP3   OH274545   1.987   3.896  12.486 -0.3573 -1.1927  0.8178
17685TIP3    H174546   2.010   3.853  12.404  1.8733  2.0759 -0.4740
17685TIP3    H274547   2.070   3.910  12.530 -1.1625  0.0868  2.0030
17686TIP3   OH274548   1.936   2.141   3.829 -0.0862  0.0837  0.0387
17686TIP3    H174549   1.946   2.046   3.836  0.6652  0.1493 -0.0512
17686TIP3    H274550   1.952   2.161   3.737  0.9522  0.4178  0.2770
17687TIP3   OH274551   3.414   1.918  15.297  0.2419  0.3477  0.0308
17687TIP3    H174552   3.358   1.849  15.333  0.2794  0.0219 -0.5201
17687TIP3    H274553   3.500   1.877  15.288  0.7977  1.0683  1.5979
17688TIP3   OH274554   1.127   1.049   4.151 -0.0545 -0.0906 -0.1431
17688TIP3    H174555   1.056   1.093   4.104  0.4034  0.8857  0.0532
17688TIP3    H274556   1.176   1.003   4.083  0.7756  1.5459 -0.7035
17689TIP3   OH274557   5.766   2.248  15.896  0.3791  0.5609 -0.2076
17689TIP3    H174558   5.858   2.268  15.911  0.1985  1.2473 -0.0100
17689TIP3    H274559   5.719   2.291  15.967 -0.0188 -0.6045  0.2682
17690TIP3   OH274560   4.909   2.089  13.048  0.3141 -0.1469  0.3720
17690TIP3    H174561   4.990   2.131  13.019  0.2338  0.7836  1.4162
17690TIP3    H274562   4.849   2.099  12.975  0.4324  1.2251  0.4417
17691TIP3   OH274563   2.992   0.443  13.026  0.6392 -0.3077  0.0720
17691TIP3    H174564   3.084   0.463  13.044  0.6948 -0.2002 -0.3281
17691TIP3    H274565   2.944   0.492  13.092  0.7207  1.9929 -1.4637
17692TIP3   OH274566   6.407   2.408   3.406  0.4599 -0.1759  0.0521
17692TIP3    H174567   6.402   2.504   3.408  0.8608 -0.1486 -0.2107
17692TIP3    H274568   6.325   2.379   3.447  0.0355  0.2717 -0.4584
17693TIP3   OH274569   1.849   0.725   5.240 -0.0013 -0.1271 -0.2006
17693TIP3    H174570   1.874   0.811   5.275 -0.4382  0.8192 -2.0794
17693TIP3    H274571   1.927   0.671   5.249  0.2605  0.4278  1.0658
17694TIP3   OH274572   1.956   3.239   2.588  0.3126  0.5862  0.2565
17694TIP3    H174573   1.979   3.332   2.583 -0.3121  0.6980 -0.9512
17694TIP3    H274574   1.922   3.227   2.677  2.3543  1.0247  1.1336
17695TIP3   OH274575   3.189   0.269  13.887  0.1441  0.0565 -0.0321
17695TIP3    H174576   3.170   0.352  13.843 -1.9875 -0.5248 -0.3073
17695TIP3    H274577   3.258   0.229  13.833  1.6029  1.8243  0.4055
17696TIP3   OH274578   3.578   2.355  15.200  0.1107  0.0876  0.2405
17696TIP3    H174579   3.622   2.287  15.150  0.6811  0.3533  0.3720
17696TIP3    H274580   3.576   2.431  15.140  0.9732  0.4685  0.6716
17697TIP3   OH274581   3.452   3.352  17.231 -0.1019 -0.2656  0.0262
17697TIP3    H174582   3.495   3.358  17.145  0.1591 -0.0542  0.1687
17697TIP3    H274583   3.371   3.400  17.221  1.4269  2.7224  0.8362
17698TIP3   OH274584   6.682   0.963   4.795  0.1315  0.3574  0.2757
17698TIP3    H174585   6.601   0.959   4.744 -0.1580 -0.5271  0.7830
17698TIP3    H274586   6.731   1.036   4.757  0.5547 -1.1335 -2.1858
17699TIP3   OH274587   4.670   6.505  11.618 -0.7554  0.3236  0.1440
17699TIP3    H174588   4.738   6.448  11.653  0.6571  1.0734 -1.2131
17699TIP3    H274589   4.673   6.491  11.523 -1.3557  1.5764 -0.0940
17700TIP3   OH274590   3.354   3.031   1.662 -0.0249 -0.2270 -0.6862
17700TIP3    H174591   3.302   2.975   1.721 -0.9037  0.3947 -0.8434
17700TIP3    H274592   3.360   3.115   1.708 -0.3384  0.1268 -1.2742
17701TIP3   OH274593   2.128   5.989  10.943  0.1653  0.3878 -0.0031
17701TIP3    H174594   2.092   6.069  10.980 -2.0433 -1.2768  1.6779
17701TIP3    H274595   2.079   5.975  10.862  0.0514  0.3477  0.0738
17702TIP3   OH274596   6.216   2.612   5.813 -0.0856  0.0156  0.5297
17702TIP3    H174597   6.309   2.625   5.793 -0.0903 -1.8434 -0.9656
17702TIP3    H274598   6.215   2.588   5.906  1.0937 -1.1585  0.2746
17703TIP3   OH274599   2.174   2.118  15.188 -0.0472  0.0994  0.0501
17703TIP3    H174600   2.193   2.126  15.095  0.0149  1.3794  0.1462
17703TIP3    H274601   2.079   2.106  15.193 -0.1330  0.6366 -0.1685
17704TIP3   OH274602   5.400   2.822  11.374 -0.0540  0.5483 -0.1449
17704TIP3    H174603   5.352   2.838  11.455  0.1835  0.0603  0.0946
17704TIP3    H274604   5.344   2.761  11.326  0.0903  0.3692 -0.0856
17705TIP3   OH274605   6.283   4.460   0.271 -0.2356 -0.8671  0.0386
17705TIP3    H174606   6.200   4.508   0.267 -0.1639 -0.8254 -1.2374
17705TIP3    H274607   6.265   4.378   0.224  0.4083 -0.9159 -0.1245
17706TIP3   OH274608   4.700   1.645  14.000  0.2419  0.1378 -0.6997
17706TIP3    H174609   4.749   1.680  13.925  0.6839 -0.0546 -0.5026
17706TIP3    H274610   4.653   1.569  13.964 -0.1290  0.4790 -0.9505
17707TIP3   OH274611   2.740   1.717   3.684  0.3274 -0.0239 -0.3254
17707TIP3    H174612   2.793   1.795   3.668  0.0134  0.2611  0.0075
17707TIP3    H274613   2.654   1.738   3.647  0.3807 -0.4071 -0.6815
17708TIP3   OH274614   6.223   4.695   2.009  0.3455 -0.3928 -0.0129
17708TIP3    H174615   6.204   4.731   2.096 -1.7871  0.0742 -0.6136
17708TIP3    H274616   6.286   4.756   1.971 -0.7857  0.9420  0.1971
17709TIP3   OH274617   5.809   5.970   3.399  0.1394 -0.0110  0.5654
17709TIP3    H174618   5.902   5.951   3.390  0.0896  0.1382 -0.4205
17709TIP3    H274619   5.804   6.037   3.467  0.8919  0.9554 -0.3010
17710TIP3   OH274620   3.893   0.283   1.962  0.5287  0.4094  0.2537
17710TIP3    H174621   3.876   0.289   2.056 -0.1024  0.9808  0.1179
17710TIP3    H274622   3.809   0.307   1.921  1.1457  1.4718 -0.4539
17711TIP3   OH274623   5.596   3.761   4.066 -0.0750  0.0039  0.2574
17711TIP3    H174624   5.669   3.774   4.126  0.2009  2.2859 -0.4999
17711TIP3    H274625   5.572   3.849   4.036 -0.6356 -0.9537 -2.4442
17712TIP3   OH274626   1.007   3.214   2.775  0.2144 -0.1042 -0.6492
17712TIP3    H174627   1.043   3.302   2.767  0.4652 -0.1952 -0.5377
17712TIP3    H274628   1.065   3.159   2.722  1.2652 -0.5334  0.8672
17713TIP3   OH274629   3.537   2.949   2.994 -0.1230  0.0701 -0.5406
17713TIP3    H174630   3.507   2.998   2.918 -1.4673  0.2864  0.0969
17713TIP3    H274631   3.625   2.983   3.011  0.5282 -0.5197 -2.4175
17714TIP3   OH274632   0.125   4.860  14.492 -0.0461  0.2368  0.4266
17714TIP3    H174633   0.034   4.875  14.518 -0.0477  1.0437 -0.0063
17714TIP3    H274634   0.136   4.765  14.497 -1.8985 -0.2803 -2.6611
17715TIP3   OH274635   6.331   2.758   2.987  0.3489  0.1880  0.0445
17715TIP3    H174636   6.424   2.781   2.987  0.6131 -0.8208 -0.2559
17715TIP3    H274637   6.305   2.766   2.895  0.0805  0.6692  0.1591
17716TIP3   OH274638   3.543   0.770   2.468  0.1195 -0.4263  0.0905
17716TIP3    H174639   3.541   0.675   2.482 -1.6710 -0.3244  0.7938
17716TIP3    H274640   3.485   0.785   2.394 -1.0255  0.2496  1.0888
17717TIP3   OH274641   0.622   6.204  11.674 -0.3775  0.3049  0.3445
17717TIP3    H174642   0.675   6.198  11.594  1.5263 -2.3171  1.6687
17717TIP3    H274643   0.660   6.278  11.722  2.2944 -1.4942  1.2514
17718TIP3   OH274644   3.278   0.385   3.905 -0.2249  0.5968  0.3358
17718TIP3    H174645   3.329   0.453   3.948 -0.1786  0.9034 -0.1977
17718TIP3    H274646   3.258   0.322   3.974  0.0425  0.9692  0.7517
17719TIP3   OH274647   4.373   2.661   6.071  0.4394 -0.2360  0.3057
17719TIP3    H174648   4.400   2.573   6.099 -1.2170 -0.7259  0.5153
17719TIP3    H274649   4.304   2.685   6.133  1.8405  1.8785  1.1734
17720TIP3   OH274650   6.386   6.768   3.395 -0.5314  0.0138  0.2175
17720TIP3    H174651   6.330   6.696   3.365  0.5656 -0.4979 -0.6992
17720TIP3    H274652   6.326   6.831   3.435 -1.7839 -0.4260 -0.9058
17721TIP3   OH274653   3.134   1.396  12.853  0.5837 -0.3569  0.8252
17721TIP3    H174654   3.100   1.374  12.767  0.1115 -1.8816  1.3601
17721TIP3    H274655   3.155   1.311  12.893  0.7051  0.2989  2.2421
17722TIP3   OH274656   5.525   1.885  10.316 -0.7977 -0.2802  0.0656
17722TIP3    H174657   5.601   1.888  10.257  1.0225  0.6914  2.3197
17722TIP3    H274658   5.478   1.966  10.298 -0.1167  0.1326  0.1117
17723TIP3   OH274659   5.094   0.194   3.769 -0.1013 -0.1916 -0.2524
17723TIP3    H174660   5.188   0.179   3.762 -0.0296  0.1341  0.0068
17723TIP3    H274661   5.085   0.258   3.839 -0.6745 -1.8927  1.2845
17724TIP3   OH274662   6.626   0.308   0.575  0.4656 -0.2351  0.7246
17724TIP3    H174663   6.683   0.235   0.597 -0.1749 -1.4264 -1.3375
17724TIP3    H274664   6.538   0.270   0.569 -0.7876  1.6118  4.2311
17725TIP3   OH274665   0.504   3.367   5.379  0.0623 -0.4143 -0.2920
17725TIP3    H174666   0.410   3.383   5.386  0.0557 -0.0770 -1.0863
17725TIP3    H274667   0.535   3.432   5.316  0.8717 -0.3579  0.1517
17726TIP3   OH274668   3.862   3.811   5.948  0.1256  0.3885  0.0557
17726TIP3    H174669   3.859   3.724   5.907  0.6452  0.4353 -0.1001
17726TIP3    H274670   3.860   3.793   6.042 -0.4833  0.2460  0.0145
17727TIP3   OH274671   2.682   3.278  16.191 -0.0889  0.1455 -0.2464
17727TIP3    H174672   2.703   3.296  16.282  0.1722 -0.9461 -0.0800
17727TIP3    H274673   2.607   3.335  16.172  0.0395  0.5918  0.5542
17728TIP3   OH274674   6.072   0.056   2.095  0.2993  0.0621  0.0852
17728TIP3    H174675   6.043   0.032   2.183 -0.2554  0.9514  0.1660
17728TIP3    H274676   6.091   0.150   2.101  1.4331 -0.1211 -0.4459
17729TIP3   OH274677   2.798   4.690  16.921  0.6762  0.1921 -0.5586
17729TIP3    H174678   2.784   4.713  16.829  0.6611 -0.8557 -0.8355
17729TIP3    H274679   2.894   4.692  16.932  0.7035 -0.0966 -0.7210
17730TIP3   OH274680   5.852   2.099  11.466 -0.4683  0.0352 -0.5052
17730TIP3    H174681   5.840   2.048  11.385 -2.1052 -0.0851 -0.2332
17730TIP3    H274682   5.886   2.183  11.436 -0.7126 -0.1329 -1.2900
17731TIP3   OH274683   5.161   1.074  15.795  0.1323 -0.2495  0.5281
17731TIP3    H174684   5.119   1.007  15.848  0.2844 -0.0040  0.9580
17731TIP3    H274685   5.165   1.036  15.707 -0.0098 -0.6991  0.7152
17732TIP3   OH274686   1.315   1.084  14.718 -0.1579 -0.2237  0.0795
17732TIP3    H174687   1.280   0.994  14.724  1.7239 -1.0744 -0.8281
17732TIP3    H274688   1.405   1.072  14.689 -0.3213  2.0479 -1.6097
17733TIP3   OH274689   0.294   1.894  14.117 -0.4085  0.2787  0.2380
17733TIP3    H174690   0.363   1.915  14.179  0.1118  0.1722 -0.3041
17733TIP3    H274691   0.227   1.850  14.170 -0.7542  1.7277  1.0631
17734TIP3   OH274692   2.423   1.520  16.640 -0.4795 -0.4671  0.1231
17734TIP3    H174693   2.345   1.479  16.602 -0.7708 -1.6272  1.8307
17734TIP3    H274694   2.435   1.601  16.590 -1.6463 -1.2063 -1.4194
17735TIP3   OH274695   1.576   1.046  11.816  0.4127 -0.7601  0.3666
17735TIP3    H174696   1.566   1.018  11.907  0.3614 -0.9551  0.3006
17735TIP3    H274697   1.517   0.989  11.767  0.6593 -0.8503  0.1739
17736TIP3   OH274698   2.997   1.469   3.584 -0.4908  0.1334  0.0042
17736TIP3    H174699   2.985   1.388   3.634  1.4882 -0.8357 -0.9676
17736TIP3    H274700   2.908   1.500   3.567 -1.2688 -0.9290  1.8046
17737TIP3   OH274701   1.373   5.438   4.315 -0.2687  0.0921 -0.4401
17737TIP3    H174702   1.284   5.432   4.280 -0.4772 -1.0438  0.2520
17737TIP3    H274703   1.425   5.382   4.258 -0.2495 -0.2743 -0.0636
17738TIP3   OH274704   2.593   0.407   0.113  0.1554  0.4775 -0.6050
17738TIP3    H174705   2.535   0.480   0.093 -0.8793 -0.2018 -0.1566
17738TIP3    H274706   2.652   0.441   0.181  0.0737  1.0702 -0.8216
17739TIP3   OH274707   1.162   2.366  16.727  0.1052  0.1706  0.2807
17739TIP3    H174708   1.140   2.372  16.635  1.5809  0.8416 -0.0515
17739TIP3    H274709   1.097   2.421  16.771  0.5473  1.4070 -0.5629
17740TIP3   OH274710   3.603   4.306  13.074 -0.1834  0.8472  0.4689
17740TIP3    H174711   3.570   4.302  13.164 -0.1321 -0.0630  0.4611
17740TIP3    H274712   3.549   4.243  13.026 -0.1260  1.2333 -0.1133
17741TIP3   OH274713   2.865   0.999   1.012  0.5373  0.0589 -0.2415
17741TIP3    H174714   2.773   0.974   1.017  0.6328 -0.2056  0.2885
17741TIP3    H274715   2.864   1.091   0.985  0.1691 -0.3675 -1.7830
17742TIP3   OH274716   0.184   1.125   3.808  0.3600  0.0502  0.5908
17742TIP3    H174717   0.152   1.036   3.789  0.9862 -0.1249  0.3551
17742TIP3    H274718   0.160   1.176   3.730  2.4440 -0.5465 -0.5133
17743TIP3   OH274719   4.800   1.485  11.981  0.3722  0.6011 -0.3393
17743TIP3    H174720   4.851   1.533  11.916  2.0826  0.8239  1.1074
17743TIP3    H274721   4.768   1.552  12.041  0.1330  0.2300 -0.0481
17744TIP3   OH274722   0.138   2.010   3.897 -0.7710 -0.4114  0.5801
17744TIP3    H174723   0.200   2.080   3.877  0.7659 -1.4620  1.4393
17744TIP3    H274724   0.136   1.957   3.817 -0.9804 -0.0777  0.3620
17745TIP3   OH274725   5.371   5.862  13.653 -0.4243  0.3521 -0.3076
17745TIP3    H174726   5.460   5.896  13.664 -0.5702  0.4069  0.8328
17745TIP3    H274727   5.370   5.780  13.701 -0.8071  0.0010 -0.8982
17746TIP3   OH274728   3.740   6.025   4.051  1.0648 -0.4942 -0.0601
17746TIP3    H174729   3.690   5.993   4.126 -0.7846 -2.5828 -2.0197
17746TIP3    H274730   3.715   5.967   3.979  1.1170  2.6115 -2.8372
17747TIP3   OH274731   0.781   4.132  14.574  0.6831 -0.1884  0.0978
17747TIP3    H174732   0.709   4.103  14.518  0.2648 -2.5102  1.6744
17747TIP3    H274733   0.740   4.153  14.658  1.4751  1.7257  0.0571
17748TIP3   OH274734   2.808   3.817   4.576 -0.3234 -0.0619 -0.2099
17748TIP3    H174735   2.779   3.729   4.600 -0.7904  0.4385  1.1723
17748TIP3    H274736   2.728   3.869   4.573  0.0061  0.4418 -0.4927
17749TIP3   OH274737   3.570   3.100  13.798  0.0843  0.3707 -0.6789
17749TIP3    H174738   3.498   3.052  13.757 -1.3536  1.9479 -0.0920
17749TIP3    H274739   3.649   3.053  13.769 -1.0080 -0.1624 -3.0511
17750TIP3   OH274740   2.189   4.272  14.646  0.0061  0.1586 -0.1448
17750TIP3    H174741   2.247   4.339  14.682  0.6240 -2.1544  3.6896
17750TIP3    H274742   2.105   4.316  14.634  0.9716  2.1278 -0.0987
17751TIP3   OH274743   5.603   3.508   5.251 -0.3909 -0.5466 -0.6632
17751TIP3    H174744   5.691   3.480   5.226  0.7533  1.2873  1.0726
17751TIP3    H274745   5.576   3.567   5.181 -0.1965 -0.9685 -1.1052
17752TIP3   OH274746   4.166   5.886  16.409  0.4735  0.1231  0.0515
17752TIP3    H174747   4.167   5.869  16.315  2.0287 -1.4112  0.3062
17752TIP3    H274748   4.084   5.934  16.423 -0.6604 -1.1424 -1.8008
17753TIP3   OH274749   6.098   1.129   4.518  0.3154 -0.1774  0.3286
17753TIP3    H174750   6.088   1.095   4.607 -2.0641 -0.1937  0.1301
17753TIP3    H274751   6.176   1.184   4.521 -0.1360  0.4141  2.6160
17754TIP3   OH274752   6.092   3.432  14.738 -0.1633 -0.0352  0.4259
17754TIP3    H174753   6.122   3.491  14.670 -0.5832 -0.5223 -0.1950
17754TIP3    H274754   6.135   3.349  14.718 -1.4617 -0.5953 -0.1652
17755TIP3   OH274755   6.789   5.434  10.651  0.5575  0.0621 -0.0278
17755TIP3    H174756   6.743   5.506  10.609 -0.7656 -1.5481 -1.5122
17755TIP3    H274757   6.817   5.378  10.579 -0.4107 -2.0062  1.0988
17756TIP3   OH274758   3.189   2.081  15.336  0.2572 -0.7272 -0.1092
17756TIP3    H174759   3.215   2.167  15.303 -0.0441 -0.8256 -0.6067
17756TIP3    H274760   3.238   2.018  15.283 -0.4777 -0.8941 -0.5961
17757TIP3   OH274761   6.580   5.357   1.391 -0.3944  0.1694  0.0267
17757TIP3    H174762   6.643   5.305   1.341 -0.8250 -0.5339  0.2017
17757TIP3    H274763   6.520   5.391   1.325 -0.5231 -0.1446 -0.0224
17758TIP3   OH274764   5.495   3.310  13.208 -0.0648  0.2918  0.2164
17758TIP3    H174765   5.480   3.219  13.233 -1.6260  1.0924  2.5418
17758TIP3    H274766   5.582   3.330  13.242  1.1963 -0.8332 -2.1300
17759TIP3   OH274767   3.956   3.268  12.399 -0.0670  0.4725 -0.0461
17759TIP3    H174768   4.027   3.245  12.339  0.5861  1.8590  0.1653
17759TIP3    H274769   3.972   3.359  12.422 -2.3208  1.0724 -0.5577
17760TIP3   OH274770   1.460   3.613   0.481  0.3203  0.3487  0.0725
17760TIP3    H174771   1.381   3.659   0.453 -0.3110  0.8137  2.4072
17760TIP3    H274772   1.454   3.528   0.437 -1.2467  0.5526 -0.1740
17761TIP3   OH274773   0.336   6.328   3.583 -0.3903 -0.1077  0.4667
17761TIP3    H174774   0.284   6.395   3.539 -1.0633  0.3095  1.8242
17761TIP3    H274775   0.376   6.374   3.657  0.7144 -0.7736  0.2962
17762TIP3   OH274776   6.181   3.458  13.605  0.8253  0.5625 -0.9348
17762TIP3    H174777   6.208   3.480  13.516 -0.7656  0.5041 -1.4715
17762TIP3    H274778   6.087   3.476  13.607  0.4571 -1.1851  0.1762
17763TIP3   OH274779   3.069   5.284   5.575 -0.2644  0.3301  0.5641
17763TIP3    H174780   3.057   5.309   5.483 -0.9762  2.0225  1.0792
17763TIP3    H274781   3.149   5.329   5.602 -0.4515  0.4256  0.9635
17764TIP3   OH274782   2.322   5.684  14.559 -0.6811 -0.1249 -0.1573
17764TIP3    H174783   2.407   5.707  14.595 -0.4740 -0.0838 -0.6631
17764TIP3    H274784   2.296   5.760  14.507 -0.5210 -0.5636 -0.8904
17765TIP3   OH274785   5.608   5.627  16.596 -0.1183  0.0826  0.3605
17765TIP3    H174786   5.668   5.661  16.663  0.2162  0.6701 -0.2232
17765TIP3    H274787   5.575   5.545  16.632  0.8911 -0.1504  0.7734
17766TIP3   OH274788   5.494   6.141  11.976  0.1962 -0.1109  0.4107
17766TIP3    H174789   5.508   6.105  11.889  2.0344  0.1595  0.5583
17766TIP3    H274790   5.533   6.076  12.035  0.1933  0.3656  0.9448
17767TIP3   OH274791   5.440   6.242   1.463 -0.5358 -0.2428 -0.0227
17767TIP3    H174792   5.352   6.247   1.502 -0.4103 -0.4533  0.2947
17767TIP3    H274793   5.498   6.230   1.538 -0.3105 -0.8499 -0.2939
17768TIP3   OH274794   3.563   6.203  15.762  0.2474 -0.0180 -0.4727
17768TIP3    H174795   3.627   6.207  15.691  0.1529  0.5075 -0.5341
17768TIP3    H274796   3.488   6.158  15.724  0.6003 -0.7077 -0.3786
17769TIP3   OH274797   6.225   1.246  11.509 -0.0173 -0.3860 -0.0572
17769TIP3    H174798   6.211   1.335  11.541 -0.5925 -0.0003 -1.3038
17769TIP3    H274799   6.210   1.252  11.414  0.7682 -1.6361 -0.2934
17770TIP3   OH274800   3.678   4.346   4.227 -0.2852  0.8983  0.0536
17770TIP3    H174801   3.678   4.414   4.295 -2.7195  2.0576 -0.9779
17770TIP3    H274802   3.590   4.350   4.190  0.6400 -0.3991 -2.4754
17771TIP3   OH274803   0.115   3.210  13.007 -0.2415 -0.2726  0.3240
17771TIP3    H174804   0.081   3.299  12.994 -0.4470 -0.3044  0.6248
17771TIP3    H274805   0.168   3.216  13.087 -0.1234 -0.3827  0.2540
17772TIP3   OH274806   6.331   6.102   4.030 -0.3402 -0.3546 -0.3522
17772TIP3    H174807   6.296   6.017   4.005  0.4244 -1.2114  1.3967
17772TIP3    H274808   6.261   6.143   4.081  0.5156 -1.3906  1.7390
17773TIP3   OH274809   5.799   3.487  16.937 -0.1400 -0.6751  0.9364
17773TIP3    H174810   5.818   3.396  16.960  2.3607 -0.8592 -1.3801
17773TIP3    H274811   5.866   3.538  16.982  1.5136 -0.5649 -1.4182
17774TIP3   OH274812   2.951   3.423   2.728 -0.1496 -1.0376  0.1438
17774TIP3    H174813   2.994   3.345   2.765 -0.2125 -0.6185  1.1313
17774TIP3    H274814   2.998   3.497   2.766 -0.3508 -0.5849 -0.4763
17775TIP3   OH274815   0.870   2.696  14.272 -0.6081 -0.1597 -0.3128
17775TIP3    H174816   0.906   2.622  14.224 -2.3218 -1.4200  0.2830
17775TIP3    H274817   0.924   2.701  14.352 -0.4502 -0.7123 -0.3835
17776TIP3   OH274818   0.040   5.194  13.757  0.5070 -0.2064 -0.4420
17776TIP3    H174819  -0.014   5.210  13.679  1.0468  1.5478 -0.4949
17776TIP3    H274820   0.130   5.211  13.728  0.8590 -0.9482  0.2011
17777TIP3   OH274821   6.195   2.683  11.787  0.2716 -0.0474  0.3594
17777TIP3    H174822   6.232   2.631  11.716 -1.2076  1.3367 -1.5320
17777TIP3    H274823   6.264   2.685  11.853  1.5722 -1.7160 -0.8422
17778TIP3   OH274824   1.900   0.958   1.809 -0.6988 -0.3668 -0.1741
17778TIP3    H174825   1.872   1.038   1.854 -0.9307 -0.1367 -0.7139
17778TIP3    H274826   1.821   0.905   1.802 -0.7859 -0.1756 -0.7583
17779TIP3   OH274827   3.745   2.978   2.238 -0.0786 -0.0666 -0.0738
17779TIP3    H174828   3.760   2.972   2.332 -0.6532 -2.0456 -0.0710
17779TIP3    H274829   3.693   3.058   2.227 -0.1834  0.0683  1.3124
17780TIP3   OH274830   6.583   4.755   5.517  0.4085 -0.8557  0.3309
17780TIP3    H174831   6.650   4.823   5.525 -0.1821 -0.1956 -0.1904
17780TIP3    H274832   6.532   4.762   5.597  1.6969 -2.1916  1.3066
17781TIP3   OH274833   3.238   4.961   0.157 -0.2699 -0.5310  0.9218
17781TIP3    H174834   3.262   4.886   0.102 -0.8084  0.8134 -1.2480
17781TIP3    H274835   3.314   5.019   0.151 -0.6542 -0.0266  0.9615
17782TIP3   OH274836   6.389   2.480  11.388 -0.4604  0.1519  0.2195
17782TIP3    H174837   6.343   2.517  11.313 -0.0273  2.2772  0.9236
17782TIP3    H274838   6.327   2.418  11.426 -2.3819  2.0954  0.4927
17783TIP3   OH274839   2.874   4.123  13.662 -0.1959  0.0478  0.5892
17783TIP3    H174840   2.807   4.082  13.608  0.9036 -0.7488 -0.2186
17783TIP3    H274841   2.902   4.200  13.611 -1.0643  0.8586  1.3133
17784TIP3   OH274842   4.007   6.445  11.423  0.1523  0.5888  0.3557
17784TIP3    H174843   4.101   6.448  11.407  0.5437 -0.6748  2.0442
17784TIP3    H274844   3.982   6.354  11.403 -1.0060  1.2492 -1.3791
17785TIP3   OH274845   6.814   1.873  11.704 -0.1590 -0.0213  0.4124
17785TIP3    H174846   6.723   1.895  11.726 -1.2161 -1.8754 -1.6186
17785TIP3    H274847   6.839   1.808  11.770 -0.8583 -0.5626  0.1653
17786TIP3   OH274848   3.210   6.330   4.949 -0.0504 -0.2140  0.3715
17786TIP3    H174849   3.235   6.318   4.858 -0.0954  1.0903  0.1607
17786TIP3    H274850   3.131   6.384   4.946 -0.6683 -1.0313  1.1610
17787TIP3   OH274851   1.059   1.650  14.790  1.1065 -0.3708  0.4767
17787TIP3    H174852   1.060   1.643  14.886  3.2426 -0.2628  0.5264
17787TIP3    H274853   1.014   1.572  14.760 -0.2000 -0.0762  1.5669
17788TIP3   OH274854   1.115   3.841  13.634 -1.0101  0.4449 -0.5607
17788TIP3    H174855   1.200   3.881  13.614  0.3354 -1.9003  0.0246
17788TIP3    H274856   1.056   3.915  13.647  1.0174  2.1818 -0.6422
17789TIP3   OH274857   5.458   1.525  11.986  0.3042 -0.1394 -0.3475
17789TIP3    H174858   5.385   1.502  12.043  0.9748  0.4838  0.8062
17789TIP3    H274859   5.503   1.596  12.032  0.4602  0.8906 -2.0049
17790TIP3   OH274860   2.344   5.049   4.773  0.3773 -0.7294  0.4794
17790TIP3    H174861   2.344   4.968   4.722 -0.3519 -0.7279  0.4610
17790TIP3    H274862   2.333   5.020   4.864 -1.1535 -0.6074  0.3564
17791TIP3   OH274863   2.213   1.067  15.620  0.8713 -0.2177 -0.2869
17791TIP3    H174864   2.140   1.087  15.561 -0.4011  0.1880  1.3589
17791TIP3    H274865   2.255   1.151  15.635 -0.0189  0.0339  0.9045
17792TIP3   OH274866   4.938   0.922  16.211  0.2432  0.3356 -0.5251
17792TIP3    H174867   4.930   1.000  16.266  0.9385  0.4902 -0.6330
17792TIP3    H274868   5.010   0.943  16.151 -1.3410  0.7321 -2.4103
17793TIP3   OH274869   2.651   6.345  14.251  0.4645  0.1126 -0.2932
17793TIP3    H174870   2.699   6.380  14.176 -0.4258  0.5413 -0.6768
17793TIP3    H274871   2.644   6.251  14.234 -0.2523  0.2946 -1.0559
17794TIP3   OH274872   2.953   0.827   2.923 -0.7137 -0.0587 -0.2312
17794TIP3    H174873   2.999   0.796   2.845 -1.9635 -1.3225 -0.5087
17794TIP3    H274874   3.006   0.794   2.996  0.3404  0.9447 -0.5165
17795TIP3   OH274875   2.106   0.347  12.090  0.1506  0.2315 -0.0083
17795TIP3    H174876   2.027   0.394  12.115  1.0201  1.3280  0.7893
17795TIP3    H274877   2.097   0.260  12.129 -0.2567  0.6532  0.8473
17796TIP3   OH274878   0.587   6.760   4.091 -0.6675  0.0541 -0.0318
17796TIP3    H174879   0.577   6.711   4.009  0.1736 -1.6032  0.7994
17796TIP3    H274880   0.681   6.779   4.096 -0.6924  0.0416  0.5799
17797TIP3   OH274881   2.662   4.020   4.186 -0.6015  0.0705 -0.6323
17797TIP3    H174882   2.725   4.025   4.114 -0.5991  2.9432 -0.5571
17797TIP3    H274883   2.586   4.068   4.153 -0.5272  1.6173  1.2922
17798TIP3   OH274884   5.831   5.630   2.472 -0.0825  0.4311  0.2323
17798TIP3    H174885   5.842   5.657   2.381  0.3110  0.2302  0.2193
17798TIP3    H274886   5.764   5.689   2.507 -1.3526 -0.4537 -0.6142
17799TIP3   OH274887   5.393   5.426  12.133  0.2538  0.0868  0.6850
17799TIP3    H174888   5.376   5.520  12.131 -2.4348 -0.3371  0.6944
17799TIP3    H274889   5.448   5.413  12.210  1.5883  1.7384  0.0638
17800TIP3   OH274890   2.080   3.269   6.106  0.1226  0.0459  0.1850
17800TIP3    H174891   2.155   3.240   6.054  0.2604  1.6171 -0.5400
17800TIP3    H274892   2.106   3.354   6.140 -0.5897 -0.2684  1.5609
17801TIP3   OH274893   4.545   2.643   5.796 -0.3093  0.4546  0.0773
17801TIP3    H174894   4.552   2.739   5.795  2.1559  0.3494  0.4704
17801TIP3    H274895   4.630   2.613   5.763 -1.8744 -1.6493 -2.4489
17802TIP3   OH274896   3.503   2.358  13.067  0.0267 -0.3498  0.0341
17802TIP3    H174897   3.596   2.342  13.081  0.1886  0.4851 -0.0357
17802TIP3    H274898   3.472   2.396  13.149 -0.5424 -1.7458  0.5040
17803TIP3   OH274899   0.648   4.352   1.505 -0.1141 -0.4429  0.3783
17803TIP3    H174900   0.743   4.345   1.505  0.0877  1.6385  1.9876
17803TIP3    H274901   0.626   4.376   1.415  0.5622 -3.4797 -0.7199
17804TIP3   OH274902   5.761   3.626  13.971 -0.1899 -0.5316  0.5633
17804TIP3    H174903   5.674   3.588  13.959  0.3709 -1.3285 -1.1937
17804TIP3    H274904   5.765   3.697  13.907  0.2776 -0.1266  1.0280
17805TIP3   OH274905   0.738   3.957  15.360 -0.5892  0.6903  0.0894
17805TIP3    H174906   0.820   4.005  15.373  0.0905 -0.0101 -1.3708
17805TIP3    H274907   0.725   3.958  15.265 -1.6286 -0.2565  0.2057
17806TIP3   OH274908   1.341   4.094   5.059 -0.6738  0.4073  0.3188
17806TIP3    H174909   1.318   4.186   5.044 -0.9959  0.3643  0.5278
17806TIP3    H274910   1.367   4.061   4.973 -0.2097  0.7868  0.3072
17807TIP3   OH274911   1.332   1.685  15.681  0.2724 -0.2419  0.0273
17807TIP3    H174912   1.422   1.712  15.696 -0.1268  0.5125  1.1791
17807TIP3    H274913   1.294   1.755  15.628  0.2458 -0.3276 -0.0658
17808TIP3   OH274914   2.670   6.067   3.369 -0.2149  0.0872 -0.7098
17808TIP3    H174915   2.686   6.149   3.322  0.3660  0.4114  0.0262
17808TIP3    H274916   2.596   6.087   3.427 -1.2077 -0.4363 -1.7612
17809TIP3   OH274917   2.731   0.745   1.138  0.2338  0.0449  0.8815
17809TIP3    H174918   2.734   0.680   1.067  2.1895 -0.3050  1.2110
17809TIP3    H274919   2.681   0.818   1.102  0.2874 -0.5626 -0.4897
17810TIP3   OH274920   1.071   4.097   1.685  0.1797 -0.2729  0.0783
17810TIP3    H174921   1.152   4.053   1.659  0.0448  0.1785 -1.1681
17810TIP3    H274922   1.074   4.181   1.638  0.5498  1.2015  2.5448
17811TIP3   OH274923   0.165   1.482   3.475  0.0755 -0.2323  0.1696
17811TIP3    H174924   0.253   1.502   3.442 -0.3691  0.0536 -0.9138
17811TIP3    H274925   0.155   1.387   3.462  0.1363 -0.2242  0.0640
17812TIP3   OH274926   0.284   1.264  12.226  0.3088  0.4223 -0.1175
17812TIP3    H174927   0.319   1.179  12.251 -1.0664  0.0429  0.5927
17812TIP3    H274928   0.194   1.247  12.200  0.4519  1.4555 -1.4252
17813TIP3   OH274929   5.081   5.514  11.744 -0.0703 -0.3115  0.1292
17813TIP3    H174930   5.078   5.434  11.691  1.2618 -0.7716  0.7059
17813TIP3    H274931   5.161   5.559  11.716 -1.1946  1.2414 -0.7330
17814TIP3   OH274932   0.255   4.638  11.193  0.1770 -0.4552  0.8458
17814TIP3    H174933   0.225   4.713  11.141  1.3861 -0.6759 -0.2262
17814TIP3    H274934   0.211   4.648  11.277 -1.3981  0.2460 -0.0106
17815TIP3   OH274935   4.049   3.592   2.813 -0.4851 -0.3963 -0.6131
17815TIP3    H174936   4.048   3.671   2.760  0.4851  1.0010  1.2938
17815TIP3    H274937   4.140   3.562   2.809 -0.4095 -0.3014  0.1567
17816TIP3   OH274938   5.239   5.146   2.413 -0.0117 -0.2131  0.3212
17816TIP3    H174939   5.257   5.115   2.324 -0.5205  0.3934 -0.0054
17816TIP3    H274940   5.218   5.066   2.462  2.6520 -0.8688  0.5439
17817TIP3   OH274941   6.760   1.546   3.811  0.0548  0.4864 -0.2607
17817TIP3    H174942   6.815   1.603   3.756 -0.7380  1.2850 -0.2418
17817TIP3    H274943   6.821   1.508   3.875  0.8867  0.0137 -1.2925
17818TIP3   OH274944   5.667   1.400  16.710  0.2534  0.7039 -0.3034
17818TIP3    H174945   5.714   1.483  16.710 -0.5741  1.2463  2.2400
17818TIP3    H274946   5.584   1.419  16.753 -0.1960 -1.3220 -0.1809
17819TIP3   OH274947   4.851   0.184   4.619  0.3015 -0.0577 -0.5300
17819TIP3    H174948   4.759   0.201   4.641  0.4454 -1.1337  1.0934
17819TIP3    H274949   4.899   0.207   4.697  1.0751 -2.2464 -0.2861
17820TIP3   OH274950   6.792   1.376  14.830  0.7219 -0.2121  0.8083
17820TIP3    H174951   6.838   1.434  14.769  1.0885 -1.3750 -0.0519
17820TIP3    H274952   6.751   1.435  14.893  1.2275  0.9690  0.0593
17821TIP3   OH274953   0.978   5.031   0.088 -0.2310  0.6559  0.2814
17821TIP3    H174954   0.951   5.086   0.015  1.4340  0.0665 -0.8242
17821TIP3    H274955   1.012   5.093   0.153  2.8590  0.9820 -1.4760
17822TIP3   OH274956   6.102   4.921   3.215 -0.1815  0.8406 -0.3377
17822TIP3    H174957   6.179   4.912   3.158  0.4019 -3.8754  0.8057
17822TIP3    H274958   6.139   4.939   3.302 -0.7584  2.8174 -0.4463
17823TIP3   OH274959   2.908   1.912   3.553 -0.9012 -0.2330 -0.5668
17823TIP3    H174960   2.868   1.997   3.570 -1.1587 -0.3805 -0.4208
17823TIP3    H274961   3.000   1.922   3.578 -1.6379 -1.0211  3.0138
17824TIP3   OH274962   2.142   5.488   4.936 -0.2168  0.4536  0.2131
17824TIP3    H174963   2.086   5.557   4.901 -0.1446  1.3708  1.7783
17824TIP3    H274964   2.228   5.529   4.945 -0.2536  0.2991  1.4886
17825TIP3   OH274965   4.312   2.573   4.238 -0.6256 -0.1275  0.6388
17825TIP3    H174966   4.222   2.542   4.230 -0.1274 -1.1954 -1.8181
17825TIP3    H274967   4.325   2.628   4.161  0.7514  0.1763  1.0647
17826TIP3   OH274968   6.146   5.224  16.463  0.4130  0.4196  0.0234
17826TIP3    H174969   6.176   5.270  16.542 -0.9325  0.1865  0.7170
17826TIP3    H274970   6.055   5.253  16.453  0.6023  0.5475 -1.5454
17827TIP3   OH274971   6.159   5.956  12.428  0.4621 -0.0781  0.1507
17827TIP3    H174972   6.205   5.999  12.356 -0.0473 -0.5370 -0.4588
17827TIP3    H274973   6.154   6.023  12.497  2.2705 -0.1025  0.3425
17828TIP3   OH274974   2.097   3.665  13.290 -0.5957 -0.1529 -0.1183
17828TIP3    H174975   2.123   3.577  13.262  0.3371  0.1668 -0.3139
17828TIP3    H274976   2.133   3.723  13.222 -1.5632  0.3575 -0.2211
17829TIP3   OH274977   3.878   5.867   2.294 -0.0238 -0.0243  0.4765
17829TIP3    H174978   3.828   5.823   2.225  0.2988  1.1480 -0.5379
17829TIP3    H274979   3.840   5.955   2.299  1.5453  0.7162  0.0621
17830TIP3   OH274980   3.255   1.825  16.102 -0.2118 -0.6961  0.0180
17830TIP3    H174981   3.187   1.839  16.036  1.0537 -1.5072 -1.5407
17830TIP3    H274982   3.335   1.861  16.062  0.9510 -2.7885  0.3304
17831TIP3   OH274983   1.069   5.436  12.120  0.4732 -0.1194  0.1343
17831TIP3    H174984   1.145   5.436  12.063 -0.8649 -0.7243 -1.7587
17831TIP3    H274985   1.018   5.359  12.093  0.0252 -0.7619  2.5449
17832TIP3   OH274986   1.043   2.150   0.598  0.6248 -0.4159  0.2925
17832TIP3    H174987   1.125   2.104   0.583  0.9029 -0.7921  2.5111
17832TIP3    H274988   0.994   2.141   0.517  1.7523 -2.3795 -0.2235
17833TIP3   OH274989   0.334   2.387   2.575  0.5127  0.1759  0.0422
17833TIP3    H174990   0.404   2.395   2.511  2.9850  0.7803  2.6176
17833TIP3    H274991   0.354   2.453   2.641 -0.7446 -1.6569  2.4262
17834TIP3   OH274992   5.814   6.288  15.894 -0.5601  0.1276 -0.3005
17834TIP3    H174993   5.835   6.230  15.821  0.0745 -0.5032  0.3729
17834TIP3    H274994   5.737   6.248  15.934 -1.2993  0.8146 -0.9693
17835TIP3   OH274995   2.829   2.157  11.488 -0.3437 -0.0879  0.3613
17835TIP3    H174996   2.762   2.204  11.538 -1.0802  0.9544 -1.5384
17835TIP3    H274997   2.899   2.221  11.475 -0.0021 -0.4614  0.3152
17836TIP3   OH274998   2.730   3.073  13.942 -0.2855  0.3188 -0.2224
17836TIP3    H174999   2.650   3.028  13.916  0.6908 -1.1421 -0.8170
17836TIP3    H275000   2.707   3.166  13.940 -2.1225 -0.0828  0.2048
17837TIP3   OH275001   4.666   0.176  11.743  0.0926 -0.2209  0.1500
17837TIP3    H175002   4.577   0.206  11.724 -0.3482 -0.0278  2.3217
17837TIP3    H275003   4.664   0.082  11.723 -0.3351 -0.0650 -0.5903
17838TIP3   OH275004   1.133   4.974   1.181  0.6122 -0.4205 -0.1781
17838TIP3    H175005   1.139   4.897   1.238  0.2799 -1.1914 -1.1572
17838TIP3    H275006   1.040   4.986   1.167  0.7273 -0.9152 -1.4451
17839TIP3   OH275007   5.701   1.486   6.199 -0.4883  0.4099 -0.0489
17839TIP3    H175008   5.730   1.396   6.211 -1.4928 -0.1261 -1.3428
17839TIP3    H275009   5.756   1.519   6.128 -1.5911  0.0502 -1.1125
17840TIP3   OH275010   6.190   5.435   5.223 -0.1614  0.6533 -0.1344
17840TIP3    H175011   6.143   5.370   5.171  1.7621 -1.7109  0.8615
17840TIP3    H275012   6.274   5.446   5.178  0.3437  0.8553  0.8073
17841TIP3   OH275013   3.858   6.443  17.237 -0.2798  0.3566  0.2056
17841TIP3    H175014   3.792   6.474  17.175  1.2535  0.1023 -1.6075
17841TIP3    H275015   3.902   6.523  17.268  1.0386  0.3189 -1.4665
17842TIP3   OH275016   0.650   2.504   5.404  0.3506 -0.0630  0.1962
17842TIP3    H175017   0.697   2.552   5.336 -0.9624 -1.6039 -1.9569
17842TIP3    H275018   0.595   2.570   5.447  2.4541  1.2577  0.9903
17843TIP3   OH275019   5.168   6.264   1.362 -0.0412  0.1615 -0.0269
17843TIP3    H175020   5.137   6.332   1.302 -0.7627  2.6343  2.8921
17843TIP3    H275021   5.108   6.191   1.349 -1.9518  1.6982 -0.3556
17844TIP3   OH275022   2.152   5.457   3.917 -0.0726  0.4169  0.3437
17844TIP3    H175023   2.214   5.528   3.934 -1.5619  1.7018  0.6538
17844TIP3    H275024   2.127   5.468   3.826 -0.7991  0.7308  0.5679
17845TIP3   OH275025   0.585   1.192  14.933 -0.3842  0.1975  0.0956
17845TIP3    H175026   0.506   1.182  14.985  0.2018  1.8117  1.4006
17845TIP3    H275027   0.563   1.156  14.847 -1.6156 -1.8953  1.2131
17846TIP3   OH275028   5.518   6.082   2.565  0.5183  0.2347  0.2849
17846TIP3    H175029   5.469   6.142   2.509  1.3174 -0.7698 -1.5681
17846TIP3    H275030   5.458   6.010   2.583  0.0600  0.8434  1.2588
17847TIP3   OH275031   5.335   6.695   4.336  0.3010 -0.7020 -0.1056
17847TIP3    H175032   5.392   6.630   4.295  1.7942 -1.2963  2.6474
17847TIP3    H275033   5.249   6.680   4.297  1.6178 -0.7278 -3.3823
17848TIP3   OH275034   6.014   0.645   0.490 -0.1269 -0.2822 -0.1665
17848TIP3    H175035   5.980   0.682   0.408 -0.2958 -0.6089 -0.2478
17848TIP3    H275036   6.108   0.639   0.476  0.0311  1.1086  0.2542
17849TIP3   OH275037   1.951   2.085   0.898  0.1817 -0.3718 -0.4017
17849TIP3    H175038   2.041   2.113   0.883  0.5711  0.5425  2.8596
17849TIP3    H275039   1.901   2.167   0.906  0.0905 -0.5795  2.6326
17850TIP3   OH275040   2.243   1.984  15.951  0.0137 -0.2455 -0.9140
17850TIP3    H175041   2.275   2.048  16.015 -2.2545  1.0269 -0.9520
17850TIP3    H275042   2.233   2.033  15.870  1.9694 -1.6302 -2.0925
17851TIP3   OH275043   5.705   3.993   3.402 -0.8046 -0.1341  0.1218
17851TIP3    H175044   5.757   3.924   3.443 -2.1964 -0.7357  0.9892
17851TIP3    H275045   5.638   3.947   3.353  0.3475  0.6019 -2.2776
17852TIP3   OH275046   6.490   0.638  11.056 -0.4248 -0.3609  0.2003
17852TIP3    H175047   6.545   0.715  11.062 -0.1824 -0.5983  1.0872
17852TIP3    H275048   6.535   0.581  10.993  1.4408 -1.4207  2.3862
17853TIP3   OH275049   3.371   0.335  12.602 -0.7607 -0.0273 -0.4405
17853TIP3    H175050   3.277   0.340  12.584 -0.7163  0.1430 -0.6351
17853TIP3    H275051   3.391   0.414  12.652 -0.8180 -0.3269  0.0603
17854TIP3   OH275052   2.624   6.264  13.002 -0.1095  0.4381  0.6950
17854TIP3    H175053   2.646   6.180  13.043  1.0349  0.7029  0.6568
17854TIP3    H275054   2.604   6.322  13.076 -2.2449 -0.1778  0.6860
17855TIP3   OH275055   5.409   2.074  12.190  0.5485  0.0189 -0.4973
17855TIP3    H175056   5.427   2.168  12.189  1.1885 -0.0493  1.2939
17855TIP3    H275057   5.452   2.040  12.111  0.3695  1.2010 -1.1266
17856TIP3   OH275058   3.581   0.506   3.407 -0.7377 -0.3288  0.3260
17856TIP3    H175059   3.607   0.598   3.418  1.2848 -0.9360  1.1035
17856TIP3    H275060   3.516   0.491   3.475 -0.6016  0.3715  0.6230
17857TIP3   OH275061   5.116   0.458  14.288 -1.1717 -0.6812  0.2876
17857TIP3    H175062   5.153   0.514  14.357 -1.3055  0.0970 -0.2596
17857TIP3    H275063   5.189   0.403  14.260 -0.9429 -0.5283  0.5754
17858TIP3   OH275064   1.585   2.464   6.340 -0.3705 -0.3268 -0.0385
17858TIP3    H175065   1.589   2.454   6.436  1.1613  0.5121  0.0092
17858TIP3    H275066   1.642   2.396   6.306  1.9010  1.4950 -0.1477
17859TIP3   OH275067   3.771   5.699   0.258  0.3484  0.1337  0.1618
17859TIP3    H175068   3.802   5.739   0.338 -0.9960  1.6100 -0.0143
17859TIP3    H275069   3.796   5.607   0.266  2.7326  0.7783  0.9726
17860TIP3   OH275070   0.426   4.942   6.364  0.0479  0.4908 -0.1315
17860TIP3    H175071   0.487   4.994   6.312 -0.4744 -0.7464 -2.0616
17860TIP3    H275072   0.424   4.857   6.321 -3.5435  0.6509 -0.6232
17861TIP3   OH275073   3.875   1.616  13.193 -0.2506 -0.2340 -0.0803
17861TIP3    H175074   3.816   1.689  13.173 -1.3065 -0.9109  0.4596
17861TIP3    H275075   3.892   1.576  13.108 -2.7621 -1.6282 -0.0219
17862TIP3   OH275076   4.984   6.037   1.325  0.3142 -0.4488  0.1170
17862TIP3    H175077   4.922   6.108   1.307  0.3317 -0.5630 -0.3892
17862TIP3    H275078   5.015   6.009   1.239  0.0383 -1.3071  0.2845
17863TIP3   OH275079   0.734   4.152   1.981  0.3907 -0.0610 -0.1226
17863TIP3    H175080   0.685   4.151   1.899  1.4007  0.6937 -0.7679
17863TIP3    H275081   0.733   4.062   2.011  1.2221 -0.6626 -1.7435
17864TIP3   OH275082   3.430   0.845   4.975  0.2745  0.1091  0.0677
17864TIP3    H175083   3.456   0.755   4.991  0.1157  0.2067  0.9074
17864TIP3    H275084   3.431   0.854   4.879  2.5062 -0.1072  0.0359
17865TIP3   OH275085   6.523   6.311   5.649 -0.2474  0.2685 -0.1279
17865TIP3    H175086   6.517   6.312   5.745 -1.8187  0.4253 -0.1958
17865TIP3    H275087   6.558   6.397   5.627  0.1545  0.2209  0.3089
17866TIP3   OH275088   3.401   4.712   2.048  0.3197  0.2953 -0.1910
17866TIP3    H175089   3.494   4.727   2.065  0.0269  1.8001  0.1632
17866TIP3    H275090   3.361   4.707   2.135  0.0712 -0.4926 -0.3385
17867TIP3   OH275091   6.201   5.378   0.587 -0.2143 -0.2474 -0.1675
17867TIP3    H175092   6.205   5.474   0.581  2.2101 -0.1805  1.3675
17867TIP3    H275093   6.279   5.354   0.636  0.4852 -3.2201 -2.4542
17868TIP3   OH275094   3.654   5.207   0.698  0.0159 -0.0095 -0.0106
17868TIP3    H175095   3.636   5.131   0.754 -0.7455 -0.0351 -0.2759
17868TIP3    H275096   3.597   5.276   0.732  0.3270  0.2892 -0.0939
17869TIP3   OH275097   6.021   5.296  16.200  0.4440  0.0237 -0.4749
17869TIP3    H175098   5.987   5.208  16.218 -0.8937  0.5299 -0.4080
17869TIP3    H275099   6.073   5.285  16.120  1.6794 -1.1284  0.4554
17870TIP3   OH275100   4.110   1.803  12.256  0.4155 -0.1172 -0.2842
17870TIP3    H175101   4.164   1.727  12.237  2.9086  1.4720  0.0666
17870TIP3    H275102   4.105   1.851  12.173  0.8901  0.5492  0.0676
17871TIP3   OH275103   1.045   2.969  13.731 -0.1081 -0.2301  0.4841
17871TIP3    H175104   1.000   3.028  13.791  0.4917 -0.5376  1.2492
17871TIP3    H275105   0.976   2.910  13.699 -0.8749  1.3153 -0.8906
17872TIP3   OH275106   3.861   5.223   1.535 -0.1283 -0.1528 -0.3072
17872TIP3    H175107   3.780   5.273   1.539  0.2581  0.3912  0.9692
17872TIP3    H275108   3.923   5.273   1.587  0.7143 -1.1424 -0.3354
17873TIP3   OH275109   4.261   6.151  13.410 -0.3345  0.1549 -0.3975
17873TIP3    H175110   4.170   6.178  13.412 -0.7458 -1.2150  1.2531
17873TIP3    H275111   4.310   6.233  13.406 -1.6085  0.9179 -0.9557
17874TIP3   OH275112   4.890   0.380   4.427 -0.0416 -1.0228 -0.1882
17874TIP3    H175113   4.883   0.288   4.454  1.1545 -0.2836  3.1467
17874TIP3    H275114   4.920   0.425   4.505  0.1250  2.1470 -1.9295
17875TIP3   OH275115   5.499   1.340   1.982  0.1258  0.6095 -0.1237
17875TIP3    H175116   5.541   1.424   1.999  2.7602 -1.0346  2.6188
17875TIP3    H275117   5.409   1.351   2.012  0.5867  2.3013  0.7626
17876TIP3   OH275118   5.837   6.598   0.017  0.0593 -0.0118 -0.3906
17876TIP3    H175119   5.771   6.532  -0.005  0.4169 -0.3213 -0.5559
17876TIP3    H275120   5.845   6.593   0.112 -0.9425  0.7955 -0.2541
17877TIP3   OH275121   0.525   4.745  12.825 -0.0578 -0.4499  0.6824
17877TIP3    H175122   0.606   4.736  12.775  0.0846 -1.7223  1.1213
17877TIP3    H275123   0.523   4.837  12.850  0.1234  0.1232 -1.2143
17878TIP3   OH275124   2.603   6.735   2.425 -0.4722  0.1486 -0.0347
17878TIP3    H175125   2.652   6.756   2.345 -0.6772  0.5805 -0.0483
17878TIP3    H275126   2.597   6.818   2.473 -2.8376  0.6005 -0.9471
17879TIP3   OH275127   0.107   2.568   2.138  0.7243 -0.3168  0.3871
17879TIP3    H175128   0.200   2.559   2.120  0.6572  1.3685 -0.9704
17879TIP3    H275129   0.098   2.652   2.183 -0.2252 -0.0370 -0.2793
17880TIP3   OH275130   2.343   4.040  15.325  0.0656  0.0763  0.2938
17880TIP3    H175131   2.252   4.032  15.296  0.2212  1.4308 -0.6599
17880TIP3    H275132   2.336   4.072  15.415 -0.3850 -0.9139  0.6344
17881TIP3   OH275133   0.194   1.781  10.586 -0.2820 -0.6090 -0.7467
17881TIP3    H175134   0.276   1.760  10.542  0.9011  2.7506 -0.4346
17881TIP3    H275135   0.154   1.851  10.533 -1.7284 -0.5124  0.3844
17882TIP3   OH275136   4.913   2.101   3.382  0.0300  0.2060 -0.4356
17882TIP3    H175137   4.943   2.101   3.474 -2.2065  2.4061  0.3878
17882TIP3    H275138   4.831   2.052   3.384 -0.1163  0.4154 -1.2521
17883TIP3   OH275139   2.436   1.033  14.030  0.2264  0.5461 -0.0993
17883TIP3    H175140   2.475   1.103  13.979  3.1857 -0.9479 -0.1489
17883TIP3    H275141   2.406   0.969  13.966 -0.1044  0.6297 -0.0287
17884TIP3   OH275142   3.730   5.403   5.454  0.4491 -0.3416 -0.1374
17884TIP3    H175143   3.737   5.468   5.384 -0.5507  1.1855  1.1043
17884TIP3    H275144   3.820   5.377   5.472  0.6900 -1.5582 -2.6207
17885TIP3   OH275145   1.705   3.856  11.157 -0.2836 -0.8533  0.6837
17885TIP3    H175146   1.716   3.837  11.064 -1.8428  0.3126  0.2393
17885TIP3    H275147   1.793   3.843  11.194  0.4341 -1.0141 -0.9910
17886TIP3   OH275148   2.378   0.468   3.617  0.3753 -0.4847 -1.0478
17886TIP3    H175149   2.297   0.449   3.666  1.0749  1.0166  0.8485
17886TIP3    H275150   2.448   0.439   3.675  1.2450  1.1384 -1.2342
17887TIP3   OH275151   6.376   1.819   1.558  0.3036 -0.7559  0.1340
17887TIP3    H175152   6.356   1.813   1.464  1.9738  0.3397 -0.3505
17887TIP3    H275153   6.313   1.761   1.600 -0.6239 -1.1184 -1.6487
17888TIP3   OH275154   5.593   4.863   1.635  0.2880  0.1576 -0.1173
17888TIP3    H175155   5.524   4.922   1.665  0.9907  0.9191  0.0520
17888TIP3    H275156   5.549   4.804   1.574 -0.6393  0.2195  0.4663
17889TIP3   OH275157   3.667   6.582   1.269 -0.2542  1.0234  0.3748
17889TIP3    H175158   3.734   6.520   1.239 -1.4794 -0.7907  1.2499
17889TIP3    H275159   3.592   6.567   1.212 -1.3562  0.0410  2.0044
17890TIP3   OH275160   1.910   3.886   0.422 -0.2636 -0.1195 -0.4941
17890TIP3    H175161   1.954   3.970   0.407  2.0509 -1.3178 -0.6860
17890TIP3    H275162   1.890   3.853   0.335 -0.7853 -0.0022 -0.4262
17891TIP3   OH275163   3.903   3.263   2.211 -0.1473 -0.4339  0.2932
17891TIP3    H175164   3.839   3.323   2.175  0.3298 -0.3500 -0.4425
17891TIP3    H275165   3.853   3.203   2.266 -0.7008  0.2722  0.5566
17892TIP3   OH275166   3.635   4.306  13.350  0.5608 -0.2777 -0.1389
17892TIP3    H175167   3.626   4.400  13.367  1.4561 -0.4051  1.2350
17892TIP3    H275168   3.697   4.276  13.416  0.0896 -1.8910 -0.3880
17893TIP3   OH275169   5.742   0.368   4.647  0.1475  0.1197 -0.0579
17893TIP3    H175170   5.768   0.280   4.621 -1.3350 -0.0926 -0.9648
17893TIP3    H275171   5.739   0.417   4.565  1.0192  1.0425  0.4473
17894TIP3   OH275172   6.807   3.764  10.610  0.1137 -0.5038 -0.0368
17894TIP3    H175173   6.716   3.791  10.621  0.6403  1.7183 -0.6832
17894TIP3    H275174   6.846   3.778  10.697  0.4162  1.0416 -0.4033
17895TIP3   OH275175   1.103   3.939  17.018  0.0094 -0.0283 -0.2469
17895TIP3    H175176   1.032   3.969  17.075 -0.6692 -1.0419 -0.5413
17895TIP3    H275177   1.066   3.865  16.970  1.2426 -0.5243 -0.4709
17896TIP3   OH275178   6.785   4.442   1.096  0.2218 -0.2240 -0.3595
17896TIP3    H175179   6.726   4.502   1.049 -0.8712 -0.1953  0.9754
17896TIP3    H275180   6.727   4.375   1.132  1.3952 -1.9124 -1.5221
17897TIP3   OH275181   1.406   6.560  16.930 -0.1438 -0.3728  0.1934
17897TIP3    H175182   1.484   6.554  16.984  0.6568  1.3983 -0.6852
17897TIP3    H275183   1.423   6.501  16.856  0.9802  0.9491 -0.6556
17898TIP3   OH275184   6.290   0.744  11.973  0.0101 -0.1729 -0.3319
17898TIP3    H175185   6.302   0.791  11.891 -1.5226 -1.2556 -1.2176
17898TIP3    H275186   6.346   0.791  12.036  0.2517  1.4259 -1.6802
17899TIP3   OH275187   2.890   3.631  15.603  1.1226 -0.8222  0.8117
17899TIP3    H175188   2.862   3.668  15.519 -1.0883 -0.8935  1.4753
17899TIP3    H275189   2.982   3.657  15.611  1.2456 -0.3998 -1.3885
17900TIP3   OH275190   2.173   4.055  16.463  0.0977 -0.5108 -0.2039
17900TIP3    H175191   2.217   4.129  16.505 -1.9357  0.5605  0.1621
17900TIP3    H275192   2.222   4.041  16.382  0.6546  1.1328 -0.1964
17901TIP3   OH275193   4.285   6.651  15.831  0.0719 -0.1058  0.3392
17901TIP3    H175194   4.248   6.582  15.886 -0.4210 -0.8673 -0.8962
17901TIP3    H275195   4.379   6.640  15.838  0.0689 -2.6398 -1.8034
17902TIP3   OH275196   2.166   3.519   6.221 -0.2335 -0.2116  0.0337
17902TIP3    H175197   2.176   3.572   6.300  0.0500 -0.5879  0.2535
17902TIP3    H275198   2.103   3.567   6.168  1.1978  1.1636 -0.4874
17903TIP3   OH275199   5.966   4.240  17.282  0.1505  0.1335  0.7564
17903TIP3    H175200   5.913   4.319  17.287 -1.4277 -0.8476  0.2888
17903TIP3    H275201   6.026   4.246  17.357 -1.4854  0.6922  2.0892
17904TIP3   OH275202   3.508   4.275  14.765 -0.0216 -0.3038 -0.0503
17904TIP3    H175203   3.479   4.184  14.775 -0.2048 -0.3972 -1.2892
17904TIP3    H275204   3.427   4.326  14.767  0.1236 -0.0848  1.2574
17905TIP3   OH275205   2.734   0.162  17.306 -0.0243  0.1643 -0.3623
17905TIP3    H175206   2.701   0.188  17.220 -0.7236 -0.0799 -0.1713
17905TIP3    H275207   2.698   0.227  17.366 -0.5771 -0.3983 -0.0831
17906TIP3   OH275208   5.419   0.282   3.099  0.1094  0.0906 -0.3769
17906TIP3    H175209   5.367   0.201   3.100  0.8085 -0.3725 -0.4735
17906TIP3    H275210   5.507   0.253   3.074  0.5358  0.7876  0.2697
17907TIP3   OH275211   1.184   6.686   1.743  0.2435  0.1386 -0.4257
17907TIP3    H175212   1.254   6.634   1.705  1.0594  1.7165 -1.1741
17907TIP3    H275213   1.223   6.725   1.821 -1.6804 -3.8682  2.9531
17908TIP3   OH275214   0.586   2.460  12.525  0.4434  0.2308 -0.3015
17908TIP3    H175215   0.626   2.533  12.478 -0.5746  0.5752 -0.6631
17908TIP3    H275216   0.554   2.402  12.456 -0.4600  0.4091 -0.0487
17909TIP3   OH275217   2.485   3.048  16.299 -0.0259 -0.2336 -0.6901
17909TIP3    H175218   2.506   3.098  16.221  0.8063 -0.8197 -0.8646
17909TIP3    H275219   2.557   2.986  16.308 -0.4687 -0.6592  0.1375
17910TIP3   OH275220   1.768   3.216   6.049  0.2095 -0.5617 -0.2200
17910TIP3    H175221   1.836   3.220   5.981  0.0598 -0.9693 -0.3981
17910TIP3    H275222   1.749   3.123   6.058 -0.3856 -0.4465 -0.2264
17911TIP3   OH275223   4.154   5.210   1.663 -0.2190 -0.2763 -0.5679
17911TIP3    H175224   4.146   5.168   1.578 -1.3384  0.9024 -1.0868
17911TIP3    H275225   4.137   5.303   1.646  2.6763  0.5489  0.4237
17912TIP3   OH275226   2.439   4.452   5.108 -0.3709  0.3376  0.3215
17912TIP3    H175227   2.450   4.491   5.021 -0.9447 -0.5121 -0.1447
17912TIP3    H275228   2.487   4.370   5.104  2.2141  1.6343  1.8195
17913TIP3   OH275229   4.540   0.743   4.653  0.1918  0.8045  0.5662
17913TIP3    H175230   4.490   0.764   4.574  0.7633  1.3107  0.3312
17913TIP3    H275231   4.492   0.670   4.693 -0.2037  0.6643 -0.1465
17914TIP3   OH275232   3.943   1.744  15.862 -0.1457 -0.0032  0.0629
17914TIP3    H175233   3.969   1.758  15.771 -2.7793  0.5569 -0.6684
17914TIP3    H275234   3.990   1.811  15.911 -0.4575  1.1879 -1.2255
17915TIP3   OH275235   5.461   3.904  15.359 -0.6291 -0.0437 -0.2779
17915TIP3    H175236   5.547   3.940  15.335 -1.1182  1.3987  0.0325
17915TIP3    H275237   5.478   3.853  15.438  0.0004 -0.0232 -0.3932
17916TIP3   OH275238   0.133   5.156  13.152 -0.3907  0.3102 -0.1532
17916TIP3    H175239   0.168   5.241  13.122  0.6426 -0.6229 -1.7665
17916TIP3    H275240   0.206   5.114  13.197 -0.8377  0.1714  0.4616
17917TIP3   OH275241   1.187   2.105   1.736  0.1572 -0.1798 -0.0668
17917TIP3    H175242   1.205   2.137   1.648  0.1060  0.0060 -0.0089
17917TIP3    H275243   1.123   2.166   1.772  1.9039  1.1359  0.9507
17918TIP3   OH275244   1.657   4.175   0.929 -0.1587 -0.4804  0.4230
17918TIP3    H175245   1.648   4.200   1.021  0.6409  0.1141  0.3426
17918TIP3    H275246   1.713   4.242   0.891 -1.3158 -0.1361 -0.7458
17919TIP3   OH275247   1.144   1.437  15.437  0.2391  0.3340 -0.4409
17919TIP3    H175248   1.054   1.406  15.444  0.6358 -0.9490 -0.7504
17919TIP3    H275249   1.167   1.464  15.526  0.1913 -1.2297  0.0750
17920TIP3   OH275250   2.917   2.261   5.187  0.5624  0.6982  0.6516
17920TIP3    H175251   2.899   2.181   5.236 -0.1676 -0.2723 -1.0983
17920TIP3    H275252   2.836   2.311   5.191  0.2594  0.2924 -0.0902
17921TIP3   OH275253   0.298   0.766  13.392  0.3844  0.2039  0.5491
17921TIP3    H175254   0.317   0.848  13.345 -1.3456  0.4861  0.2765
17921TIP3    H275255   0.218   0.784  13.441 -0.3069 -1.4618  0.1086
17922TIP3   OH275256   1.669   5.098   2.980  0.0063 -0.4744  0.2069
17922TIP3    H175257   1.762   5.101   3.003 -0.0132  0.8182  0.2218
17922TIP3    H275258   1.625   5.066   3.058  0.2427  1.0468  1.0106
17923TIP3   OH275259   1.933   0.669   4.350  0.4317  0.6211 -0.5065
17923TIP3    H175260   1.864   0.644   4.413  0.5038 -0.0520 -0.6786
17923TIP3    H275261   1.933   0.764   4.351 -2.0486  0.7445 -2.1247
17924TIP3   OH275262   4.167   3.288  16.936  0.4405  0.3633 -0.3655
17924TIP3    H175263   4.191   3.253  16.850  0.0160  1.4658 -0.9541
17924TIP3    H275264   4.099   3.353  16.917  0.1702  0.4509  0.8330
17925TIP3   OH275265   6.763   5.488  16.948 -0.5893 -0.3775  0.9543
17925TIP3    H175266   6.812   5.558  16.990  0.0585  0.1069 -0.5401
17925TIP3    H275267   6.780   5.411  17.002  1.8829 -0.2330  0.4669
17926TIP3   OH275268   3.266   5.870  10.716  0.1852 -0.6949 -0.2448
17926TIP3    H175269   3.292   5.951  10.671  0.4061  0.4240  1.7672
17926TIP3    H275270   3.173   5.884  10.737  0.7530  0.0720  2.0404
17927TIP3   OH275271   6.287   1.751  10.829  0.2687  0.0807  0.4979
17927TIP3    H175272   6.300   1.846  10.834 -0.5162  0.1494  1.9518
17927TIP3    H275273   6.221   1.740  10.761 -0.0469  0.6300  0.7044
17928TIP3   OH275274   4.655   4.752  12.960  0.2666 -0.1936 -0.6891
17928TIP3    H175275   4.692   4.805  12.890 -1.0310 -1.0908 -2.1172
17928TIP3    H275276   4.619   4.816  13.022  3.0722  0.6605  0.2055
17929TIP3   OH275277   1.984   5.816  13.313 -0.1889  0.1481 -0.1601
17929TIP3    H175278   1.890   5.804  13.306  0.0795 -2.8762  0.0611
17929TIP3    H275279   2.017   5.806  13.224 -0.0424  1.2485 -0.2459
17930TIP3   OH275280   0.194   5.180   3.963  0.3616  0.3398 -0.6960
17930TIP3    H175281   0.212   5.229   3.882 -0.5862  0.6274 -0.7545
17930TIP3    H275282   0.186   5.089   3.934 -0.9143  0.5522 -1.1142
17931TIP3   OH275283   1.095   3.073   4.794  0.6109 -0.5669 -0.4023
17931TIP3    H175284   1.131   3.156   4.826  0.0135 -0.8076  0.9420
17931TIP3    H275285   1.096   3.015   4.870 -0.5911 -1.2517 -0.8857
17932TIP3   OH275286   5.321   5.939   0.480  0.1105 -0.6821  0.1857
17932TIP3    H175287   5.377   5.888   0.421  0.4486  0.1544 -0.2317
17932TIP3    H275288   5.360   6.027   0.480 -0.5348 -0.3861  0.7960
17933TIP3   OH275289   4.431   5.596  16.909  0.7170 -0.3543 -0.2191
17933TIP3    H175290   4.431   5.572  17.002  3.0558 -0.5662 -0.2017
17933TIP3    H275291   4.502   5.660  16.902 -0.2622  0.6210 -1.6616
17934TIP3   OH275292   1.136   6.416  12.137 -0.1426 -0.0793 -0.3735
17934TIP3    H175293   1.087   6.344  12.176  0.5945  0.4787  1.7498
17934TIP3    H275294   1.164   6.383  12.052  0.0515 -2.2499  0.4658
17935TIP3   OH275295   5.766   1.141  14.821 -0.1134  0.8844 -0.4612
17935TIP3    H175296   5.674   1.166  14.818 -1.0338 -1.7739  1.3085
17935TIP3    H275297   5.801   1.186  14.898 -0.5927  0.1604  0.1961
17936TIP3   OH275298   5.958   2.341  12.087 -0.3961 -0.0382 -0.2670
17936TIP3    H175299   5.870   2.305  12.074 -0.6446 -0.0066  1.1467
17936TIP3    H275300   5.944   2.418  12.142  0.4947  0.1198 -0.2459
17937TIP3   OH275301   5.094   2.865   5.113  0.5981  0.1538  0.1390
17937TIP3    H175302   5.072   2.787   5.163  2.5692 -0.7327 -0.2747
17937TIP3    H275303   5.023   2.926   5.131  0.5414 -0.6173  2.9270
17938TIP3   OH275304   1.290   2.111   5.308  0.0208  0.0371 -0.0121
17938TIP3    H175305   1.257   2.112   5.398 -0.1159  0.3498 -0.0667
17938TIP3    H275306   1.298   2.203   5.284  2.5929  0.0529  0.6130
17939TIP3   OH275307   1.989   0.348   4.435 -0.3018  0.0899 -0.2071
17939TIP3    H175308   1.929   0.279   4.407  1.8810 -1.9754 -0.0879
17939TIP3    H275309   2.013   0.392   4.353 -0.0453 -0.7443 -0.5971
17940TIP3   OH275310   2.203   3.072  11.555  0.0217 -0.1823  0.0690
17940TIP3    H175311   2.183   3.148  11.610 -0.5705 -0.1382 -0.2090
17940TIP3    H275312   2.201   3.106  11.466 -0.8088 -0.6474 -0.0910
17941TIP3   OH275313   2.091   2.243   0.241  0.9347 -0.2306 -0.2461
17941TIP3    H175314   2.026   2.203   0.183  1.7850 -0.3042 -1.1889
17941TIP3    H275315   2.147   2.294   0.182  1.2307  0.5079  0.6513
17942TIP3   OH275316   4.207   4.163  16.511 -0.1575  0.0901 -1.0601
17942TIP3    H175317   4.142   4.095  16.529  0.4492 -0.1955  0.2115
17942TIP3    H275318   4.233   4.195  16.598  0.0251  1.5203 -1.6143
17943TIP3   OH275319   3.002   4.481  13.353 -0.4103 -0.2211  0.0522
17943TIP3    H175320   2.917   4.526  13.350  0.1180  0.8170 -0.0030
17943TIP3    H275321   2.993   4.411  13.289 -0.9910  0.3310 -0.4966
17944TIP3   OH275322   4.086   0.307  12.995 -0.2513 -0.0434 -0.3653
17944TIP3    H175323   4.079   0.303  13.090 -0.0451  1.6743 -0.2504
17944TIP3    H275324   4.156   0.370  12.979 -1.4364  0.9940 -1.6544
17945TIP3   OH275325   0.432   4.711  15.723  0.4551  0.0502 -0.3973
17945TIP3    H175326   0.463   4.764  15.796 -0.1026  1.2526 -1.0064
17945TIP3    H275327   0.466   4.754  15.645  0.1592 -0.6115 -0.9059
17946TIP3   OH275328   4.540   6.415  17.080 -0.3419 -0.0157  0.4874
17946TIP3    H175329   4.457   6.367  17.088  0.2457 -1.2120 -0.2394
17946TIP3    H275330   4.607   6.349  17.098  0.6691 -0.5146 -3.9720
17947TIP3   OH275331   3.821   6.300  16.081  0.4533 -0.1404  0.3451
17947TIP3    H175332   3.815   6.369  16.147 -0.7066 -0.7703  0.9062
17947TIP3    H275333   3.732   6.267  16.071  0.9435 -1.3926 -0.1083
17948TIP3   OH275334   4.859   5.967  12.390 -0.8848 -0.8212  0.4018
17948TIP3    H175335   4.793   6.026  12.427  0.7111  0.7397  0.9252
17948TIP3    H275336   4.860   5.892  12.449 -2.3678 -1.0202  0.2109
17949TIP3   OH275337   2.198   1.860   2.759  0.3728  0.1180  0.1360
17949TIP3    H175338   2.201   1.794   2.829 -2.7492  0.8539  1.1438
17949TIP3    H275339   2.238   1.816   2.684  0.8618 -1.9203  1.4905
17950TIP3   OH275340   5.609   4.902   6.166  0.0191  0.1346 -0.6267
17950TIP3    H175341   5.542   4.843   6.200  0.7755 -1.0312 -1.1022
17950TIP3    H275342   5.591   4.908   6.072  0.8364 -0.5569 -0.8393
17951TIP3   OH275343   2.091   0.282  16.908 -0.5512  0.1409  0.3493
17951TIP3    H175344   2.033   0.343  16.863 -0.1428 -0.5206 -1.1538
17951TIP3    H275345   2.033   0.214  16.941 -0.7174 -0.2773 -0.7432
17952TIP3   OH275346   1.683   5.487  12.347  0.6494  0.4744 -0.2691
17952TIP3    H175347   1.719   5.461  12.263 -0.7787 -0.5059 -0.6257
17952TIP3    H275348   1.663   5.404  12.391 -0.3151  0.9717  0.2603
17953TIP3   OH275349   2.030   6.708  12.725 -0.0436 -0.1786 -0.6325
17953TIP3    H175350   1.938   6.683  12.721  0.7472 -3.4829 -1.3296
17953TIP3    H275351   2.049   6.719  12.818 -0.7798 -1.0026 -0.3780
17954TIP3   OH275352   1.721   6.376  16.915  0.0752 -0.5775  0.7371
17954TIP3    H175353   1.769   6.401  16.836 -1.4419  1.5653  0.3742
17954TIP3    H275354   1.659   6.309  16.885 -1.0588  0.8028 -0.1577
17955TIP3   OH275355   0.358   2.501   5.218  0.6061  0.0132  0.1510
17955TIP3    H175356   0.294   2.475   5.152 -0.5490 -1.3169  1.7333
17955TIP3    H275357   0.417   2.426   5.226  0.8256  0.2197  0.5292
17956TIP3   OH275358   4.496   5.441   6.486  0.2687  0.3204 -0.2211
17956TIP3    H175359   4.483   5.534   6.468  0.1669  0.8856  2.3989
17956TIP3    H275360   4.409   5.408   6.506  0.6655  0.4100  1.8154
17957TIP3   OH275361   0.445   4.440   1.681  0.1260  0.4907  0.1727
17957TIP3    H175362   0.494   4.425   1.600  1.5286 -1.1066  1.2235
17957TIP3    H275363   0.427   4.534   1.682  0.5117  0.6204 -1.7334
17958TIP3   OH275364   1.857   1.073   4.758 -0.1178  0.0357  0.3057
17958TIP3    H175365   1.900   1.153   4.788 -0.5579  0.4661 -0.1793
17958TIP3    H275366   1.910   1.002   4.794 -0.3821  0.5293  1.7124
17959TIP3   OH275367   5.684   5.933   0.696 -0.2583 -0.5237 -0.2770
17959TIP3    H175368   5.641   6.010   0.734  1.8829  1.2134 -1.1265
17959TIP3    H275369   5.705   5.959   0.606  1.4277 -1.6920 -0.2745
17960TIP3   OH275370   6.683   3.198   6.175  0.8247 -0.2834  0.2673
17960TIP3    H175371   6.760   3.141   6.177  0.4218 -0.8202  0.2964
17960TIP3    H275372   6.695   3.251   6.096  0.1196 -1.8971 -0.9679
17961TIP3   OH275373   5.658   2.065   5.662 -0.4334  0.3132 -0.3366
17961TIP3    H175374   5.718   2.075   5.736  2.0360  1.2310 -2.2942
17961TIP3    H275375   5.668   2.147   5.613 -0.5331 -0.9537 -2.6272
17962TIP3   OH275376   0.122   5.593  10.814 -0.3529 -0.3157  0.7802
17962TIP3    H175377   0.040   5.548  10.799 -0.7070 -0.3494  2.5164
17962TIP3    H275378   0.098   5.671  10.864  0.2916  1.6286 -1.7502
17963TIP3   OH275379   3.438   3.979   4.570  0.3876  0.1065  0.5442
17963TIP3    H175380   3.455   3.899   4.520  1.3085  0.9062 -0.4714
17963TIP3    H275381   3.344   3.995   4.559  0.0836 -1.1188  1.2187
17964TIP3   OH275382   3.526   0.499   2.529 -0.1405 -0.2190  0.3058
17964TIP3    H175383   3.464   0.442   2.485 -1.2118  1.5733 -0.6295
17964TIP3    H275384   3.486   0.516   2.615  0.3826 -1.1743  0.7480
17965TIP3   OH275385   3.339   0.368   4.431 -0.3210  0.3663 -0.6693
17965TIP3    H175386   3.413   0.381   4.371 -0.3995  0.5321 -0.7324
17965TIP3    H275387   3.279   0.313   4.382 -0.4040  0.5367 -0.7618
17966TIP3   OH275388   2.781   5.633  15.582  0.6506  0.0007 -0.2532
17966TIP3    H175389   2.839   5.564  15.551  2.5527  2.1425 -1.7675
17966TIP3    H275390   2.825   5.670  15.657 -1.1086 -1.3021  1.5329
17967TIP3   OH275391   6.376   5.348  12.630  0.1902 -0.4764  0.2523
17967TIP3    H175392   6.386   5.379  12.540  0.8062  1.7961  1.0230
17967TIP3    H275393   6.448   5.390  12.678 -1.4654  0.3055  2.2114
17968TIP3   OH275394   6.040   2.244   5.158 -0.3630 -0.0400 -0.1800
17968TIP3    H175395   5.986   2.191   5.218 -0.6392  0.3002 -0.1239
17968TIP3    H275396   5.989   2.324   5.146  0.6646  0.7886  0.7885
17969TIP3   OH275397   4.227   5.760  11.703  0.4399  0.3881  0.3722
17969TIP3    H175398   4.222   5.826  11.634  0.4416 -1.9413 -2.0165
17969TIP3    H275399   4.187   5.683  11.664  0.4493 -1.0453  3.0359
17970TIP3   OH275400   1.710   3.162  15.198  0.2434 -0.1204  0.0587
17970TIP3    H175401   1.662   3.238  15.231  1.9351  0.7058  0.7538
17970TIP3    H275402   1.800   3.176  15.227  0.6757 -2.2372 -0.1013
17971TIP3   OH275403   4.638   3.151  12.195 -0.2870  0.1470  0.5212
17971TIP3    H175404   4.722   3.107  12.205 -0.9249 -0.8898  1.5567
17971TIP3    H275405   4.574   3.088  12.228 -1.8803 -0.5496 -3.4005
17972TIP3   OH275406   0.501   5.860   4.690  0.0156  0.3433  0.4399
17972TIP3    H175407   0.532   5.832   4.777  0.6663 -2.0141 -0.4574
17972TIP3    H275408   0.578   5.853   4.634 -1.1236 -1.6852 -1.0158
17973TIP3   OH275409   1.914   2.811  14.172  0.5983  0.0650  0.9356
17973TIP3    H175410   1.989   2.819  14.113 -0.4652 -0.3947 -0.5419
17973TIP3    H275411   1.878   2.724  14.153 -1.2149  0.8760  0.4685
17974TIP3   OH275412   4.086   5.002  14.881  0.0002  0.8310  1.3632
17974TIP3    H175413   4.083   5.065  14.810  0.9325  0.5590  1.0645
17974TIP3    H275414   3.996   4.969  14.888  0.2137 -0.4400 -0.8981
17975TIP3   OH275415   3.916   4.892   3.470 -0.1209 -0.0800 -0.1834
17975TIP3    H175416   3.943   4.815   3.420  1.3206  1.0144 -1.1505
17975TIP3    H275417   3.988   4.954   3.460 -0.8741  1.0938  1.2749
17976TIP3   OH275418   3.661   2.322   0.776 -0.6276 -0.0246 -0.2876
17976TIP3    H175419   3.641   2.258   0.708  0.1044 -0.0936 -0.4476
17976TIP3    H275420   3.632   2.405   0.740 -0.4652 -0.0964 -0.5848
17977TIP3   OH275421   5.424   5.532   6.225  0.0620 -0.1208  0.2732
17977TIP3    H175422   5.504   5.557   6.271  0.0344  0.4791  0.0043
17977TIP3    H275423   5.354   5.575   6.274  0.1230  1.4827 -0.9680
17978TIP3   OH275424   5.248   1.012   2.456 -0.4019  1.1168 -0.5248
17978TIP3    H175425   5.329   1.022   2.506  0.6947 -0.3353 -1.9206
17978TIP3    H275426   5.229   0.918   2.461 -1.6780  1.3477 -0.7316
17979TIP3   OH275427   0.067   5.633  14.895 -0.0727  0.6928  0.0407
17979TIP3    H175428   0.141   5.602  14.843 -1.1506  1.3206 -1.9423
17979TIP3    H275429   0.027   5.702  14.842 -1.1765  1.4563  1.7591
17980TIP3   OH275430   4.213   1.837   0.944 -0.4435  0.0166  0.2267
17980TIP3    H175431   4.289   1.880   0.904 -0.4080  1.3209  1.6161
17980TIP3    H275432   4.139   1.863   0.890  0.1990 -2.3454 -1.9458
17981TIP3   OH275433   1.553   3.713  14.795  0.3450  0.2534  0.0349
17981TIP3    H175434   1.620   3.648  14.771  0.1765  0.5807 -1.3777
17981TIP3    H275435   1.603   3.790  14.820  0.5158  0.5190 -1.0829
17982TIP3   OH275436   0.824   3.717  14.829 -0.1774  0.2499 -0.0919
17982TIP3    H175437   0.882   3.783  14.791  1.1867 -1.1352 -0.5492
17982TIP3    H275438   0.852   3.710  14.920 -1.3775  1.3704  0.3973
17983TIP3   OH275439   1.054   3.643  11.460 -0.7500 -0.4467 -0.3720
17983TIP3    H175440   1.122   3.583  11.428  1.8829  0.6586  2.5994
17983TIP3    H275441   1.067   3.723  11.410  0.5320 -0.1037  0.4526
17984TIP3   OH275442   6.665   1.915   2.543  0.3287  0.5408 -0.8918
17984TIP3    H175443   6.627   1.943   2.627  0.0990  0.3903 -0.9443
17984TIP3    H275444   6.747   1.965   2.536  0.8284 -0.1514 -0.1274
17985TIP3   OH275445   1.784   6.548  13.731 -0.0173 -0.0348 -0.3467
17985TIP3    H175446   1.756   6.580  13.817 -0.2909 -0.6707 -0.1894
17985TIP3    H275447   1.789   6.453  13.742 -0.1696 -0.1304 -1.0647
17986TIP3   OH275448   5.847   5.029   3.160 -0.5671  0.5076 -0.2700
17986TIP3    H175449   5.933   4.998   3.188 -0.6874 -0.4567 -0.9196
17986TIP3    H275450   5.858   5.049   3.067 -0.4575  2.6099  0.1459
17987TIP3   OH275451   6.101   0.815  16.279  0.1498  0.4520  0.6560
17987TIP3    H175452   6.184   0.826  16.231  0.0568  0.7264  0.5546
17987TIP3    H275453   6.085   0.900  16.318  0.5478  0.0524  1.7151
17988TIP3   OH275454   1.518   0.535   4.317  0.0101 -0.4361  0.2899
17988TIP3    H175455   1.592   0.563   4.264  0.1212  0.0199  0.6745
17988TIP3    H275456   1.540   0.446   4.345 -1.2633 -1.7888 -2.6266
17989TIP3   OH275457   2.857   5.603   4.825 -0.6436  0.3970 -0.1762
17989TIP3    H175458   2.889   5.528   4.776 -1.8666 -0.2619 -0.0084
17989TIP3    H275459   2.908   5.677   4.793  0.2762 -0.4297 -0.6579
17990TIP3   OH275460   3.842   0.470  13.024 -0.3009 -0.6756 -0.9356
17990TIP3    H175461   3.907   0.538  13.005 -1.2310  0.7279  0.6498
17990TIP3    H275462   3.821   0.481  13.117 -3.4682 -0.4469 -1.5551
17991TIP3   OH275463   1.038   2.970  17.215 -0.3868 -0.7751 -0.0021
17991TIP3    H175464   0.945   2.968  17.237 -0.0297  0.6077  1.8687
17991TIP3    H275465   1.079   3.017  17.288  1.3314  1.5776 -2.2890
17992TIP3   OH275466   5.713   1.278  10.584 -0.1837  0.2105  0.7126
17992TIP3    H175467   5.703   1.188  10.552  0.6591  0.6383 -0.8999
17992TIP3    H275468   5.669   1.332  10.518  1.1116  1.0993  0.5285
17993TIP3   OH275469   0.559   1.720   0.506 -0.5013 -0.2515 -0.3252
17993TIP3    H175470   0.586   1.664   0.579  1.8058  0.0749 -0.8357
17993TIP3    H275471   0.507   1.789   0.547  0.2580 -0.3914  0.9553
17994TIP3   OH275472   1.122   5.527   1.905 -0.2045  0.0222 -0.2494
17994TIP3    H175473   1.115   5.435   1.929  2.0651 -0.6031 -1.6624
17994TIP3    H275474   1.155   5.571   1.983  0.4672 -0.7060 -0.1174
17995TIP3   OH275475   4.063   5.887  12.281 -0.0375  0.6812  0.0175
17995TIP3    H175476   4.154   5.880  12.252 -0.0073  1.5368 -0.1355
17995TIP3    H275477   4.033   5.797  12.290  0.3236  0.3713 -1.5324
17996TIP3   OH275478   0.156   2.137  15.258 -0.6157 -0.0394  0.8511
17996TIP3    H175479   0.240   2.169  15.291  1.1396 -1.0057 -2.2616
17996TIP3    H275480   0.164   2.042  15.260 -1.9478 -0.1650  1.1215
17997TIP3   OH275481   5.161   2.213   5.679 -0.0488  0.5134 -0.0601
17997TIP3    H175482   5.138   2.137   5.625 -0.0798  0.6098 -0.1837
17997TIP3    H275483   5.256   2.211   5.682 -0.0357  0.6479 -0.3234
17998TIP3   OH275484   2.297   4.046  15.931 -0.3846  0.5855  0.3125
17998TIP3    H175485   2.332   3.970  15.884  0.7344  0.3262  1.5208
17998TIP3    H275486   2.272   4.011  16.017  2.2283  1.9707  1.7311
17999TIP3   OH275487   6.527   6.144   3.547 -0.3591 -0.4057  0.1667
17999TIP3    H175488   6.470   6.135   3.624 -1.1632 -1.4401 -0.5283
17999TIP3    H275489   6.506   6.230   3.511 -0.3406 -0.1274  0.8029
18000TIP3   OH275490   0.087   5.332  15.826  0.0823 -0.1301  0.0328
18000TIP3    H175491   0.047   5.277  15.894  1.4262  0.1969  1.1399
18000TIP3    H275492   0.161   5.279  15.794 -0.0869  0.0357 -0.6360
18001TIP3   OH275493   0.650   0.943  16.213 -0.2203 -0.0859 -0.5144
18001TIP3    H175494   0.573   0.893  16.241 -1.6746  1.1549 -2.0243
18001TIP3    H275495   0.656   1.014  16.276 -0.9650  0.3651 -0.9214
18002TIP3   OH275496   4.747   6.241   2.923 -0.0525  0.4885 -0.0489
18002TIP3    H175497   4.721   6.150   2.910 -0.9673  0.9146 -1.3210
18002TIP3    H275498   4.685   6.292   2.872  1.6116  1.7115 -0.9619
18003TIP3   OH275499   2.728   3.014   4.208 -0.1760 -0.1570  0.3170
18003TIP3    H175500   2.779   3.042   4.284  1.1361 -0.9117 -0.2706
18003TIP3    H275501   2.684   3.094   4.179  1.4300  0.7443  0.2601
18004TIP3   OH275502   0.511   6.194   1.485  0.3469 -0.1371  0.0582
18004TIP3    H175503   0.479   6.168   1.398  1.8424 -1.0505 -0.2505
18004TIP3    H275504   0.446   6.158   1.546 -0.6646  0.4241 -0.6538
18005TIP3   OH275505   6.639   3.730   4.125 -0.3370 -0.2237 -0.2673
18005TIP3    H175506   6.655   3.696   4.213 -0.2885  0.4440 -0.0100
18005TIP3    H275507   6.635   3.653   4.069  1.4083 -0.5637  0.0250
18006TIP3   OH275508   4.205   2.441   5.103  0.0532 -0.1831 -0.4704
18006TIP3    H175509   4.125   2.488   5.079 -0.2202 -0.7680 -0.7266
18006TIP3    H275510   4.275   2.491   5.063 -0.2660 -0.2049 -1.0701
18007TIP3   OH275511   1.694   5.930  12.406  0.0320 -0.5286  0.1666
18007TIP3    H175512   1.726   5.967  12.324 -1.5907 -0.7705 -0.6104
18007TIP3    H275513   1.614   5.979  12.425  1.3193  0.8367  2.6431
18008TIP3   OH275514   1.902   4.881   3.867 -0.4648  0.0844  0.7851
18008TIP3    H175515   1.978   4.939   3.872 -1.8143  1.7949  2.1632
18008TIP3    H275516   1.924   4.809   3.926  0.6731 -0.2053  0.0517
18009TIP3   OH275517   1.954   1.883  17.085 -0.1623  0.2293  0.0019
18009TIP3    H175518   1.910   1.856  17.165 -1.9840 -0.7252 -1.2296
18009TIP3    H275519   1.969   1.801  17.038 -0.6174  0.8823 -1.3333
18010TIP3   OH275520   2.705   5.379   3.225  0.5194  0.2207 -0.0531
18010TIP3    H175521   2.727   5.468   3.249 -0.4449  0.5362 -0.2888
18010TIP3    H275522   2.705   5.379   3.129  0.8296 -0.1163 -0.0572
18011TIP3   OH275523   1.142   0.450   5.299  0.2242  0.4288 -0.4035
18011TIP3    H175524   1.210   0.399   5.343 -0.3748 -0.0184  0.0222
18011TIP3    H275525   1.132   0.408   5.214  1.1679  1.1070 -0.8709
18012TIP3   OH275526   0.939   2.661  16.418 -0.4154  0.2433  0.3447
18012TIP3    H175527   0.994   2.703  16.484 -0.0731  0.7409 -0.2527
18012TIP3    H275528   0.949   2.716  16.340 -0.7314 -0.3992 -0.1529
18013TIP3   OH275529   3.844   0.605  11.275  0.0016 -0.4309 -0.0033
18013TIP3    H175530   3.884   0.600  11.188  0.3104  0.0138  0.1090
18013TIP3    H275531   3.750   0.599  11.259  0.0094  0.4364 -0.4418
18014TIP3   OH275532   5.102   6.415   5.034 -0.2019  0.3534  0.0959
18014TIP3    H175533   5.191   6.451   5.024  0.5372 -1.7702 -1.8466
18014TIP3    H275534   5.101   6.380   5.124  0.8509  0.6331  0.2368
18015TIP3   OH275535   1.974   3.511  11.852  0.3565 -0.1358  0.0509
18015TIP3    H175536   2.036   3.571  11.893  1.3804 -1.5895  0.7164
18015TIP3    H275537   1.889   3.552  11.864  1.1053  1.5955 -0.3017
18016TIP3   OH275538   1.732   5.209   1.873  0.1953  0.1934 -0.3582
18016TIP3    H175539   1.814   5.215   1.824  0.3875 -1.5483 -0.3018
18016TIP3    H275540   1.756   5.229   1.963  0.1472  1.7573 -0.6687
18017TIP3   OH275541   4.570   4.230  16.679 -0.2279  0.3593  0.5809
18017TIP3    H175542   4.653   4.255  16.639 -1.3799  1.3221 -1.4005
18017TIP3    H275543   4.535   4.311  16.715  0.6243 -0.4294  3.4729
18018TIP3   OH275544   3.579   5.067   4.214 -0.2366 -0.0158  0.0658
18018TIP3    H175545   3.669   5.039   4.195 -0.1398  0.0096  0.4894
18018TIP3    H275546   3.588   5.139   4.276 -0.5975 -1.1251  1.4753
18019TIP3   OH275547   3.466   0.964  14.430 -0.1277  0.0681 -0.4880
18019TIP3    H175548   3.403   1.026  14.467 -1.1789 -1.3556  0.2186
18019TIP3    H275549   3.539   1.018  14.401 -0.8183  1.5874  0.4810
18020TIP3   OH275550   0.607   3.308  13.800  0.3308 -0.1209  0.1341
18020TIP3    H175551   0.641   3.377  13.857 -0.0523 -1.0255  1.5106
18020TIP3    H275552   0.670   3.237  13.808  1.4969  0.5259 -2.4034
18021TIP3   OH275553   3.435   3.562   0.233  0.2644 -0.2091  0.1468
18021TIP3    H175554   3.499   3.629   0.258 -0.6884  1.2064 -1.0462
18021TIP3    H275555   3.416   3.580   0.141 -1.2343 -1.1156  0.2483
18022TIP3   OH275556   0.693   0.993   0.432 -0.3520  0.5818  0.4845
18022TIP3    H175557   0.776   1.040   0.423  0.1655 -0.1829  1.1395
18022TIP3    H275558   0.635   1.054   0.478 -0.0432  0.9793  0.3549
18023TIP3   OH275559   3.576   4.502  13.707 -0.4417  0.3348 -0.2569
18023TIP3    H175560   3.644   4.449  13.665  2.2733  3.0379  0.3725
18023TIP3    H275561   3.562   4.575  13.646 -0.6842  1.2741  0.8985
18024TIP3   OH275562   4.130   6.483   5.248 -0.8768  0.6244 -0.0103
18024TIP3    H175563   4.073   6.547   5.290 -1.4701 -0.3021  0.6440
18024TIP3    H275564   4.197   6.535   5.204  1.2979  1.7140  4.0825
18025TIP3   OH275565   1.263   4.415   0.642  0.0179  0.4215  0.0073
18025TIP3    H175566   1.193   4.383   0.585 -0.0449  1.2757 -0.4088
18025TIP3    H275567   1.340   4.363   0.617 -0.3515 -0.2054  0.1517
18026TIP3   OH275568   4.581   0.286  12.085  0.0330  0.2030 -1.5333
18026TIP3    H175569   4.550   0.352  12.146 -0.5308  1.2563 -2.9078
18026TIP3    H275570   4.549   0.315  12.000 -0.1948 -1.8222 -2.1912
18027TIP3   OH275571   6.735   2.773   2.459 -0.6489 -0.1059  0.1436
18027TIP3    H175572   6.717   2.688   2.418 -0.2568 -0.2043  0.1795
18027TIP3    H275573   6.746   2.834   2.385  0.5667 -0.3810  0.0773
18028TIP3   OH275574   4.230   3.037   1.288 -0.4775  0.0045 -0.1014
18028TIP3    H175575   4.169   2.967   1.265  0.6642 -1.6331  1.5899
18028TIP3    H275576   4.288   2.998   1.353  0.9218  2.2090  0.0730
18029TIP3   OH275577   5.752   0.291   5.695  0.6629  0.0001  0.1001
18029TIP3    H175578   5.810   0.305   5.771  1.4943 -0.6001 -0.4060
18029TIP3    H275579   5.683   0.357   5.706  2.4991  2.1357 -0.3040
18030TIP3   OH275580   6.484   3.429   0.432 -0.3759 -0.0546  0.2806
18030TIP3    H175581   6.559   3.386   0.392 -0.5665  0.0957 -0.2403
18030TIP3    H275582   6.408   3.377   0.405 -0.6768  0.9333 -0.8522
18031TIP3   OH275583   5.049   4.688   3.864  0.0461 -0.0334 -0.4949
18031TIP3    H175584   5.133   4.731   3.880 -0.1606  0.0985  0.2931
18031TIP3    H275585   5.043   4.620   3.932  0.2047 -1.0817 -1.4905
18032TIP3   OH275586   5.698   6.253   2.154 -0.6272 -0.2309  0.4131
18032TIP3    H175587   5.705   6.328   2.097 -0.8869 -0.8499 -0.4509
18032TIP3    H275588   5.605   6.228   2.151 -0.3261 -1.3417 -0.3254
18033TIP3   OH275589   5.824   5.317  11.843 -0.4655  0.0203  0.1619
18033TIP3    H175590   5.913   5.347  11.863 -0.7896  1.6691 -0.6713
18033TIP3    H275591   5.777   5.323  11.926  0.1559 -0.7498  0.5824
18034TIP3   OH275592   0.793   3.768  13.254 -0.2901  0.2497  0.3957
18034TIP3    H175593   0.702   3.787  13.274  0.0844  1.9481  0.6671
18034TIP3    H275594   0.808   3.810  13.170  0.0268 -0.7632 -0.0638
18035TIP3   OH275595   4.793   3.080  16.824  0.2377 -0.2978 -0.3473
18035TIP3    H175596   4.715   3.075  16.769 -1.0397 -0.1487  1.3732
18035TIP3    H275597   4.841   3.000  16.804 -1.0163 -1.0522 -0.4786
18036TIP3   OH275598   3.179   6.606   3.018  0.0420 -0.2664  0.2110
18036TIP3    H175599   3.218   6.692   3.035 -1.3034  0.3007  0.5378
18036TIP3    H275600   3.085   6.619   3.031 -0.4924 -1.1599 -2.2162
18037TIP3   OH275601   3.740   0.473   1.612 -0.4966  1.0205 -0.2611
18037TIP3    H175602   3.717   0.560   1.580 -0.1325  1.3746  0.4192
18037TIP3    H275603   3.677   0.456   1.682 -0.2075  0.9831 -0.0082
18038TIP3   OH275604   0.250   4.337  14.822  0.4409  0.0495  0.3095
18038TIP3    H175605   0.292   4.419  14.850  0.7313  0.1540 -0.3933
18038TIP3    H275606   0.292   4.269  14.875  0.4803  0.3117  0.6183
18039TIP3   OH275607   4.704   2.838   1.247 -0.1117  0.3948 -0.6634
18039TIP3    H175608   4.653   2.836   1.166  1.0151 -0.6273 -1.3825
18039TIP3    H275609   4.714   2.746   1.271  0.3929  0.6410  0.1160
18040TIP3   OH275610   1.289   5.838  16.114 -0.3618  0.0309  0.1469
18040TIP3    H175611   1.360   5.903  16.109 -1.8985  1.7293 -2.1010
18040TIP3    H275612   1.220   5.875  16.060 -1.4131 -3.4622 -1.1963
18041TIP3   OH275613   0.173   5.904  12.471  0.4825 -0.0513  0.5253
18041TIP3    H175614   0.169   5.809  12.459  1.1864 -0.1447  0.9848
18041TIP3    H275615   0.224   5.916  12.551  1.4903  0.7502 -0.2076
18042TIP3   OH275616   1.769   0.826   3.946 -0.2141  0.4593  0.4507
18042TIP3    H175617   1.710   0.793   3.877  0.0021 -1.3964  1.1044
18042TIP3    H275618   1.740   0.916   3.960 -0.8001  0.6264 -1.4830
18043TIP3   OH275619   0.924   4.909   0.506 -0.2506  0.0056 -0.5931
18043TIP3    H175620   0.899   4.871   0.421 -0.3968 -0.1222 -0.4942
18043TIP3    H275621   0.960   4.835   0.555 -1.1682 -0.1650 -0.1477
18044TIP3   OH275622   0.634   1.171  16.354 -0.0014  0.7642  0.1753
18044TIP3    H175623   0.662   1.197  16.442 -0.6228  0.0301  0.6019
18044TIP3    H275624   0.554   1.220  16.339 -0.2243  0.4301  0.2664
18045TIP3   OH275625   5.178   4.069   0.236 -0.2234 -0.2608  0.0549
18045TIP3    H175626   5.185   4.117   0.319  1.2906 -0.4658  0.0768
18045TIP3    H275627   5.240   3.997   0.245 -0.1412 -0.3640 -1.2120
18046TIP3   OH275628   0.060   5.652  12.401  0.3659  0.0943 -0.5002
18046TIP3    H175629   0.072   5.594  12.326 -1.0251 -0.1739 -0.5291
18046TIP3    H275630  -0.004   5.608  12.457  1.1060  0.4613  0.6787
18047TIP3   OH275631   4.114   4.856  13.909 -0.1475  0.2667  0.4886
18047TIP3    H175632   4.097   4.833  13.817  0.3807 -1.4485  0.7801
18047TIP3    H275633   4.028   4.856  13.950 -0.5320  2.2473 -0.2216
18048TIP3   OH275634   1.643   4.795  15.316 -0.3842  0.0640  0.5630
18048TIP3    H175635   1.554   4.826  15.297 -0.0544  0.1133 -1.1061
18048TIP3    H275636   1.668   4.843  15.395 -1.7163  0.2828  0.8871
18049TIP3   OH275637   2.067   6.682   1.458 -0.3103 -0.1512  0.6821
18049TIP3    H175638   2.115   6.694   1.376  1.9602  1.0558  2.0884
18049TIP3    H275639   1.980   6.719   1.441  0.3000  0.5864 -1.0032
18050TIP3   OH275640   0.956   1.611   2.872  0.1934  0.2795 -0.1857
18050TIP3    H175641   1.044   1.640   2.846 -0.4276  1.8241 -0.6621
18050TIP3    H275642   0.972   1.548   2.943  1.7957 -1.5478 -2.0354
18051TIP3   OH275643   2.675   2.285   2.490 -0.1754 -0.1211 -0.1009
18051TIP3    H175644   2.612   2.218   2.462  0.4317 -0.8794  0.3282
18051TIP3    H275645   2.621   2.356   2.523 -0.8152 -0.8026  0.3539
18052TIP3   OH275646   3.008   6.324   4.271  0.0899 -0.6635 -0.1890
18052TIP3    H175647   3.041   6.407   4.237 -0.2975 -0.4788 -0.1168
18052TIP3    H275648   2.976   6.344   4.359 -3.8271  0.1066 -1.5779
18053TIP3   OH275649   6.135   2.621  12.596  0.0063  0.4252  0.0185
18053TIP3    H175650   6.222   2.589  12.618  0.1495 -0.4793 -1.7083
18053TIP3    H275651   6.079   2.586  12.665  0.6215 -1.1731 -0.2502
18054TIP3   OH275652   0.815   0.971   4.512 -0.2619 -0.4805  0.5364
18054TIP3    H175653   0.758   1.002   4.583 -0.0423 -0.4886  0.7158
18054TIP3    H275654   0.785   0.882   4.494  0.5300 -0.9641  1.5140
18055TIP3   OH275655   0.267   5.009  12.641 -0.2703  0.1351 -0.6525
18055TIP3    H175656   0.351   5.006  12.685  0.4538  0.5801 -1.9613
18055TIP3    H275657   0.220   4.932  12.673  0.6133 -0.1049  0.1010
18056TIP3   OH275658   0.834   3.695  13.502 -0.1574  0.5716 -0.1965
18056TIP3    H175659   0.751   3.714  13.545 -0.4315 -2.3216  0.8044
18056TIP3    H275660   0.821   3.720  13.411 -2.0249  0.4626  0.0078
18057TIP3   OH275661   4.215   1.302  14.032 -0.0536 -0.1938 -0.2250
18057TIP3    H175662   4.181   1.373  13.978  1.3623  2.9513  2.6440
18057TIP3    H275663   4.146   1.287  14.097  0.7127  0.6047  0.8192
18058TIP3   OH275664   1.016   0.767   1.323 -0.4488  0.0967  0.3101
18058TIP3    H175665   1.085   0.794   1.262  0.4815  0.4409  1.4848
18058TIP3    H275666   1.001   0.675   1.303  0.4846 -0.0318  0.1617
18059TIP3   OH275667   2.089   2.283   2.142  0.1617  0.2850  0.1693
18059TIP3    H175668   2.038   2.203   2.130 -1.7423  1.3026  0.9995
18059TIP3    H275669   2.180   2.256   2.130 -0.4154 -2.0041  0.5320
18060TIP3   OH275670   3.315   6.475  15.702 -0.2993 -0.5385  0.1501
18060TIP3    H175671   3.359   6.435  15.627  0.9158  0.1991  0.4317
18060TIP3    H275672   3.283   6.401  15.754 -0.7254 -1.0598 -0.8449
18061TIP3   OH275673   4.880   5.051  16.686 -0.0397  0.4780 -0.5521
18061TIP3    H175674   4.934   4.979  16.652  1.7973  1.5202  0.0131
18061TIP3    H275675   4.827   5.078  16.611  1.6959  0.7089 -1.7643
18062TIP3   OH275676   6.652   2.811   4.285  0.4441 -0.4468  0.0348
18062TIP3    H175677   6.706   2.861   4.345  0.2039  2.8444 -2.1688
18062TIP3    H275678   6.714   2.768   4.226  0.8064  1.5730 -1.1687
18063TIP3   OH275679   4.905   0.296  14.314  0.3967 -0.1324 -0.2295
18063TIP3    H175680   4.982   0.352  14.322  0.2508  0.2306 -1.2093
18063TIP3    H275681   4.899   0.251  14.398  0.2213  1.6858  0.7737
18064TIP3   OH275682   5.234   3.670  15.493 -0.3166  0.0524  0.3562
18064TIP3    H175683   5.214   3.651  15.585 -1.3367  1.3411  0.4195
18064TIP3    H275684   5.312   3.618  15.475 -2.0911 -3.0630  0.9125
18065TIP3   OH275685   5.528   1.843   1.346  0.4477 -0.7767 -0.3237
18065TIP3    H175686   5.517   1.768   1.404  1.5721  0.6699  1.9372
18065TIP3    H275687   5.585   1.812   1.276  2.0150 -1.7330  1.3004
18066TIP3   OH275688   4.339   6.073  15.513  0.1644 -0.2707 -0.0506
18066TIP3    H175689   4.310   6.065  15.604  1.7489 -0.1337  0.5021
18066TIP3    H275690   4.261   6.100  15.465 -0.7864 -0.7151  1.2067
18067TIP3   OH275691   4.381   2.719   2.565  0.3837 -0.7892  0.1817
18067TIP3    H175692   4.449   2.785   2.554  0.1332 -0.8639 -2.4355
18067TIP3    H275693   4.429   2.638   2.583  0.8094 -0.3792  0.9551
18068TIP3   OH275694   5.787   5.266   4.132 -0.3770 -0.0890 -0.0885
18068TIP3    H175695   5.815   5.318   4.208  0.3471 -1.9775  1.0017
18068TIP3    H275696   5.851   5.196   4.125 -1.7708 -1.3445 -0.9703
18069TIP3   OH275697   6.454   1.393   3.293 -0.2891  0.1454 -0.1327
18069TIP3    H175698   6.404   1.311   3.297 -0.2141  0.1496  1.2813
18069TIP3    H275699   6.428   1.433   3.210  1.5640 -2.4898 -2.1480
18070TIP3   OH275700   3.470   0.199  11.665  0.6056 -0.6453  0.1609
18070TIP3    H175701   3.559   0.217  11.696  0.4542  0.3914  0.0202
18070TIP3    H275702   3.413   0.246  11.727  0.1372 -1.4652  0.3671
18071TIP3   OH275703   5.721   4.995  12.586 -0.1922  0.2416 -0.0008
18071TIP3    H175704   5.636   4.958  12.564  0.3934 -1.2637  0.1788
18071TIP3    H275705   5.745   4.954  12.669  1.0128  0.0856 -0.3985
18072TIP3   OH275706   4.909   1.340  16.919 -0.3821 -0.2454  0.6379
18072TIP3    H175707   4.954   1.413  16.961  0.7657  0.2433 -1.3119
18072TIP3    H275708   4.917   1.268  16.981  1.5045  0.3535  1.1593
18073TIP3   OH275709   5.230   1.730  16.537  0.0752  0.1354 -0.3331
18073TIP3    H175710   5.148   1.724  16.489  0.0821 -0.6595 -0.2575
18073TIP3    H275711   5.289   1.668  16.493 -0.3528 -1.6995  1.5245
18074TIP3   OH275712   6.238   6.155   1.840 -0.2191  0.2545 -0.3310
18074TIP3    H175713   6.226   6.088   1.908 -0.2177  0.4133 -0.1725
18074TIP3    H275714   6.192   6.120   1.764  1.9044 -1.1131 -1.0621
18075TIP3   OH275715   1.436   0.110   1.712 -0.1101  0.0581  0.5275
18075TIP3    H175716   1.524   0.144   1.731 -0.5269  0.2501  2.2536
18075TIP3    H275717   1.384   0.136   1.788 -0.8697 -2.9569  1.1589
18076TIP3   OH275718   6.164   0.686   6.144 -0.5211 -0.0839  0.7109
18076TIP3    H175719   6.095   0.631   6.105 -1.0887  1.4519 -0.5398
18076TIP3    H275720   6.134   0.703   6.233 -1.0029 -0.6852  0.6711
18077TIP3   OH275721   3.003   1.734   4.453  0.2868 -0.0527  0.0392
18077TIP3    H175722   3.028   1.766   4.539  1.1886  1.7866 -0.8660
18077TIP3    H275723   2.929   1.675   4.470 -1.0809  2.0538  1.8546
18078TIP3   OH275724   2.809   2.050  16.469 -0.4157 -0.0254 -0.5618
18078TIP3    H175725   2.815   2.112  16.397 -0.1979 -0.1596 -0.6602
18078TIP3    H275726   2.739   2.085  16.525  0.7861  1.2151  0.2532
18079TIP3   OH275727   3.234   5.610   5.878  0.8533 -0.1492  0.6554
18079TIP3    H175728   3.259   5.533   5.826 -1.0849 -0.5500  0.2028
18079TIP3    H275729   3.253   5.586   5.968  2.5316 -0.1805  0.3145
18080TIP3   OH275730   5.986   0.829  13.344 -0.0208  0.1387  0.3453
18080TIP3    H175731   6.017   0.798  13.429  0.4776 -0.3813 -0.0142
18080TIP3    H275732   6.060   0.816  13.285 -0.4103  0.3485 -0.2016
18081TIP3   OH275733   3.739   6.565   0.881  0.1088  0.2532  0.3925
18081TIP3    H175734   3.743   6.481   0.835  1.8652 -0.1874  1.2808
18081TIP3    H275735   3.757   6.544   0.972  0.9658  1.6164  0.5757
18082TIP3   OH275736   5.883   3.754  14.287 -0.1770 -0.0986  0.1023
18082TIP3    H175737   5.854   3.791  14.204 -0.6105  1.3391  0.8590
18082TIP3    H275738   5.967   3.797  14.305  1.5225 -2.6978 -1.0554
18083TIP3   OH275739   3.960   0.494  13.972 -0.0391  0.3883  0.2012
18083TIP3    H175740   3.943   0.407  13.935  0.0675  0.3990  0.1262
18083TIP3    H275741   4.051   0.490  14.003  0.0590  0.5608 -0.0602
18084TIP3   OH275742   0.460   3.846   0.995  0.4824  0.0943  0.0224
18084TIP3    H175743   0.376   3.863   1.039  0.6221 -0.3596  0.4695
18084TIP3    H275744   0.503   3.931   0.993  0.5765  0.0818  0.9886
18085TIP3   OH275745   0.096   2.456  12.581  0.5137  0.2815 -0.1058
18085TIP3    H175746   0.149   2.454  12.661 -0.2770 -0.6906  0.4228
18085TIP3    H275747   0.051   2.372  12.581  1.7776 -0.4971 -2.4838
18086TIP3   OH275748   5.636   3.001  14.435  0.0910  0.2238 -0.1299
18086TIP3    H175749   5.686   3.022  14.514  1.2072 -1.3330 -0.3561
18086TIP3    H275750   5.546   3.026  14.456 -0.1845 -2.4316  2.7001
18087TIP3   OH275751   3.711   5.563   3.079 -0.2128 -0.5533  0.0808
18087TIP3    H175752   3.674   5.480   3.109 -0.8813 -0.2354  0.1616
18087TIP3    H275753   3.663   5.582   2.998 -0.9690  0.3774  0.7293
18088TIP3   OH275754   0.776   0.240  13.672  0.0100 -0.1140 -0.3015
18088TIP3    H175755   0.779   0.323  13.719  0.5689 -0.2731 -0.0491
18088TIP3    H275756   0.688   0.237  13.634 -1.0721 -0.7580  2.1033
18089TIP3   OH275757   5.706   4.125  14.802  0.0687  0.1467 -0.4643
18089TIP3    H175758   5.682   4.082  14.884 -0.4364  1.4721  0.1226
18089TIP3    H275759   5.747   4.056  14.749  1.3698 -0.4977  1.2936
18090TIP3   OH275760   0.132   1.409  16.667  0.8209 -0.3759 -0.0360
18090TIP3    H175761   0.142   1.400  16.572 -0.9716  3.2973 -0.7887
18090TIP3    H275762   0.218   1.390  16.702  1.9233 -0.4751 -2.5601
18091TIP3   OH275763   5.058   6.803   3.980  0.2661  0.0284  0.4323
18091TIP3    H175764   5.016   6.859   3.915  0.5275  0.5009  0.6674
18091TIP3    H275765   5.084   6.725   3.932  0.5308  0.4108 -0.0476
18092TIP3   OH275766   2.992   5.796  12.242  0.5672  0.2104  0.3914
18092TIP3    H175767   2.926   5.862  12.218  0.5581 -1.2367 -4.8942
18092TIP3    H275768   2.941   5.721  12.273 -0.4505 -0.4981 -2.5950
18093TIP3   OH275769   0.518   0.529   3.014 -0.6381 -0.0592  0.8153
18093TIP3    H175770   0.547   0.620   3.015  2.8322 -1.0123  2.0834
18093TIP3    H275771   0.526   0.503   2.922  2.6825 -0.1495  1.0118
18094TIP3   OH275772   1.177   1.324  17.201  0.0713 -0.2919  0.3576
18094TIP3    H175773   1.195   1.391  17.135 -0.4431 -1.5143 -1.0934
18094TIP3    H275774   1.170   1.372  17.283  2.6632  1.0827 -0.1193
18095TIP3   OH275775   3.644   0.828  11.627 -0.2719  0.1299  0.1809
18095TIP3    H175776   3.735   0.857  11.631 -0.0831 -0.5206  0.7253
18095TIP3    H275777   3.644   0.741  11.667 -0.9094 -0.4343 -0.9996
18096TIP3   OH275778   1.009   4.142  14.446  0.2467 -0.3292 -0.1225
18096TIP3    H175779   0.920   4.144  14.480 -0.1349 -0.9041 -1.0596
18096TIP3    H275780   1.064   4.134  14.524 -0.4628  0.8211  0.5234
18097TIP3   OH275781   6.349   5.769   2.863 -0.1078  0.1103  0.5323
18097TIP3    H175782   6.257   5.785   2.841 -0.4502 -1.2326  0.8623
18097TIP3    H275783   6.368   5.832   2.933 -0.4863  1.0218 -0.1656
18098TIP3   OH275784   2.720   0.580  13.971  0.1208  0.1281  0.0866
18098TIP3    H175785   2.766   0.552  13.892  0.7754 -0.4478  0.6599
18098TIP3    H275786   2.643   0.628  13.939  0.4991  0.0939 -0.8881
18099TIP3   OH275787   0.348   0.942   1.800  0.1457 -0.3577  0.0711
18099TIP3    H175788   0.370   0.968   1.711  0.3831  0.8018  0.4529
18099TIP3    H275789   0.383   1.012   1.855 -2.7930  0.6290  0.8512
18100TIP3   OH275790   4.492   1.793   3.805  0.0716 -0.1038 -0.1658
18100TIP3    H175791   4.426   1.724   3.817  0.2244  0.0544  2.1223
18100TIP3    H275792   4.442   1.874   3.809  0.2713 -0.0107  0.6364
18101TIP3   OH275793   0.620   2.580   4.519 -0.4656  0.0723  0.3670
18101TIP3    H175794   0.689   2.645   4.506  1.6870 -1.7137  2.1728
18101TIP3    H275795   0.564   2.617   4.587 -1.4756  1.6039 -1.2218
18102TIP3   OH275796   2.114   3.826  13.501  0.1986 -0.4802 -0.1341
18102TIP3    H175797   2.102   3.771  13.579  1.5638 -1.0775 -0.3170
18102TIP3    H275798   2.130   3.764  13.430 -1.2288  0.0494 -0.9690
18103TIP3   OH275799   6.203   1.753  15.842  0.4323 -0.6948 -0.0156
18103TIP3    H175800   6.180   1.662  15.859  0.1423 -0.7978 -0.8926
18103TIP3    H275801   6.290   1.763  15.881  1.6712 -2.1304 -2.1690
18104TIP3   OH275802   6.094   0.324  15.684  0.4193 -0.6136  0.0901
18104TIP3    H175803   6.127   0.264  15.750 -0.6860 -0.7295  0.5541
18104TIP3    H275804   6.115   0.411  15.717 -2.5743 -0.4970  2.0787
18105TIP3   OH275805   0.196   1.449  14.356 -0.1759  0.5316 -0.7611
18105TIP3    H175806   0.181   1.537  14.390  3.1011  0.2206  2.0563
18105TIP3    H275807   0.269   1.459  14.296  0.8773 -0.2968  0.3231
18106TIP3   OH275808   2.555   1.014  10.472  0.3068  0.6200 -0.3180
18106TIP3    H175809   2.648   0.990  10.479 -0.1057 -1.1463 -0.4880
18106TIP3    H275810   2.555   1.109  10.472  2.2002  0.6633 -1.1522
18107TIP3   OH275811   4.976   4.553  12.300  0.5429  0.4021 -0.4210
18107TIP3    H175812   5.061   4.580  12.335  0.8774 -0.4641 -0.5511
18107TIP3    H275813   4.986   4.558  12.205  0.7057 -0.4840 -0.4502
18108TIP3   OH275814   5.639   0.046   0.322 -0.5043 -0.5662  0.3075
18108TIP3    H175815   5.721   0.006   0.351 -0.4842  0.2553  1.4590
18108TIP3    H275816   5.614  -0.004   0.245 -0.0512 -2.2414  1.2061
18109TIP3   OH275817   2.519   1.932  14.065 -0.4797  0.5821  0.2879
18109TIP3    H175818   2.429   1.907  14.086 -0.6799 -0.2748 -1.4371
18109TIP3    H275819   2.526   1.920  13.971  1.4353  0.6963  0.3756
18110TIP3   OH275820   4.016   3.104  13.419  0.1423  0.1132 -0.5865
18110TIP3    H175821   3.932   3.131  13.382  0.0467  0.7946  0.0874
18110TIP3    H275822   4.063   3.063  13.347  0.3023  2.1362 -1.7019
18111TIP3   OH275823   5.660   4.227   1.887 -0.3293  0.3762  0.3599
18111TIP3    H175824   5.655   4.190   1.975  0.0783  2.6786  1.4090
18111TIP3    H275825   5.731   4.179   1.846  0.2959  0.0899  1.7111
18112TIP3   OH275826   1.151   0.511   2.612  0.0406 -0.0302  0.4170
18112TIP3    H175827   1.204   0.462   2.549 -0.4974  0.8062 -0.7398
18112TIP3    H275828   1.189   0.491   2.697  0.5168 -1.5634 -0.1255
18113TIP3   OH275829   5.727   3.142   2.754  0.6652  0.5292  0.4017
18113TIP3    H175830   5.654   3.174   2.807  0.6401 -0.5059  1.0240
18113TIP3    H275831   5.733   3.049   2.775  1.4707  0.3672 -0.4710
18114TIP3   OH275832   1.797   4.886   6.607 -0.2206 -0.0313  0.1450
18114TIP3    H175833   1.878   4.866   6.560  0.0602  0.0258  0.5990
18114TIP3    H275834   1.792   4.981   6.606 -1.0294 -0.0506 -1.1211
18115TIP3   OH275835   6.754   6.417  16.717 -0.3891 -0.5243 -0.4319
18115TIP3    H175836   6.676   6.452  16.674 -0.6383  0.1102  0.4847
18115TIP3    H275837   6.735   6.324  16.728 -1.2247 -0.3008  0.1683
18116TIP3   OH275838   5.727   4.075   3.128 -0.1805 -0.2106 -0.0510
18116TIP3    H175839   5.716   4.047   3.219 -1.5242  0.7650  0.1221
18116TIP3    H275840   5.698   4.000   3.076  2.2988 -1.4748  0.2240
18117TIP3   OH275841   1.418   5.448   2.897 -0.6677 -0.1726  0.2586
18117TIP3    H175842   1.383   5.508   2.963  1.1437  0.2610  0.8958
18117TIP3    H275843   1.512   5.445   2.915 -0.8120 -4.5880  1.3910
18118TIP3   OH275844   4.805   3.047   2.778  0.1972  0.4165  0.0272
18118TIP3    H175845   4.884   3.045   2.724 -0.9915  0.8977 -1.8200
18118TIP3    H275846   4.743   2.990   2.732 -0.8049  0.7078  0.9783
18119TIP3   OH275847   0.316   3.123   2.126 -0.0476  0.4582  0.6760
18119TIP3    H175848   0.283   3.126   2.037 -3.1470 -0.5294  1.6640
18119TIP3    H275849   0.319   3.214   2.155 -0.2335  0.6877 -0.0299
18120TIP3   OH275850   5.131   3.439   2.439  0.7401  0.4345 -0.1214
18120TIP3    H175851   5.117   3.532   2.458  0.9453  0.6030 -0.7628
18120TIP3    H275852   5.123   3.396   2.524 -2.1148  0.6662 -0.1793
18121TIP3   OH275853   2.037   5.514  14.938  0.4451  0.0598  0.3850
18121TIP3    H175854   1.967   5.452  14.957 -0.4748  0.8123 -0.4462
18121TIP3    H275855   2.106   5.462  14.897 -0.6109 -0.2976 -0.9784
18122TIP3   OH275856   4.974   2.356  16.302  0.4574  0.0941 -0.3552
18122TIP3    H175857   4.880   2.352  16.287  0.7391  1.2970 -2.8828
18122TIP3    H275858   4.995   2.272  16.344 -1.6429 -0.3862 -0.1624
18123TIP3   OH275859   3.240   3.548  15.459  0.2629  0.3318 -0.4030
18123TIP3    H175860   3.310   3.579  15.401  0.0485 -1.4801 -1.6917
18123TIP3    H275861   3.246   3.453  15.456 -0.6572  0.1726  1.4869
18124TIP3   OH275862   5.988   6.433  12.695 -0.1268 -0.3509 -0.2811
18124TIP3    H175863   5.910   6.488  12.694 -0.1160 -0.3107  0.3639
18124TIP3    H275864   5.972   6.367  12.628 -0.5326 -0.0936 -0.4418
18125TIP3   OH275865   5.137   4.921   3.382 -0.2347 -0.3023  0.1629
18125TIP3    H175866   5.090   4.992   3.338  1.3158  1.8559  1.7825
18125TIP3    H275867   5.068   4.859   3.405 -1.8141  1.1151 -0.4676
18126TIP3   OH275868   3.194   5.466   2.506  0.1209  0.0701  0.3468
18126TIP3    H175869   3.194   5.370   2.509  0.3995  0.0009 -1.1665
18126TIP3    H275870   3.286   5.490   2.496 -0.0582  0.4302 -0.4944
18127TIP3   OH275871   2.212   2.534  14.575 -0.1673  0.1720 -0.2298
18127TIP3    H175872   2.222   2.630  14.571  1.5258  0.1503  1.7175
18127TIP3    H275873   2.149   2.520  14.646  1.2638 -0.1539  1.0239
18128TIP3   OH275874   2.642   4.927  17.059 -0.3137 -0.2767  0.2910
18128TIP3    H175875   2.696   4.900  16.985 -1.0228 -3.0015  0.6634
18128TIP3    H275876   2.682   5.008  17.090  0.8358  0.1751 -2.1676
18129TIP3   OH275877   2.282   1.519  14.124 -0.6330  0.1145  0.1072
18129TIP3    H175878   2.201   1.570  14.136 -0.4390  0.2374  0.9511
18129TIP3    H275879   2.253   1.429  14.116 -0.7865 -0.0145  1.7816
18130TIP3   OH275880   4.466   1.665   4.906 -0.0939 -0.2131  0.0567
18130TIP3    H175881   4.531   1.733   4.890 -0.2269 -0.3013 -0.9003
18130TIP3    H275882   4.469   1.609   4.828 -0.0106 -1.2922  0.8043
18131TIP3   OH275883   5.422   1.769  13.078  0.2294 -0.4564  0.0737
18131TIP3    H175884   5.507   1.784  13.037 -0.5370  1.0541 -1.0545
18131TIP3    H275885   5.426   1.818  13.160  0.1044  0.5185 -0.4825
18132TIP3   OH275886   3.443   5.438   4.505  0.3400 -0.0101  0.0486
18132TIP3    H175887   3.359   5.395   4.522  0.6914 -0.3372  0.9991
18132TIP3    H275888   3.440   5.519   4.555  0.5859 -0.0085  0.0651
18133TIP3   OH275889   0.101   0.861   3.770  0.1036  0.0344 -0.1633
18133TIP3    H175890   0.052   0.812   3.704  1.9679  0.0124 -1.6087
18133TIP3    H275891   0.122   0.797   3.837  0.9102 -0.7599 -1.1349
18134TIP3   OH275892   1.764   5.196   4.771 -0.5245  0.5597  0.5613
18134TIP3    H175893   1.838   5.206   4.831 -0.7858  1.2412  0.7776
18134TIP3    H275894   1.765   5.276   4.719 -0.5429  0.1465 -0.0760
18135TIP3   OH275895   0.728   4.587   2.092  0.2464  0.4307 -0.0372
18135TIP3    H175896   0.778   4.662   2.123 -0.0121 -0.1298  1.8926
18135TIP3    H275897   0.669   4.622   2.026  1.9954  1.3980 -1.1638
18136TIP3   OH275898   5.693   0.136   4.953 -0.5860  0.2804  0.7325
18136TIP3    H175899   5.786   0.143   4.972 -0.7872  0.5525  1.6410
18136TIP3    H275900   5.663   0.226   4.943 -1.2374  0.3729  2.9463
18137TIP3   OH275901   0.784   1.402  16.179  0.3696  0.4417 -0.5423
18137TIP3    H175902   0.707   1.428  16.128 -0.5097 -1.2364 -0.1586
18137TIP3    H275903   0.784   1.306  16.174  1.0264  0.2869  1.4909
18138TIP3   OH275904   1.735   5.171  13.947 -0.6609  0.4489  0.4519
18138TIP3    H175905   1.796   5.205  13.882 -1.9570  0.7026 -0.6717
18138TIP3    H275906   1.703   5.250  13.992 -0.1987  0.3165  1.0296
18139TIP3   OH275907   0.401   2.374  14.866 -0.5504  0.2157 -0.0397
18139TIP3    H175908   0.441   2.420  14.793 -0.3914  1.3069  0.7197
18139TIP3    H275909   0.440   2.286  14.864 -0.0969  0.4307 -0.8883
18140TIP3   OH275910   1.101   2.391   2.649  0.0633 -0.0559 -0.3585
18140TIP3    H175911   1.171   2.358   2.706 -0.4406 -0.1154  0.2414
18140TIP3    H275912   1.032   2.324   2.654 -0.0809  0.0541 -0.8548
18141TIP3   OH275913   3.650   1.899   3.123 -0.1879 -0.3187 -0.0938
18141TIP3    H175914   3.645   1.808   3.094 -0.4488 -0.2372 -0.3074
18141TIP3    H275915   3.744   1.918   3.128 -0.0907 -1.0131  1.2442
18142TIP3   OH275916   5.062   0.925   1.242 -0.2264 -0.1437 -0.2955
18142TIP3    H175917   4.995   0.932   1.174 -1.5794  1.4523  1.1137
18142TIP3    H275918   5.017   0.879   1.314  0.0931  1.1538  0.7587
18143TIP3   OH275919   6.549   4.898   6.034 -0.5064  0.1759  0.4611
18143TIP3    H175920   6.535   4.992   6.023  2.3923  0.5755 -0.6728
18143TIP3    H275921   6.634   4.892   6.078 -0.7246 -1.9278  0.6860
18144TIP3   OH275922   5.812   6.411   3.407 -0.0078  0.2015 -0.0023
18144TIP3    H175923   5.816   6.475   3.477  0.6208 -0.0275  0.1800
18144TIP3    H275924   5.899   6.371   3.405 -0.2520 -0.3404 -0.3975
18145TIP3   OH275925   2.819   2.851  17.075  0.3577  0.0749 -0.1658
18145TIP3    H175926   2.842   2.808  16.993  1.5304  1.0691 -0.3874
18145TIP3    H275927   2.746   2.800  17.110  0.5329 -0.9807 -1.3025
18146TIP3   OH275928   5.789   4.705  17.042  1.0413  0.4718 -0.5109
18146TIP3    H175929   5.772   4.724  17.134  1.4112  0.1396 -0.3718
18146TIP3    H275930   5.773   4.611  17.034 -0.4127  0.7363 -1.1152
18147TIP3   OH275931   1.930   5.854   1.167 -0.4244  0.1615 -0.2970
18147TIP3    H175932   1.960   5.807   1.089  0.9507  0.0828  0.2496
18147TIP3    H275933   1.966   5.942   1.157  0.7478 -0.1619  0.7649
18148TIP3   OH275934   1.757   1.424  12.858 -0.3741  0.0111 -0.2642
18148TIP3    H175935   1.746   1.450  12.949 -1.2760 -0.0247 -0.3560
18148TIP3    H275936   1.739   1.330  12.857 -0.6766  0.0717 -0.5293
18149TIP3   OH275937   1.847   0.432   6.142 -0.1881  0.4275 -0.1066
18149TIP3    H175938   1.934   0.417   6.180 -0.7136  1.1520  1.4996
18149TIP3    H275939   1.816   0.345   6.118  2.1185  0.3602 -3.5579
18150TIP3   OH275940   5.424   5.151  12.007 -0.2625 -0.0388 -0.0059
18150TIP3    H175941   5.399   5.139  11.915 -0.4788 -1.0014  0.1735
18150TIP3    H275942   5.425   5.246  12.019 -0.9946  0.0804 -0.7949
18151TIP3   OH275943   6.090   6.088   3.375 -0.2450 -0.5942 -0.0105
18151TIP3    H175944   6.082   6.141   3.455  1.7072  0.5472 -0.5123
18151TIP3    H275945   6.139   6.011   3.402 -0.5631 -0.7487  0.1251
18152TIP3   OH275946   0.317   3.262   4.261 -0.1879 -0.0254 -1.0581
18152TIP3    H175947   0.301   3.273   4.355 -1.0722  3.0333 -1.4568
18152TIP3    H275948   0.259   3.191   4.234  0.4376 -1.2897  0.7390
18153TIP3   OH275949   2.000   5.729   4.857  0.1877  0.0720  0.0340
18153TIP3    H175950   1.972   5.686   4.938 -0.9113  0.9031  0.0973
18153TIP3    H275951   2.035   5.813   4.885  1.1267 -0.2143 -0.2296
18154TIP3   OH275952   1.629   1.102  16.926 -0.1952 -0.4155 -0.5036
18154TIP3    H175953   1.607   1.180  16.875 -0.7735 -0.7516 -0.7794
18154TIP3    H275954   1.693   1.133  16.990 -0.3988  0.2830 -0.6218
18155TIP3   OH275955   3.937   3.787  14.727  0.0182  0.6227 -0.1768
18155TIP3    H175956   4.006   3.758  14.667 -0.5468  1.6038 -1.3414
18155TIP3    H275957   3.856   3.761  14.684 -0.4140  1.7508 -0.0601
18156TIP3   OH275958   1.290   5.076  11.596 -0.3644  0.0674  0.5149
18156TIP3    H175959   1.321   4.991  11.565 -0.9556 -0.1548  0.5321
18156TIP3    H275960   1.207   5.090  11.550 -0.8497  0.0995  1.3864
18157TIP3   OH275961   2.946   3.889   1.123  0.4598 -0.1750 -0.0607
18157TIP3    H175962   2.911   3.975   1.149  1.1692 -0.3534  1.6249
18157TIP3    H275963   3.041   3.898   1.135  0.6585 -0.8294 -1.0569
18158TIP3   OH275964   0.583   2.270   5.966  0.0232  0.1171  0.0912
18158TIP3    H175965   0.632   2.188   5.967 -0.9672 -0.4995  1.2943
18158TIP3    H275966   0.494   2.245   5.943  0.1924  1.2172 -2.0095
18159TIP3   OH275967   0.854   6.156  12.986 -0.2177 -0.1821 -0.2362
18159TIP3    H175968   0.803   6.079  12.961 -0.7387  0.5589 -1.5792
18159TIP3    H275969   0.809   6.229  12.943  0.8981  0.7237  0.0971
18160TIP3   OH275970   5.863   6.788   1.730 -0.1688  0.8697 -0.0401
18160TIP3    H175971   5.942   6.782   1.783 -0.0648  0.7900 -0.2039
18160TIP3    H275972   5.815   6.862   1.767 -0.2234  0.6468  0.3338
18161TIP3   OH275973   2.268   2.721  13.624 -0.5169  0.2319 -0.0803
18161TIP3    H175974   2.280   2.799  13.679  0.5002  0.4628 -0.6080
18161TIP3    H275975   2.343   2.722  13.564  0.0501 -1.6720  0.5294
18162TIP3   OH275976   5.830   0.748   0.061 -0.5898 -0.3706 -0.1290
18162TIP3    H175977   5.798   0.809  -0.005 -0.3929 -0.2990 -0.1581
18162TIP3    H275978   5.793   0.663   0.036 -1.2453 -0.1790  0.1780
18163TIP3   OH275979   0.248   3.701  12.708 -0.3866  0.0679  0.4605
18163TIP3    H175980   0.211   3.678  12.793 -1.1923  0.1672  0.1465
18163TIP3    H275981   0.300   3.625  12.683 -0.5298 -0.1534  0.8280
18164TIP3   OH275982   6.515   3.424   1.911  0.3735 -0.3402  0.1896
18164TIP3    H175983   6.503   3.517   1.932  3.3497  0.4247 -0.9590
18164TIP3    H275984   6.494   3.378   1.992  0.8646  1.5301  1.4448
18165TIP3   OH275985   6.207   4.056   0.336  0.0964 -0.1239 -0.2861
18165TIP3    H175986   6.136   4.042   0.398  0.2188  0.6383  0.0384
18165TIP3    H275987   6.237   3.968   0.314 -1.8312 -0.5242 -1.4866
18166TIP3   OH275988   4.790   1.066   2.469 -0.4134 -0.1620 -0.0120
18166TIP3    H175989   4.757   0.980   2.492  1.3865 -1.6985 -2.6109
18166TIP3    H275990   4.718   1.109   2.422 -0.4584 -1.4251 -1.1601
18167TIP3   OH275991   3.517   5.457  13.309  0.2393  0.0990 -0.1132
18167TIP3    H175992   3.436   5.440  13.358  0.1124 -0.2780 -0.4538
18167TIP3    H275993   3.517   5.552  13.297 -1.1368 -0.0641 -1.7755
18168TIP3   OH275994   0.518   1.227   0.163  0.0615  0.6357 -0.0577
18168TIP3    H175995   0.613   1.224   0.152 -0.0335 -0.2579 -0.7173
18168TIP3    H275996   0.483   1.177   0.089 -0.8554 -0.5029  1.0809
18169TIP3   OH275997   1.853   3.919   0.699 -0.2142 -0.4332  0.6396
18169TIP3    H175998   1.796   3.858   0.747 -1.1049 -1.1335 -1.2176
18169TIP3    H275999   1.852   3.887   0.609  2.2250  0.2442  0.3048
18170TIP3   OH276000   6.138   0.700   2.568 -0.2506  0.1809 -0.2324
18170TIP3    H176001   6.213   0.741   2.525 -0.1250  1.6366  1.2960
18170TIP3    H276002   6.172   0.617   2.601  0.6793  0.7831  0.3558
18171TIP3   OH276003   2.528   2.651  14.148 -0.3973  0.5069 -0.4601
18171TIP3    H176004   2.441   2.624  14.176 -0.6380  0.0219 -1.6077
18171TIP3    H276005   2.588   2.607  14.209 -0.9082 -0.3796 -0.5788
18172TIP3   OH276006   1.388   1.142   2.302 -0.1036 -0.1318  0.4662
18172TIP3    H176007   1.334   1.130   2.380  0.9671 -1.3811  1.0495
18172TIP3    H276008   1.443   1.217   2.321  1.4690 -1.5304  1.7456
18173TIP3   OH276009   0.286   3.292   2.596 -0.1248 -0.1718  0.1822
18173TIP3    H176010   0.257   3.350   2.667 -1.3228 -0.1967 -0.2683
18173TIP3    H276011   0.330   3.220   2.641  0.8022  0.7477  0.7838
18174TIP3   OH276012   4.979   6.645  16.417 -0.4485  0.1050 -0.0547
18174TIP3    H176013   4.972   6.716  16.353  0.1652  0.4458  0.2491
18174TIP3    H276014   5.006   6.569  16.365 -0.6484  0.2111 -0.3112
18175TIP3   OH276015   4.688   6.668   6.507  0.0509  0.4488 -0.1003
18175TIP3    H176016   4.770   6.618   6.514  0.7622  1.5726 -0.1402
18175TIP3    H276017   4.671   6.698   6.596 -0.3897  0.1191 -0.0721
18176TIP3   OH276018   6.116   1.837  13.469 -0.1588 -0.1859 -0.0945
18176TIP3    H176019   6.054   1.823  13.398 -0.6416  0.1905  0.2474
18176TIP3    H276020   6.192   1.878  13.426 -0.3318 -0.2194 -0.4396
18177TIP3   OH276021   1.269   6.793   3.805 -0.3707  0.4131 -0.3562
18177TIP3    H176022   1.341   6.730   3.814  0.6929  1.4845 -1.0495
18177TIP3    H276023   1.196   6.741   3.769 -0.5287 -1.0556  1.9069
18178TIP3   OH276024   6.257   0.701   0.335  0.0851 -0.4141 -0.4514
18178TIP3    H176025   6.227   0.662   0.253 -1.2092 -0.1687 -0.1197
18178TIP3    H276026   6.331   0.646   0.362  1.4995  0.3615 -2.4981
18179TIP3   OH276027   3.534   0.519  16.520  0.2140 -0.1127  0.3794
18179TIP3    H176028   3.515   0.444  16.577  0.0497 -0.3574  0.0094
18179TIP3    H276029   3.623   0.502  16.489  0.7395  0.5861  1.4235
18180TIP3   OH276030   5.110   4.848   4.612 -0.1210  0.0506  0.1776
18180TIP3    H176031   5.024   4.857   4.571  0.2604 -1.8002 -1.1825
18180TIP3    H276032   5.090   4.832   4.704 -1.2919 -0.8282 -0.1980
18181TIP3   OH276033   4.453   5.346   4.259 -0.2923 -0.1682 -0.4701
18181TIP3    H176034   4.365   5.335   4.224 -0.5352 -1.4714  0.4741
18181TIP3    H276035   4.444   5.407   4.332 -0.4569 -0.4581 -0.2460
18182TIP3   OH276036   0.542   3.004   4.834 -0.0743  0.1612  0.1742
18182TIP3    H176037   0.505   2.917   4.849 -0.1747  0.2060  0.1897
18182TIP3    H276038   0.498   3.035   4.755 -0.2418  0.3080  0.3210
18183TIP3   OH276039   1.756   4.081  13.232  0.0449 -0.0001  0.7788
18183TIP3    H176040   1.822   4.054  13.296  0.3548  2.1206  1.4486
18183TIP3    H276041   1.673   4.056  13.273  0.3465 -1.3080  0.6321
18184TIP3   OH276042   5.873   5.723   4.849  0.4188 -0.3576  0.3245
18184TIP3    H176043   5.840   5.653   4.905 -0.6359 -0.2684 -0.1575
18184TIP3    H276044   5.798   5.747   4.794  0.7256  1.2256  0.5523
18185TIP3   OH276045   5.425   2.052  13.709  0.1315  0.0376 -0.0925
18185TIP3    H176046   5.361   1.992  13.747 -1.7143  1.5719 -0.5915
18185TIP3    H276047   5.380   2.137  13.708  1.8655  1.0082 -1.3017
18186TIP3   OH276048   1.767   6.079   0.994 -0.1227  0.1788 -0.3980
18186TIP3    H176049   1.764   6.149   1.059  0.3565 -0.8245  0.7479
18186TIP3    H276050   1.688   6.028   1.010  1.6484 -2.1543  1.9110
18187TIP3   OH276051   6.260   4.779   1.383 -0.3836  0.3944 -0.6193
18187TIP3    H176052   6.310   4.858   1.406  1.0535 -0.7888  0.5179
18187TIP3    H276053   6.276   4.766   1.290  2.4852 -0.5731 -0.0970
18188TIP3   OH276054   5.178   3.059  11.325 -0.4714 -0.1925 -0.2586
18188TIP3    H176055   5.138   3.130  11.275 -2.3592 -1.6807 -1.0095
18188TIP3    H276056   5.126   2.981  11.302  0.5333 -1.5343  1.6785
18189TIP3   OH276057   3.528   6.800  12.721  0.2962  0.5758  0.0369
18189TIP3    H176058   3.495   6.713  12.698  1.0685  0.7006 -1.7154
18189TIP3    H276059   3.451   6.857  12.717 -0.0376  0.1475  0.2401
18190TIP3   OH276060   2.478   6.527  14.650 -0.8599 -0.3656  0.2455
18190TIP3    H176061   2.444   6.613  14.626 -1.0869 -0.3497  0.6097
18190TIP3    H276062   2.514   6.539  14.738 -0.4891 -0.5385  0.1189
18191TIP3   OH276063   4.038   3.963   3.018 -0.4808 -0.2242 -0.7610
18191TIP3    H176064   4.116   4.017   3.006 -1.6550  0.9410 -5.0014
18191TIP3    H276065   3.982   4.014   3.077  1.4631 -0.6782  1.6243
18192TIP3   OH276066   6.407   2.918   5.099  0.5559  0.0498  0.2834
18192TIP3    H176067   6.441   3.001   5.132  0.7884  0.1016 -0.0816
18192TIP3    H276068   6.482   2.859   5.103  0.5574  0.0299 -0.0566
18193TIP3   OH276069   3.999   2.198   0.627  0.0681  0.9196  0.3600
18193TIP3    H176070   4.020   2.276   0.577 -0.8101  1.2675  0.5045
18193TIP3    H276071   3.903   2.193   0.623  0.0103  0.7226  1.6329
18194TIP3   OH276072   2.441   5.356  11.293 -0.6227  0.3629  0.4967
18194TIP3    H176073   2.508   5.425  11.289 -1.5337  1.5277  2.8901
18194TIP3    H276074   2.480   5.289  11.350 -0.2588 -0.5199 -0.7555
18195TIP3   OH276075   3.670   2.818  15.044  0.3916 -0.0007  0.1708
18195TIP3    H176076   3.730   2.753  15.081 -1.9875 -2.3604  0.1367
18195TIP3    H276077   3.677   2.893  15.103  0.7352 -1.5906  2.2636
18196TIP3   OH276078   1.263   5.536   2.584  0.2158 -0.0121  0.0548
18196TIP3    H176079   1.286   5.627   2.601  0.5227 -0.0819  0.0024
18196TIP3    H276080   1.251   5.531   2.490 -0.7846  0.2043  0.1553
18197TIP3   OH276081   4.422   0.318  16.668  0.8143 -0.0080 -0.3742
18197TIP3    H176082   4.452   0.403  16.636 -1.0237  1.0477  0.5176
18197TIP3    H276083   4.395   0.271  16.590 -0.1105  1.0808 -0.7469
18198TIP3   OH276084   3.217   3.012  15.829  0.1244 -0.2225  0.3796
18198TIP3    H176085   3.208   3.080  15.896 -0.1300 -0.3435  0.4665
18198TIP3    H276086   3.249   2.936  15.877 -1.2559 -0.6974  0.5986
18199TIP3   OH276087   5.958   1.489   6.032 -0.8939  0.3434  0.7079
18199TIP3    H176088   5.986   1.433   6.105 -2.1422 -0.9549  0.2309
18199TIP3    H276089   5.974   1.578   6.063  0.5112 -0.2375  1.7586
18200TIP3   OH276090   3.385   4.793   4.219 -0.4715  0.0959 -0.6488
18200TIP3    H176091   3.361   4.881   4.190 -0.1021  0.2020 -0.6314
18200TIP3    H276092   3.460   4.769   4.165 -0.2443  0.0014 -0.2920
18201TIP3   OH276093   3.973   5.733   1.318 -0.1696  0.7406 -0.0466
18201TIP3    H176094   3.886   5.758   1.347 -1.5989 -1.9370 -1.5898
18201TIP3    H276095   3.979   5.640   1.339  2.0553  0.6965 -0.6227
18202TIP3   OH276096   3.172   2.853  14.569  0.5188  0.0929  0.0277
18202TIP3    H176097   3.233   2.828  14.639  1.3847 -0.8258 -0.9988
18202TIP3    H276098   3.190   2.946  14.553  0.9655  0.0766  0.4098
18203TIP3   OH276099   5.697   4.212   0.162 -0.2234  0.6934  0.0223
18203TIP3    H176100   5.705   4.296   0.117 -0.2727  0.4246 -0.5084
18203TIP3    H276101   5.709   4.147   0.092 -0.6508  0.2637  0.3433
18204TIP3   OH276102   2.300   4.772   4.995  0.2613 -0.5842  0.4809
18204TIP3    H176103   2.326   4.849   5.046  1.4775 -1.1791  0.8034
18204TIP3    H276104   2.383   4.737   4.961 -0.5061 -0.1882 -1.9586
18205TIP3   OH276105   0.462   6.749  15.546 -0.1292  0.7259 -0.0167
18205TIP3    H176106   0.458   6.834  15.503  0.6832 -0.0543 -1.7434
18205TIP3    H276107   0.554   6.722  15.539 -0.4991 -0.5934 -0.1323
18206TIP3   OH276108   2.888   0.523   2.827  0.4717  0.0882 -0.4706
18206TIP3    H176109   2.833   0.445   2.833 -0.8437  0.9848 -0.3365
18206TIP3    H276110   2.908   0.545   2.918 -0.5641  0.8251 -0.3948
18207TIP3   OH276111   6.195   5.955   2.010 -0.0175 -0.1125  0.3307
18207TIP3    H176112   6.109   5.913   2.009  0.4912 -1.2157 -1.6363
18207TIP3    H276113   6.238   5.920   2.089 -0.2737 -1.9555 -0.3010
18208TIP3   OH276114   0.191   3.590   1.562  0.0932  0.2395  0.1958
18208TIP3    H176115   0.162   3.578   1.472 -0.5290 -0.9335  0.5329
18208TIP3    H276116   0.138   3.663   1.595  1.5829  1.8881 -0.8987
18209TIP3   OH276117   5.836   5.180  15.047  0.2486  0.7464  0.5735
18209TIP3    H176118   5.913   5.215  15.002  0.4120  2.3795  2.0170
18209TIP3    H276119   5.762   5.222  15.004  0.3048  0.9099  0.6341
18210TIP3   OH276120   5.172   3.288   4.537 -0.6183 -0.7173 -0.3502
18210TIP3    H176121   5.128   3.303   4.453  0.4755  1.3560 -0.6068
18210TIP3    H276122   5.222   3.207   4.524 -1.5647 -1.1815 -1.2082
18211TIP3   OH276123   0.499   4.976   1.289 -0.3179  0.0182 -0.4112
18211TIP3    H176124   0.491   4.955   1.196 -3.5672  1.4813 -0.5957
18211TIP3    H276125   0.508   5.071   1.292 -0.3477  0.0071  0.7755
18212TIP3   OH276126   4.831   3.105  11.225 -0.6782 -0.5891 -0.6545
18212TIP3    H176127   4.920   3.135  11.207 -0.1663 -0.8280  1.2236
18212TIP3    H276128   4.840   3.009  11.232 -1.1380 -0.6388 -0.7396
18213TIP3   OH276129   2.357   5.620  12.699  0.3941  0.8140 -0.1363
18213TIP3    H176130   2.313   5.610  12.614  0.0572 -0.2097  0.1450
18213TIP3    H276131   2.405   5.702  12.691 -0.3206  1.1705 -1.0119
18214TIP3   OH276132   6.497   6.610  13.329  0.4801 -0.4716 -0.8509
18214TIP3    H176133   6.531   6.651  13.249  0.6979 -1.9824 -1.5863
18214TIP3    H276134   6.570   6.557  13.361  1.2441  1.9570  1.7849
18215TIP3   OH276135   1.307   0.561  16.013 -0.1191 -0.2209  0.5662
18215TIP3    H176136   1.309   0.650  16.048  0.4202  0.4108 -1.0199
18215TIP3    H276137   1.348   0.508  16.082 -0.1584  0.7932  1.3955
18216TIP3   OH276138   1.279   0.623   0.895  0.1856  0.5629  0.0867
18216TIP3    H176139   1.220   0.624   0.820  0.8379  0.9182 -0.4310
18216TIP3    H276140   1.251   0.547   0.946  0.6078 -0.5042 -1.2141
18217TIP3   OH276141   6.580   0.733  16.442  0.1203  0.3440 -0.1281
18217TIP3    H176142   6.618   0.812  16.402 -0.2987  0.3134 -0.5897
18217TIP3    H276143   6.533   0.690  16.371  2.2336 -1.5609 -0.4689
18218TIP3   OH276144   5.980   0.128  10.694  0.0278 -0.1988  0.1378
18218TIP3    H176145   5.975   0.140  10.599  0.2304 -0.7934  0.0495
18218TIP3    H276146   6.074   0.131  10.714  0.2627 -2.9743 -0.0932
18219TIP3   OH276147   4.228   2.868  11.095 -1.0823  0.1714  0.1111
18219TIP3    H176148   4.235   2.923  11.017  1.4597 -0.1433  0.0261
18219TIP3    H276149   4.188   2.925  11.161 -2.0816  0.8421 -1.0361
18220TIP3   OH276150   4.992   1.293   1.136 -0.0240  0.4977 -0.2758
18220TIP3    H176151   5.040   1.353   1.193 -0.6548  0.9421 -0.2089
18220TIP3    H276152   5.051   1.278   1.062  0.1359  1.1993 -0.2933
18221TIP3   OH276153   2.450   2.780   2.461  0.1317 -0.3506  0.3543
18221TIP3    H176154   2.433   2.790   2.555  3.0648 -2.6220  1.3015
18221TIP3    H276155   2.477   2.866   2.432  1.4470 -0.0841  2.2053
18222TIP3   OH276156   1.950   6.150   5.533 -0.1383 -0.0179  0.3297
18222TIP3    H176157   2.020   6.085   5.545  0.2552  0.6745  2.0960
18222TIP3    H276158   1.895   6.140   5.611 -0.0844  1.7452  0.6202
18223TIP3   OH276159   1.954   0.659   3.302  0.6907 -0.2684  0.1706
18223TIP3    H176160   1.984   0.649   3.212  0.3282 -0.7415  0.0971
18223TIP3    H276161   1.884   0.724   3.296 -1.7020 -2.7244 -0.4624
18224TIP3   OH276162   1.225   4.067   4.135  0.8628 -0.2252 -0.0689
18224TIP3    H176163   1.134   4.046   4.114  0.3647  1.1754  0.6160
18224TIP3    H276164   1.272   3.984   4.121 -0.4885 -0.9459 -0.5134
18225TIP3   OH276165   2.008   6.777   4.111 -0.4948 -0.4308 -0.5637
18225TIP3    H176166   1.931   6.721   4.122 -0.1308 -0.6867  0.8954
18225TIP3    H276167   2.081   6.716   4.103 -0.3584 -0.1831 -1.1870
18226TIP3   OH276168   0.883   5.388  12.560 -0.3208 -0.0227 -0.0317
18226TIP3    H176169   0.924   5.319  12.612  0.1790 -1.2851 -1.9955
18226TIP3    H276170   0.799   5.403  12.603 -1.2968 -3.2234 -0.5269
18227TIP3   OH276171   4.200   3.007  12.452 -0.6956 -0.1617 -0.3045
18227TIP3    H176172   4.161   3.029  12.536 -1.0075 -0.0018 -0.4890
18227TIP3    H276173   4.177   3.080  12.395  0.3848  0.2367 -0.2598
18228TIP3   OH276174   0.516   6.396  14.228 -0.3259 -0.6815  0.2555
18228TIP3    H176175   0.437   6.344  14.246  0.3047 -1.9329 -0.4294
18228TIP3    H276176   0.576   6.334  14.187  0.5098  0.5867 -0.5036
18229TIP3   OH276177   0.874   1.964  10.680 -0.3722  0.1976  0.4806
18229TIP3    H176178   0.885   1.905  10.606  0.6738  0.5803  0.3215
18229TIP3    H276179   0.963   1.986  10.708 -0.7163  1.7591  0.4662
18230TIP3   OH276180   5.176   2.367  12.660  0.3035  0.7363  0.3105
18230TIP3    H176181   5.209   2.443  12.612 -0.0720 -0.0549 -1.2430
18230TIP3    H276182   5.110   2.402  12.719  0.1902  1.6203 -0.3340
18231TIP3   OH276183   5.036   1.320   3.430  0.1691  0.6952  0.5828
18231TIP3    H176184   5.090   1.377   3.485  0.7207  0.0577  0.7095
18231TIP3    H276185   4.982   1.380   3.378 -1.5118  1.3286  2.9032
18232TIP3   OH276186   6.455   6.370   0.717  0.7511  0.2247 -0.1591
18232TIP3    H176187   6.377   6.334   0.674 -0.1425  0.2532  1.3875
18232TIP3    H276188   6.525   6.308   0.694  0.5858  0.7856 -2.4950
18233TIP3   OH276189   6.776   4.657  10.581 -0.1442 -0.5099 -0.1674
18233TIP3    H176190   6.737   4.579  10.541  1.2718  0.0367 -2.8704
18233TIP3    H276191   6.865   4.660  10.545  0.1172  1.8946  0.5031
18234TIP3   OH276192   1.480   5.457  10.371 -0.0773 -0.0815 -0.1242
18234TIP3    H176193   1.479   5.490  10.281 -0.0321 -0.2500 -0.1870
18234TIP3    H276194   1.523   5.526  10.421  0.4875 -0.2713 -0.3404
18235TIP3   OH276195   5.744   4.936   0.315 -0.2809 -0.7910  0.5743
18235TIP3    H176196   5.836   4.952   0.291 -0.5330  1.1244  0.8023
18235TIP3    H276197   5.709   5.022   0.336 -2.2600 -1.4482  0.1225
18236TIP3   OH276198   3.948   4.034  17.086  0.1335 -0.5518  0.2182
18236TIP3    H176199   3.873   4.052  17.030 -0.2735  1.4193  1.2952
18236TIP3    H276200   4.016   4.095  17.057 -0.0265  0.3847  1.6972
18237TIP3   OH276201   2.329   4.439   5.995 -0.3019  0.0608 -0.2205
18237TIP3    H176202   2.305   4.413   6.084  0.2125 -0.3695 -0.2004
18237TIP3    H276203   2.359   4.529   6.004 -0.7620  0.2009 -0.0520
18238TIP3   OH276204   3.875   3.557   4.368  0.4621  0.2615 -0.2132
18238TIP3    H176205   3.869   3.556   4.273 -0.0407  2.2489 -0.2453
18238TIP3    H276206   3.931   3.632   4.388  1.0842 -0.4977  1.0633
18239TIP3   OH276207   1.818   5.889   0.794  0.0104 -0.0529 -0.2417
18239TIP3    H176208   1.724   5.875   0.792  0.0777 -0.4521 -1.1189
18239TIP3    H276209   1.829   5.974   0.837 -0.8171  0.4807 -1.0432
18240TIP3   OH276210   6.199   0.148  16.898  0.1024  0.6086 -0.4040
18240TIP3    H176211   6.182   0.175  16.808 -0.1971  1.2859 -0.1470
18240TIP3    H276212   6.139   0.200  16.951  0.1643  0.1004  0.1805
18241TIP3   OH276213   4.291   2.565  13.908 -0.5308  0.3028 -0.0195
18241TIP3    H176214   4.264   2.489  13.959 -0.2965 -0.3181 -0.8006
18241TIP3    H276215   4.353   2.530  13.843 -0.7144  1.0876 -0.6418
18242TIP3   OH276216   5.644   6.527   5.150  0.4440  0.4542 -0.1409
18242TIP3    H176217   5.694   6.484   5.080  1.0985 -0.8846  1.0809
18242TIP3    H276218   5.629   6.616   5.118  1.3692  0.1041 -1.6592
18243TIP3   OH276219   1.294   6.580  16.073 -0.0420  0.4910  0.0028
18243TIP3    H176220   1.272   6.621  15.990  0.4872  0.8938  0.0558
18243TIP3    H276221   1.386   6.602  16.087  0.0204 -0.0137  0.4414
18244TIP3   OH276222   0.244   3.956  13.284 -0.1104 -0.5768  0.3887
18244TIP3    H176223   0.262   3.908  13.365  0.7722 -0.4426  0.2846
18244TIP3    H276224   0.282   3.902  13.215 -0.5282 -0.5064  0.1001
18245TIP3   OH276225   2.674   3.518   2.687  0.0328  0.1999  0.1568
18245TIP3    H176226   2.768   3.511   2.701 -0.2253  0.2132  2.2263
18245TIP3    H276227   2.655   3.455   2.618  1.4164 -0.5759  0.4479
18246TIP3   OH276228   1.621   2.606  11.748  0.0773  0.0636 -0.0345
18246TIP3    H176229   1.529   2.626  11.729  0.1031 -0.3701 -0.6413
18246TIP3    H276230   1.651   2.558  11.671  0.6323 -0.3665  0.4461
18247TIP3   OH276231   2.657   1.726   1.186  0.4353  0.6359  0.0554
18247TIP3    H176232   2.693   1.814   1.176 -0.8547  1.1875  0.0429
18247TIP3    H276233   2.700   1.691   1.265  2.9500  0.2044 -1.3838
18248TIP3   OH276234   3.982   2.212  16.447  0.1437 -0.6693 -0.2023
18248TIP3    H176235   3.947   2.132  16.487 -0.6300 -0.5979 -0.7182
18248TIP3    H276236   3.920   2.233  16.376  0.6160  0.1000 -0.4012
18249TIP3   OH276237   5.588   1.339  14.479 -0.0963  0.0872  0.3315
18249TIP3    H176238   5.561   1.261  14.527  0.4019 -0.4254 -0.2030
18249TIP3    H276239   5.514   1.399  14.487 -0.3952 -0.3513  0.9347
18250TIP3   OH276240   3.353   0.318   2.443  0.0983 -0.0226 -0.0774
18250TIP3    H176241   3.356   0.254   2.514 -0.9944  1.6475  1.5981
18250TIP3    H276242   3.264   0.354   2.447  0.4975  1.2057 -1.2865
18251TIP3   OH276243   1.091   0.030   2.732  0.0478  0.3851  0.4449
18251TIP3    H176244   1.153  -0.033   2.695 -0.4359  0.6119 -0.7973
18251TIP3    H276245   1.031  -0.024   2.784 -1.5527 -0.5464 -2.1594
18252TIP3   OH276246   0.111   5.149  15.259 -0.2466 -0.2781 -0.4771
18252TIP3    H176247   0.038   5.114  15.208  0.6526  0.1731 -2.1511
18252TIP3    H276248   0.070   5.187  15.336 -1.8370  0.3526 -1.5831
18253TIP3   OH276249   4.313   1.902  15.801 -0.5509  0.1526  0.3028
18253TIP3    H176250   4.264   1.985  15.808 -0.4116  0.5439 -2.3201
18253TIP3    H276251   4.254   1.844  15.753  0.0157 -0.7225  0.6507
18254TIP3   OH276252   5.661   0.387   4.076  0.0461  0.8355  0.3131
18254TIP3    H176253   5.615   0.354   4.153  0.3447 -0.2170  0.0511
18254TIP3    H276254   5.739   0.332   4.069  0.0020  0.8906 -0.7700
18255TIP3   OH276255   4.030   0.028  16.520  0.2689 -0.3165 -0.1795
18255TIP3    H176256   4.059  -0.004  16.434  0.9876  0.5097 -0.2708
18255TIP3    H276257   3.936   0.040  16.511  0.4005  0.2115 -1.0264
18256TIP3   OH276258   3.602   2.871   0.531  0.2239  0.1189  0.8453
18256TIP3    H176259   3.623   2.870   0.624  0.6303  1.8680  0.8009
18256TIP3    H276260   3.531   2.934   0.522 -0.0116 -0.2432  0.0039
18257TIP3   OH276261   3.963   6.226   1.627 -0.5270 -0.5519  0.9518
18257TIP3    H176262   3.908   6.255   1.699 -1.2435 -0.6165  0.4367
18257TIP3    H276263   4.002   6.306   1.593 -1.1574 -0.3767  0.6277
18258TIP3   OH276264   4.813   2.350  16.788 -0.1955  0.1944 -0.2773
18258TIP3    H176265   4.855   2.404  16.721 -0.3733 -0.3877 -0.8759
18258TIP3    H276266   4.858   2.266  16.784 -0.4688  0.0259  0.0583
18259TIP3   OH276267   2.860   1.402  14.075 -0.0817 -0.3392  0.1844
18259TIP3    H176268   2.917   1.473  14.048  0.7351 -1.7205 -2.0351
18259TIP3    H276269   2.778   1.417  14.027 -0.3919 -0.1991  0.7432
18260TIP3   OH276270   4.850   3.490   3.499  0.3584  0.7035 -0.0800
18260TIP3    H176271   4.804   3.499   3.416  1.1250 -0.6913 -0.6914
18260TIP3    H276272   4.816   3.408   3.536  0.6693  0.8546  0.5548
18261TIP3   OH276273   2.620   0.268   4.529 -0.3136 -0.1550 -0.0306
18261TIP3    H176274   2.574   0.183   4.533 -0.3529 -0.0988  0.8731
18261TIP3    H276275   2.653   0.273   4.439 -2.3741 -0.0509 -0.8433
18262TIP3   OH276276   3.655   3.191  14.458  0.4232 -0.3189  0.7713
18262TIP3    H176277   3.620   3.106  14.484  0.4585 -0.4133  0.5073
18262TIP3    H276278   3.679   3.181  14.366 -2.7771  0.9673 -0.3359
18263TIP3   OH276279   0.908   2.540   3.472  0.2250  0.4649 -0.6736
18263TIP3    H176280   0.828   2.583   3.443 -0.7708  0.7944  2.2657
18263TIP3    H276281   0.878   2.463   3.521  1.7143  0.4064  0.2056
18264TIP3   OH276282   2.391   3.620  11.298  0.3677  0.5802  0.7002
18264TIP3    H176283   2.297   3.638  11.299  0.4597  1.2405 -0.3915
18264TIP3    H276284   2.400   3.544  11.240  0.4303 -0.1048  1.5846
18265TIP3   OH276285   5.089   0.553   4.934  0.3637 -0.1364 -0.2849
18265TIP3    H176286   5.139   0.593   5.005 -1.1808  1.4391 -0.0155
18265TIP3    H276287   5.113   0.603   4.856 -0.3101  0.2233 -0.2678
18266TIP3   OH276288   4.284   2.282  14.977 -0.3693 -0.2452  0.4790
18266TIP3    H176289   4.241   2.239  14.903  0.3946  0.8713 -0.6422
18266TIP3    H276290   4.212   2.326  15.024 -1.0293 -1.9253  1.1389
18267TIP3   OH276291   4.107   0.460  15.042 -0.1724  0.4091  0.0457
18267TIP3    H176292   4.031   0.457  14.983  0.7793 -1.7119 -1.2154
18267TIP3    H276293   4.143   0.371  15.039  2.2077  1.2564  0.8094
18268TIP3   OH276294   6.530   5.149   1.674 -0.2557 -0.4865 -0.7019
18268TIP3    H176295   6.608   5.119   1.721 -0.5412  1.0975  0.8980
18268TIP3    H276296   6.528   5.243   1.689 -3.9942 -0.7216  1.9033
18269TIP3   OH276297   4.494   5.008   3.120 -0.1294  0.1343  0.6029
18269TIP3    H176298   4.490   5.012   3.025  1.0468 -1.8099  0.4199
18269TIP3    H276299   4.404   5.022   3.149 -0.7774 -0.7638 -0.8812
18270TIP3   OH276300   0.604   6.444   0.034  0.1266 -0.4339 -0.4901
18270TIP3    H176301   0.532   6.384   0.014 -0.6974  0.2642  0.3050
18270TIP3    H276302   0.567   6.508   0.095  0.7702  1.3346 -1.8559
18271TIP3   OH276303   3.238   3.238   1.851  0.5543  0.2020  0.4326
18271TIP3    H176304   3.285   3.320   1.866  2.6868 -0.4507 -1.9575
18271TIP3    H276305   3.152   3.265   1.819  1.2922  1.5324 -0.5024
18272TIP3   OH276306   6.405   5.853  16.920 -0.2559  0.2498 -0.4692
18272TIP3    H176307   6.349   5.864  16.997 -0.2290 -0.5782 -0.3284
18272TIP3    H276308   6.442   5.766  16.929 -0.0175  0.2590 -1.2705
18273TIP3   OH276309   0.670   1.093  14.052  0.2785 -0.7331  0.6210
18273TIP3    H176310   0.745   1.035  14.059 -0.4223 -1.8553 -0.7539
18273TIP3    H276311   0.700   1.166  13.998  1.1682  0.2900  2.3766
18274TIP3   OH276312   5.510   1.933   4.687 -0.5582  0.0206 -0.4456
18274TIP3    H176313   5.416   1.912   4.690 -0.5933  0.1080 -0.8364
18274TIP3    H276314   5.553   1.849   4.672 -0.3742 -0.4306  2.1304
18275TIP3   OH276315   0.213   4.820   0.125  0.3353  0.4066  0.2719
18275TIP3    H176316   0.123   4.818   0.093  1.2311 -1.3157 -2.4749
18275TIP3    H276317   0.266   4.840   0.048  2.3097  2.4041  1.9984
18276TIP3   OH276318   5.879   6.052   2.197 -0.0423 -0.1958 -0.4652
18276TIP3    H176319   5.814   6.120   2.181  0.2165 -0.0164 -0.7564
18276TIP3    H276320   5.921   6.077   2.279 -1.2277 -1.0049  0.4224
18277TIP3   OH276321   5.685   1.805   5.888 -0.6182  0.2783 -0.2123
18277TIP3    H176322   5.657   1.715   5.900  0.5291 -0.1010 -0.2725
18277TIP3    H276323   5.633   1.855   5.951 -1.5915 -0.3547 -0.5056
18278TIP3   OH276324   4.969   2.637  15.245 -0.3281 -0.0297  0.0173
18278TIP3    H176325   4.952   2.650  15.338 -3.3567  1.1405 -0.6016
18278TIP3    H276326   4.942   2.547  15.228 -3.1022  0.7496 -0.2583
18279TIP3   OH276327   3.085   2.971  15.208  0.3428 -0.0441  0.2164
18279TIP3    H176328   2.990   2.969  15.221  0.4439  0.0416  1.0847
18279TIP3    H276329   3.110   3.060  15.233  0.3836  0.6777 -2.2238
18280TIP3   OH276330   2.039   3.550   1.977  0.5737 -0.1219  0.0067
18280TIP3    H176331   2.034   3.634   1.931  1.7073  0.6121  1.1413
18280TIP3    H276332   1.981   3.561   2.053  1.5937  0.0810  0.7781
18281TIP3   OH276333   6.016   6.462  11.564 -0.2356 -0.7794 -0.4467
18281TIP3    H176334   5.998   6.544  11.517 -3.0007 -0.3560  1.1775
18281TIP3    H276335   5.946   6.403  11.536 -0.8740 -1.1024  1.7010
18282TIP3   OH276336   3.313   5.596   1.276  0.3306 -0.0633  0.2086
18282TIP3    H176337   3.247   5.594   1.206 -0.1624 -1.8871  0.6665
18282TIP3    H276338   3.381   5.653   1.242 -0.7070  0.5177 -1.0065
18283TIP3   OH276339   5.032   2.350   3.272 -0.1697  0.2073  0.2786
18283TIP3    H176340   4.992   2.281   3.325 -0.0444  0.5491  0.8214
18283TIP3    H276341   5.011   2.431   3.318  2.2761  0.3141  1.3031
18284TIP3   OH276342   1.505   5.133  14.987  0.2116  0.0277  0.3712
18284TIP3    H176343   1.576   5.069  14.992 -0.6076 -0.9566 -0.1030
18284TIP3    H276344   1.509   5.180  15.070  1.7967  0.4339  0.0981
18285TIP3   OH276345   0.496   5.813   2.498  0.0666 -0.2141  0.0523
18285TIP3    H176346   0.486   5.726   2.538  1.9627 -0.3864  0.2347
18285TIP3    H276347   0.477   5.874   2.568  1.3046 -0.5177  0.6848
18286TIP3   OH276348   5.515   0.677  14.127  0.3307 -0.5227 -0.0543
18286TIP3    H176349   5.568   0.687  14.206  0.1151 -0.8328  0.1338
18286TIP3    H276350   5.549   0.743  14.067 -0.7384  1.0440  0.9610
18287TIP3   OH276351   3.507   4.087  11.271  0.1538  0.1322 -0.2223
18287TIP3    H176352   3.564   4.161  11.291  1.7897 -0.1479 -3.2266
18287TIP3    H276353   3.457   4.116  11.194  0.2071 -1.5535 -0.9296
18288TIP3   OH276354   5.438   5.406  11.770  0.4204  0.3850  0.4256
18288TIP3    H176355   5.391   5.323  11.780  0.2925  0.4850  0.6580
18288TIP3    H276356   5.528   5.380  11.749  0.5875  0.1692  1.3564
18289TIP3   OH276357   6.717   1.476  13.943  0.1565 -0.4108 -0.0046
18289TIP3    H176358   6.659   1.471  14.020  1.5422  0.2058  1.1181
18289TIP3    H276359   6.760   1.561  13.952 -0.4395  0.1629 -2.0739
18290TIP3   OH276360   2.165   6.685  14.584 -0.4736  0.0716 -0.1984
18290TIP3    H176361   2.207   6.625  14.522  1.4118 -1.1275  2.0653
18290TIP3    H276362   2.198   6.771  14.560 -0.4052 -0.2500 -1.3226
18291TIP3   OH276363   5.708   0.778  12.844 -0.0276  0.2082  0.2992
18291TIP3    H176364   5.660   0.701  12.873 -1.0529  0.7342  0.0447
18291TIP3    H276365   5.738   0.756  12.756  1.9800 -0.8921  1.1830
18292TIP3   OH276366   4.344   1.797  11.306  0.2331  0.4468  0.1161
18292TIP3    H176367   4.372   1.785  11.396 -1.5081  1.8755  0.8921
18292TIP3    H276368   4.369   1.715  11.262  2.6477  0.4059  1.4359
18293TIP3   OH276369   2.198   0.144  10.876 -0.4084 -0.3502 -0.4478
18293TIP3    H176370   2.165   0.164  10.963  0.1912  1.2222 -0.5393
18293TIP3    H276371   2.260   0.072  10.889  1.9297  1.7688  0.9521
18294TIP3   OH276372   2.669   4.698  12.970  0.2733  0.1426  0.1649
18294TIP3    H176373   2.594   4.698  12.911 -0.7685  1.1493  1.4154
18294TIP3    H276374   2.666   4.613  13.013  0.2549 -0.0849 -0.2885
18295TIP3   OH276375   3.054   4.999   2.658  0.5699 -0.6434 -0.5377
18295TIP3    H176376   3.068   5.093   2.670  0.4958 -0.5103 -1.4813
18295TIP3    H276377   3.122   4.958   2.713 -0.5966 -0.0917  1.4192
18296TIP3   OH276378   0.822   6.817   3.463 -0.1195  0.3872  0.7320
18296TIP3    H176379   0.742   6.765   3.467 -0.0530  0.2499  0.3235
18296TIP3    H276380   0.792   6.905   3.440 -0.0095 -0.1012 -1.6038
18297TIP3   OH276381   1.749   5.597  14.478  0.1574 -0.4242 -0.5303
18297TIP3    H176382   1.790   5.592  14.391 -1.1207 -1.0746 -1.1282
18297TIP3    H276383   1.718   5.687  14.485  2.2795  0.2994  0.2454
18298TIP3   OH276384   0.855   1.412  14.393  0.3402  0.1684 -0.0803
18298TIP3    H176385   0.910   1.489  14.378  1.2285 -0.2622  0.7888
18298TIP3    H276386   0.772   1.433  14.352  0.4807  1.7076  0.3483
18299TIP3   OH276387   0.272   1.026   2.438  0.6021 -0.2799 -0.4634
18299TIP3    H176388   0.334   1.037   2.365 -1.0131 -1.0061 -2.0089
18299TIP3    H276389   0.222   0.948   2.415 -1.3751  0.6790  0.3667
18300TIP3   OH276390   1.195   6.682  12.168  0.0170  0.0970  0.1427
18300TIP3    H176391   1.173   6.590  12.153  1.2062  0.1951 -3.0248
18300TIP3    H276392   1.288   6.689  12.149  0.0462  1.8855  0.6924
18301TIP3   OH276393   4.408   4.891   5.837 -0.1615  0.5073 -0.1154
18301TIP3    H176394   4.475   4.930   5.781  2.4436 -0.7456  1.8761
18301TIP3    H276395   4.401   4.951   5.911  0.2539 -0.2970  0.6046
18302TIP3   OH276396   0.400   1.555   5.695 -0.1562 -0.1490  0.4248
18302TIP3    H176397   0.486   1.553   5.737  0.2206 -0.3549 -0.3385
18302TIP3    H276398   0.363   1.468   5.711 -0.0553 -0.1942  0.4127
18303TIP3   OH276399   6.320   1.835   1.296 -0.0454  0.1604 -0.1730
18303TIP3    H176400   6.287   1.916   1.333  0.9398  0.5789 -0.1856
18303TIP3    H276401   6.316   1.848   1.201 -1.4141 -0.4440 -0.2232
18304TIP3   OH276402   5.295   0.828  12.205  0.0430 -0.7359 -0.2631
18304TIP3    H176403   5.280   0.733  12.204  0.2641 -0.7699 -0.3603
18304TIP3    H276404   5.241   0.860  12.278 -1.2012 -0.7408 -1.1512
18305TIP3   OH276405   3.302   2.230  16.224 -0.1287 -0.0732 -0.8585
18305TIP3    H176406   3.268   2.153  16.269 -0.0503 -0.9926 -2.2818
18305TIP3    H276407   3.287   2.211  16.131 -1.0244  2.0643 -1.2126
18306TIP3   OH276408   6.458   1.094   4.068 -0.1458 -0.2837 -0.5270
18306TIP3    H176409   6.412   1.111   4.151 -2.6240 -0.9137 -1.6781
18306TIP3    H276410   6.432   1.166   4.011  2.8320  1.0579 -0.4015
18307TIP3   OH276411   3.878   4.446   5.038 -0.2504 -0.2881  0.6829
18307TIP3    H176412   3.963   4.479   5.064 -0.5251  1.2306 -0.2593
18307TIP3    H276413   3.839   4.516   4.987 -0.2795 -2.5575 -2.7441
18308TIP3   OH276414   1.071   3.393  13.630 -0.3424 -0.3244  0.2801
18308TIP3    H176415   1.063   3.319  13.569 -0.7705  0.3294 -0.4729
18308TIP3    H276416   1.155   3.378  13.675 -0.8227 -1.7198  0.7639
18309TIP3   OH276417   4.103   1.648   5.034 -0.2972  0.3224  0.8140
18309TIP3    H176418   4.188   1.620   5.069 -1.3707 -0.3579  3.0536
18309TIP3    H276419   4.078   1.722   5.088 -1.7277 -0.3289  1.0881
18310TIP3   OH276420   2.279   5.848  13.064  0.2277  0.0943  0.1917
18310TIP3    H176421   2.348   5.787  13.090  1.4720  1.0347 -0.7446
18310TIP3    H276422   2.324   5.911  13.007 -1.1002  1.6114  0.7554
18311TIP3   OH276423   3.798   6.462  13.384  0.9994 -0.1281 -0.1545
18311TIP3    H176424   3.798   6.545  13.432  1.8592 -1.7914  2.9979
18311TIP3    H276425   3.883   6.460  13.340  0.4272  1.1785 -1.4196
18312TIP3   OH276426   6.124   5.583   5.567  0.0433 -0.0049 -0.5133
18312TIP3    H176427   6.149   5.662   5.518  1.3171  1.2997  2.0065
18312TIP3    H276428   6.084   5.616   5.647  0.8758 -1.8997  0.7615
18313TIP3   OH276429   5.557   1.840   0.874 -0.3371  0.1896  0.2513
18313TIP3    H176430   5.579   1.830   0.967  0.6763  0.8215  0.1027
18313TIP3    H276431   5.476   1.791   0.863 -0.7962  0.5811  1.6022
18314TIP3   OH276432   1.130   5.839   2.421 -0.5072 -0.7580 -0.8814
18314TIP3    H176433   1.174   5.923   2.405 -2.4055  0.7174  1.0281
18314TIP3    H276434   1.047   5.846   2.372 -1.4947 -0.6894  0.7227
18315TIP3   OH276435   3.663   1.380  12.457  0.1850 -0.4101  0.0608
18315TIP3    H176436   3.752   1.346  12.450 -0.1978 -1.4091  0.0083
18315TIP3    H276437   3.615   1.339  12.386 -0.6984 -1.1120  1.0330
18316TIP3   OH276438   3.757   3.359  14.118  1.0181  0.0982  0.1108
18316TIP3    H176439   3.760   3.426  14.186 -2.4413 -0.1847  0.6995
18316TIP3    H276440   3.772   3.277  14.165  0.3343  0.0583  0.2723
18317TIP3   OH276441   3.417   3.405  12.236 -0.0881  0.1111  0.8187
18317TIP3    H176442   3.426   3.310  12.235  2.5804  0.2263  2.8152
18317TIP3    H276443   3.433   3.431  12.145  0.4037 -1.2797  0.4827
18318TIP3   OH276444   2.047   1.666  14.231 -0.5105 -0.2599  0.8215
18318TIP3    H176445   2.046   1.754  14.193  0.8163 -0.5941 -0.0561
18318TIP3    H276446   2.078   1.679  14.321  2.3095 -0.0542 -0.1020
18319TIP3   OH276447   2.376   6.114   1.645  0.3974 -0.8297  0.2080
18319TIP3    H176448   2.304   6.128   1.583 -0.6057  0.1677  1.5231
18319TIP3    H276449   2.446   6.172   1.614  1.3700 -3.0823 -2.0808
18320TIP3   OH276450   0.767   0.119   0.067 -0.0188  0.0216  0.0534
18320TIP3    H176451   0.720   0.126   0.150 -0.0337  1.1755 -0.0329
18320TIP3    H276452   0.700   0.096   0.003 -0.2941  0.6503  0.1058
18321TIP3   OH276453   0.668   0.081   5.705 -0.1040  0.4086  0.4654
18321TIP3    H176454   0.637   0.048   5.790 -1.4785  2.5898  0.8804
18321TIP3    H276455   0.659   0.176   5.710  0.8196  0.6924 -1.7549
18322TIP3   OH276456   2.849   2.597   4.779 -0.0205 -0.0629  0.4674
18322TIP3    H176457   2.760   2.576   4.752  0.3925 -0.9778 -0.2679
18322TIP3    H276458   2.855   2.565   4.869  0.1329 -1.8361 -0.1316
18323TIP3   OH276459   5.004   3.642  15.356 -0.4255  0.4710 -0.4883
18323TIP3    H176460   5.080   3.661  15.411  1.9569 -1.0875 -2.9979
18323TIP3    H276461   5.011   3.704  15.283  0.7503 -2.0077 -2.6700
18324TIP3   OH276462   2.996   4.249  14.792 -0.4558  0.0220 -0.1817
18324TIP3    H176463   3.082   4.207  14.797 -1.0886 -1.2247  0.6001
18324TIP3    H276464   2.995   4.309  14.867 -0.8794 -1.1849  0.8026
18325TIP3   OH276465   2.513   3.618  14.860  0.7794  0.3741  0.1424
18325TIP3    H176466   2.568   3.557  14.910  0.3178 -0.1670 -0.0001
18325TIP3    H276467   2.485   3.568  14.784 -0.0790  0.5728  0.3221
18326TIP3   OH276468   2.830   3.739   5.489  0.2836  0.1085  0.8663
18326TIP3    H176469   2.901   3.795   5.458  0.5003 -1.0763 -0.9306
18326TIP3    H276470   2.772   3.798   5.538  0.7626  1.7993 -0.5014
18327TIP3   OH276471   0.147   1.082   0.317 -0.3747  0.1221 -0.3960
18327TIP3    H176472   0.165   1.160   0.264  1.4264  0.8188  1.1521
18327TIP3    H276473   0.228   1.066   0.365 -1.4624 -1.3581  1.0468
18328TIP3   OH276474   3.326   1.264   3.347  0.2350  0.0954 -0.2114
18328TIP3    H176475   3.387   1.192   3.359  1.5336  1.0645 -0.7642
18328TIP3    H276476   3.381   1.341   3.335 -1.0965  0.9293 -1.2867
18329TIP3   OH276477   3.166   2.439   3.772  0.0289  0.5809  0.3790
18329TIP3    H176478   3.100   2.496   3.733  1.1010  1.3559 -0.3378
18329TIP3    H276479   3.236   2.497   3.800  1.5796 -0.4187 -1.2331
18330TIP3   OH276480   5.149   3.012  12.095  0.0228 -0.1825 -0.2991
18330TIP3    H176481   5.206   3.054  12.030  0.8601  1.7468  1.5547
18330TIP3    H276482   5.169   3.057  12.177 -1.7844 -1.7638  1.1054
18331TIP3   OH276483   2.104   6.203  15.447 -0.3907  0.4655  0.5422
18331TIP3    H176484   2.145   6.148  15.514  0.1114  1.1397  0.7992
18331TIP3    H276485   2.058   6.271  15.496  1.1171  1.7820  0.2120
18332TIP3   OH276486   0.203   1.602   5.970  0.4476  0.0303  0.4705
18332TIP3    H176487   0.138   1.607   6.040 -1.3166  1.2931 -1.1467
18332TIP3    H276488   0.288   1.609   6.015 -0.6328  2.3527  2.3803
18333TIP3   OH276489   4.421   4.256  15.535 -0.0196 -0.1454  0.1669
18333TIP3    H176490   4.346   4.197  15.526  0.9475 -1.6508  1.3633
18333TIP3    H276491   4.451   4.242  15.625  1.1316  1.1199  0.0031
18334TIP3   OH276492   2.381   5.942   6.850  0.1519 -0.4081 -0.0429
18334TIP3    H176493   2.359   5.910   6.762 -0.6930  0.4767 -0.1757
18334TIP3    H276494   2.417   6.029   6.835 -0.2466 -0.1459  0.4963
18335TIP3   OH276495   1.403   0.629   3.579  0.1461 -0.4181 -0.1838
18335TIP3    H176496   1.411   0.549   3.526 -0.9301 -0.3259 -0.5104
18335TIP3    H276497   1.317   0.621   3.621 -0.1952  0.8107 -0.6195
18336TIP3   OH276498   0.406   1.142   2.649  0.1066  0.6644 -0.5086
18336TIP3    H176499   0.336   1.110   2.591  0.6541 -1.6905  0.0208
18336TIP3    H276500   0.477   1.078   2.638  0.1877  0.0164  2.8223
18337TIP3   OH276501   0.658   5.213  16.665 -0.7554  0.2408  0.0838
18337TIP3    H176502   0.626   5.278  16.727  1.7383  0.8839  0.8233
18337TIP3    H276503   0.615   5.132  16.692 -1.3362  0.9265  1.3384
18338TIP3   OH276504   6.366   4.249  14.759 -0.4378  0.0073 -0.9808
18338TIP3    H176505   6.374   4.228  14.852 -0.0179  0.0722 -0.9975
18338TIP3    H276506   6.291   4.308  14.753  0.8808  1.8614 -0.3587
18339TIP3   OH276507   3.652   1.355  15.532  0.1570  0.2408 -0.2048
18339TIP3    H176508   3.714   1.426  15.546 -0.0814  0.4608 -0.2526
18339TIP3    H276509   3.655   1.303  15.612  1.3178 -0.4660 -0.6813
18340TIP3   OH276510   3.415   2.607   5.123 -0.0272 -0.6284 -0.7016
18340TIP3    H176511   3.379   2.600   5.212  1.3975  0.6468  0.0261
18340TIP3    H276512   3.366   2.678   5.083 -1.2495 -1.7522 -1.2709
18341TIP3   OH276513   6.683   6.126  14.539  0.0822 -0.0050  0.4341
18341TIP3    H176514   6.673   6.193  14.472  2.7599 -0.8645 -0.9850
18341TIP3    H276515   6.597   6.121  14.582 -0.9544  2.4111 -1.1609
18342TIP3   OH276516   4.917   1.156  17.135 -0.2720 -0.0902 -0.1248
18342TIP3    H176517   4.853   1.224  17.154  0.7116  0.6458  0.6173
18342TIP3    H276518   4.864   1.076  17.127 -1.3382  0.5902 -0.0992
18343TIP3   OH276519   5.237   5.808  13.981  0.3550 -0.1465  0.5239
18343TIP3    H176520   5.199   5.877  13.926  1.7173  1.2324  1.2260
18343TIP3    H276521   5.170   5.740  13.984 -0.7386  0.8144 -0.8275
18344TIP3   OH276522   3.903   4.217   3.113  0.1959  0.1406  0.3072
18344TIP3    H176523   3.920   4.230   3.020 -1.0022 -0.6238 -0.0401
18344TIP3    H276524   3.897   4.305   3.149  0.4086  0.4430 -0.3783
18345TIP3   OH276525   3.628   6.608  11.012 -0.1739  0.2944 -0.4624
18345TIP3    H176526   3.666   6.529  10.973  0.6028  0.3994  0.0590
18345TIP3    H276527   3.537   6.607  10.984  0.0513 -0.3067 -1.2140
18346TIP3   OH276528   4.221   3.780   2.320 -0.0215 -0.2146 -0.9678
18346TIP3    H176529   4.139   3.828   2.331  0.7528  0.7347  1.1758
18346TIP3    H276530   4.243   3.749   2.408  2.7501  1.0301 -1.1048
18347TIP3   OH276531   1.348   3.431   5.578 -0.0552  0.7571 -0.0005
18347TIP3    H176532   1.328   3.428   5.672 -2.2640  1.7637 -0.3792
18347TIP3    H276533   1.383   3.520   5.565 -1.2186  1.1807 -0.3523
18348TIP3   OH276534   1.696   0.585   3.106 -0.0104  0.0720 -0.2979
18348TIP3    H176535   1.704   0.535   3.024 -1.0243  0.4445 -0.6399
18348TIP3    H276536   1.602   0.583   3.126  0.1675  0.3687  0.6225
18349TIP3   OH276537   2.548   5.516  12.883  0.2341 -0.5186  0.1936
18349TIP3    H176538   2.498   5.484  12.808  1.7617 -1.5088 -0.4466
18349TIP3    H276539   2.540   5.611  12.878  1.6078 -0.4598 -2.2045
18350TIP3   OH276540   2.380   4.188   3.379 -0.3186  0.4885 -0.1686
18350TIP3    H176541   2.317   4.160   3.312 -0.4176  0.6136 -0.1297
18350TIP3    H276542   2.398   4.108   3.429  1.0831  0.0012 -1.4029
18351TIP3   OH276543   4.593   5.275  11.916 -0.1275 -0.2533 -0.5970
18351TIP3    H176544   4.533   5.240  11.982 -1.3521  1.4790 -0.7424
18351TIP3    H276545   4.669   5.304  11.966 -0.5687  0.0175 -0.0703
18352TIP3   OH276546   1.239   0.660  12.469 -0.4519 -0.4418 -0.1586
18352TIP3    H176547   1.302   0.593  12.446  0.1457 -0.2161  0.7618
18352TIP3    H276548   1.177   0.662  12.395  0.6167 -0.6515 -1.0823
18353TIP3   OH276549   1.574   5.868   5.323 -0.4438 -0.3349  0.7263
18353TIP3    H176550   1.662   5.876   5.358 -0.2767  0.0000  0.2421
18353TIP3    H276551   1.517   5.883   5.399 -0.0889 -0.5983  1.0490
18354TIP3   OH276552   4.833   1.967  13.476  0.1117  0.2659 -0.2738
18354TIP3    H176553   4.800   2.044  13.429 -1.0821  0.1638  0.3568
18354TIP3    H276554   4.903   2.002  13.532 -0.7063  0.9868  0.3317
18355TIP3   OH276555   2.627   4.291   2.889  0.3153  0.1098  0.5383
18355TIP3    H176556   2.613   4.379   2.855  1.2845  0.1355  0.1757
18355TIP3    H276557   2.601   4.296   2.981  1.1866  1.0076  0.7523
18356TIP3   OH276558   1.470   0.796   1.405 -0.1240 -0.3863  0.0601
18356TIP3    H176559   1.560   0.763   1.402 -0.1795 -1.0455  2.9258
18356TIP3    H276560   1.474   0.879   1.357  2.5458  0.6027  1.6983
18357TIP3   OH276561   4.810   2.494   0.156  0.6040  0.2000  0.0764
18357TIP3    H176562   4.876   2.425   0.162  0.9762  0.3581 -1.6714
18357TIP3    H276563   4.728   2.449   0.178  0.9950 -0.5226  0.1021
18358TIP3   OH276564   5.798   2.296  12.766 -1.2788 -0.1176  0.4163
18358TIP3    H176565   5.803   2.334  12.854 -3.0900 -0.4128  0.6881
18358TIP3    H276566   5.880   2.248  12.755 -1.2183 -0.4373  2.1195
18359TIP3   OH276567   0.637   3.829   6.030  0.2230  0.0877 -0.1569
18359TIP3    H176568   0.646   3.865   6.119 -0.9904 -1.1843  0.5048
18359TIP3    H276569   0.727   3.812   6.003  0.5565 -1.0597  1.4994
18360TIP3   OH276570   3.895   5.851  11.215  0.0185  0.5404 -0.2981
18360TIP3    H176571   3.982   5.890  11.223 -0.2924  1.0712  0.7448
18360TIP3    H276572   3.906   5.780  11.151  1.5580 -0.3560  0.8767
18361TIP3   OH276573   2.107   5.330  12.750  0.0750  0.3037 -0.1816
18361TIP3    H176574   2.133   5.288  12.667 -1.0157  1.6692 -1.2619
18361TIP3    H276575   2.127   5.264  12.817  1.6275 -0.5797 -1.4354
18362TIP3   OH276576   3.188   1.929  12.067  0.4906 -0.1638 -0.6215
18362TIP3    H176577   3.246   1.990  12.020  0.5546 -0.6942 -1.2521
18362TIP3    H276578   3.236   1.907  12.146  0.6021  0.3652 -0.5365
18363TIP3   OH276579   0.541   3.344  12.333 -0.1974 -0.5066 -0.6274
18363TIP3    H176580   0.633   3.354  12.308 -0.2880  1.1928 -0.3805
18363TIP3    H276581   0.541   3.274  12.397  0.6119 -2.0449 -2.2189
18364TIP3   OH276582   2.711   3.475  14.684  0.2235  0.0108  0.1705
18364TIP3    H176583   2.621   3.452  14.661  0.2770 -0.5682  0.5386
18364TIP3    H276584   2.763   3.399  14.658  0.6974  0.5833 -0.6165
18365TIP3   OH276585   3.327   0.151   4.664 -0.1503  0.3946 -0.1574
18365TIP3    H176586   3.385   0.075   4.661 -0.0054  0.5347 -1.0361
18365TIP3    H276587   3.299   0.164   4.574 -1.6818  0.2413  0.2602
18366TIP3   OH276588   3.309   2.242   1.806 -0.5741  0.2034 -0.3993
18366TIP3    H176589   3.353   2.182   1.746 -1.3900 -0.2940 -0.5153
18366TIP3    H276590   3.381   2.291   1.848  0.0964 -0.7297 -0.4242
18367TIP3   OH276591   3.097   5.845  11.206  0.1675  0.6839  0.1687
18367TIP3    H176592   3.051   5.767  11.177  2.3858 -1.0936  1.1107
18367TIP3    H276593   3.169   5.855  11.143  1.9404 -0.1626  1.9318
18368TIP3   OH276594   5.247   4.570  12.380 -0.0226 -0.4390 -0.3178
18368TIP3    H176595   5.247   4.641  12.444 -0.4636 -1.3513  0.7262
18368TIP3    H276596   5.318   4.592  12.320 -1.2560  1.8093 -1.1076
18369TIP3   OH276597   2.386   4.583   6.316  0.0741  0.4583 -0.7276
18369TIP3    H176598   2.332   4.623   6.384  0.1286  2.4502 -1.7832
18369TIP3    H276599   2.350   4.495   6.305  0.8730 -0.4782  2.7344
18370TIP3   OH276600   5.403   2.837  16.230 -0.5719 -0.2244 -0.2496
18370TIP3    H176601   5.379   2.877  16.314 -1.3587 -0.2761 -0.4502
18370TIP3    H276602   5.465   2.767  16.254 -0.3686  0.1177  0.2347
18371TIP3   OH276603   2.632   4.976  16.315 -0.2825 -0.3291  0.3201
18371TIP3    H176604   2.536   4.983  16.319 -0.2439  0.4349  0.0801
18371TIP3    H276605   2.652   4.899  16.367 -1.0681 -0.7945 -0.0404
18372TIP3   OH276606   6.305   5.855  16.638  0.1005  0.4104  0.2497
18372TIP3    H176607   6.355   5.908  16.575 -1.1698 -0.2551 -1.3833
18372TIP3    H276608   6.334   5.887  16.724  2.2012  1.0631 -0.6334
18373TIP3   OH276609   3.796   1.682   5.662  0.6812 -0.0437 -0.2222
18373TIP3    H176610   3.802   1.753   5.597  0.2731  0.3452  0.1579
18373TIP3    H276611   3.722   1.629   5.632  1.3035 -0.6077 -0.7893
18374TIP3   OH276612   3.393   0.343   5.886  0.0346 -0.4641 -0.2475
18374TIP3    H176613   3.385   0.410   5.954  1.4257 -0.6292  0.0964
18374TIP3    H276614   3.346   0.379   5.811  0.6829  0.8636 -0.0461
18375TIP3   OH276615   2.634   1.118  11.154 -0.1446  0.0479 -0.0358
18375TIP3    H176616   2.589   1.082  11.077  1.2929  0.0886 -0.9302
18375TIP3    H276617   2.682   1.194  11.121  0.2775  0.2334  0.9660
18376TIP3   OH276618   5.492   3.032  15.867 -0.9298  0.2638  0.0644
18376TIP3    H176619   5.554   3.003  15.800 -0.7238 -1.6987  1.0285
18376TIP3    H276620   5.408   3.040  15.821 -0.0341  3.2718 -1.3393
18377TIP3   OH276621   1.585   5.792  14.620 -0.1280 -0.5361 -0.0531
18377TIP3    H176622   1.558   5.739  14.695 -2.9507 -1.3193 -1.5041
18377TIP3    H276623   1.574   5.882  14.649 -0.7620 -0.8195  0.6292
18378TIP3   OH276624   0.705   4.425   2.669  0.3037 -0.8209  0.4808
18378TIP3    H176625   0.758   4.505   2.669 -2.1829  0.9232  1.6388
18378TIP3    H276626   0.648   4.434   2.745 -2.4933 -2.0041 -1.3453
18379TIP3   OH276627   4.126   4.039  10.794  0.0383  0.5021 -0.2864
18379TIP3    H176628   4.201   4.098  10.783  0.8111 -0.7245 -2.1402
18379TIP3    H276629   4.050   4.097  10.794  0.8417  1.6024 -1.0006
18380TIP3   OH276630   0.435   3.490  14.734 -0.0753  0.4303 -0.5799
18380TIP3    H176631   0.510   3.503  14.677 -0.2827  2.2102 -0.5140
18380TIP3    H276632   0.469   3.443  14.810  0.4893 -0.7060 -1.5177
18381TIP3   OH276633   0.697   1.055  15.795  0.4332 -0.0711 -0.0629
18381TIP3    H176634   0.710   1.079  15.703  0.2630  1.6075  0.3074
18381TIP3    H276635   0.781   1.075  15.837  0.5570 -0.9681  0.1268
18382TIP3   OH276636   1.835   4.394  15.486  0.0087 -0.3905  0.4076
18382TIP3    H176637   1.854   4.485  15.461 -0.8175  0.2522  2.0439
18382TIP3    H276638   1.884   4.381  15.567  0.8798 -1.7529 -0.2833
18383TIP3   OH276639   6.098   2.733  14.045  0.3926  0.4228 -0.0753
18383TIP3    H176640   6.140   2.774  13.970 -0.1506 -1.2020 -1.3152
18383TIP3    H276641   6.007   2.723  14.019  0.6586 -2.2926 -0.1920
18384TIP3   OH276642   0.472   3.873   6.355 -0.2864  0.3135  0.2252
18384TIP3    H176643   0.437   3.783   6.353 -0.2426  0.2923 -1.9135
18384TIP3    H276644   0.395   3.929   6.356 -0.5516  0.2472 -3.3714
18385TIP3   OH276645   4.091   1.457  16.846  0.0647 -0.4816  0.0407
18385TIP3    H176646   4.071   1.445  16.753 -2.4770 -0.0771  0.4555
18385TIP3    H276647   4.061   1.546  16.865  0.3067 -0.6592  1.3226
18386TIP3   OH276648   1.403   0.089  13.662 -0.7488  0.0063  0.1074
18386TIP3    H176649   1.480   0.135  13.629 -0.0118 -0.8126  0.6560
18386TIP3    H276650   1.413  -0.001  13.630 -0.6865 -0.4804  1.4562
18387TIP3   OH276651   5.572   5.403  16.135  0.8304  0.3866  0.8000
18387TIP3    H176652   5.533   5.388  16.222 -0.1250 -2.0295  0.0472
18387TIP3    H276653   5.497   5.413  16.077  1.0132 -4.4452 -0.6971
18388TIP3   OH276654   3.135   3.985   3.793  0.4446  0.0242 -0.1704
18388TIP3    H176655   3.075   3.914   3.772  0.1124  0.3515 -0.3569
18388TIP3    H276656   3.097   4.027   3.870  0.1986  0.4919 -0.5377
18389TIP3   OH276657   1.726   5.939   4.721 -0.5981 -0.4028 -0.4820
18389TIP3    H176658   1.784   5.889   4.663  2.2682 -1.3925  2.8714
18389TIP3    H276659   1.737   5.899   4.807 -2.3974  2.6614  1.3844
18390TIP3   OH276660   4.066   3.853   2.638 -0.7134  0.2257  0.4630
18390TIP3    H176661   4.028   3.802   2.567 -1.2553  2.0927 -0.6502
18390TIP3    H276662   3.997   3.912   2.665 -0.4001 -0.2119  2.3602
18391TIP3   OH276663   6.264   2.446   0.612 -0.0035  0.9709 -0.2357
18391TIP3    H176664   6.186   2.393   0.632  0.0715  0.9368 -0.0386
18391TIP3    H276665   6.279   2.498   0.691  0.3901  0.7150 -0.1427
18392TIP3   OH276666   3.872   3.157   3.700  0.2026  0.6474  0.1181
18392TIP3    H176667   3.844   3.091   3.763  0.9099  0.3627  0.1400
18392TIP3    H276668   3.932   3.213   3.749  0.8304  0.3691 -0.3201
18393TIP3   OH276669   6.443   6.327  15.494  0.3457 -0.2738  0.0431
18393TIP3    H176670   6.413   6.281  15.572 -0.0024 -0.2279 -0.0633
18393TIP3    H276671   6.482   6.258  15.440  0.3720 -0.3430  0.1495
18394TIP3   OH276672   2.542   1.564   2.506  0.4172  1.2138 -0.0812
18394TIP3    H176673   2.537   1.476   2.467  0.4995  0.1273  2.2217
18394TIP3    H276674   2.630   1.594   2.486  0.4352  0.7365 -0.7673
18395TIP3   OH276675   2.236   1.363  15.619  0.2513  0.5777 -0.2826
18395TIP3    H176676   2.205   1.442  15.662 -0.1270  1.1762 -1.5995
18395TIP3    H276677   2.198   1.367  15.531  0.9914 -0.5977 -0.6805
18396TIP3   OH276678   1.762   1.812  10.849 -0.4228 -0.1071  0.4058
18396TIP3    H176679   1.790   1.871  10.918 -0.8560  1.1584 -0.4545
18396TIP3    H276680   1.723   1.738  10.894 -0.3541  0.5169  1.5112
18397TIP3   OH276681   5.373   0.177   2.353 -0.3765  0.6154 -0.2346
18397TIP3    H176682   5.336   0.106   2.406  0.9696 -0.6008 -0.8636
18397TIP3    H276683   5.465   0.181   2.380 -0.2153  1.4964 -0.8806
18398TIP3   OH276684   1.377   1.855   6.563  0.9044 -0.0167  0.1289
18398TIP3    H176685   1.455   1.886   6.609  0.9218  1.0625 -0.5997
18398TIP3    H276686   1.303   1.892   6.612  0.9225  1.1133 -0.6641
18399TIP3   OH276687   0.707   0.148  10.959 -0.3264 -1.0276  0.4804
18399TIP3    H176688   0.679   0.065  10.998 -0.1257 -1.2363  0.1966
18399TIP3    H276689   0.782   0.175  11.012 -1.4883 -0.0924  1.6940
18400TIP3   OH276690   5.003   6.150   3.882  0.2620  0.2412 -0.4485
18400TIP3    H176691   5.047   6.200   3.814  1.2084 -0.3484 -0.2788
18400TIP3    H276692   5.038   6.061   3.874  0.6699  0.2434  1.0366
18401TIP3   OH276693   0.347   4.784   1.792  0.2286  0.0956 -0.5540
18401TIP3    H176694   0.307   4.858   1.836  2.1385  1.4429 -0.9490
18401TIP3    H276695   0.273   4.730   1.763 -1.2230  1.8918 -0.3789
18402TIP3   OH276696   2.037   0.187   3.956  0.5373 -0.4141  0.0198
18402TIP3    H176697   2.017   0.111   4.012 -0.8274 -0.0332  0.0800
18402TIP3    H276698   2.054   0.149   3.870 -0.9238 -0.7731 -0.1477
18403TIP3   OH276699   4.332   3.736   5.399 -0.0684  0.5087  0.5675
18403TIP3    H176700   4.384   3.694   5.330 -1.6129  0.1291 -0.4128
18403TIP3    H276701   4.375   3.821   5.413 -0.6366  1.3248 -2.0722
18404TIP3   OH276702   2.109   5.399  15.649 -0.1578 -1.4134  0.0343
18404TIP3    H176703   2.051   5.408  15.573 -0.8981  0.6204  0.7832
18404TIP3    H276704   2.195   5.426  15.617 -0.6418  0.2919  0.0844
18405TIP3   OH276705   3.732   1.984   4.477 -0.2959  0.2438 -0.0544
18405TIP3    H176706   3.673   1.965   4.551 -0.1603 -1.4168 -0.3382
18405TIP3    H276707   3.727   1.906   4.422 -1.1174  1.7901 -2.3327
18406TIP3   OH276708   2.487   5.997   0.893  0.1174 -0.4726 -0.2808
18406TIP3    H176709   2.526   5.910   0.901 -0.1634 -0.7602 -1.7058
18406TIP3    H276710   2.448   5.998   0.806  1.4121  1.6044 -0.9169
18407TIP3   OH276711   1.312   6.282  13.821 -0.9897  0.6273  1.0292
18407TIP3    H176712   1.362   6.204  13.848 -0.8357  0.5942  0.6582
18407TIP3    H276713   1.370   6.326  13.759 -1.4609  0.5462  0.5311
18408TIP3   OH276714   5.545   6.669   6.499  0.5516 -0.7557  0.4875
18408TIP3    H176715   5.629   6.685   6.457  0.1845 -1.7217 -0.6747
18408TIP3    H276716   5.495   6.749   6.486  0.8572 -0.6277  0.1031
18409TIP3   OH276717   5.760   0.614  13.514  0.0711  0.4710  0.3675
18409TIP3    H176718   5.773   0.683  13.579 -0.2824  0.9609 -0.0759
18409TIP3    H276719   5.752   0.661  13.431 -0.8161 -0.0511  0.1428
18410TIP3   OH276720   2.599   2.776   1.703 -0.1091 -0.3292 -0.2661
18410TIP3    H176721   2.534   2.814   1.762 -1.1221 -1.1780 -0.7990
18410TIP3    H276722   2.560   2.694   1.674  1.8530 -1.6329  0.5551
18411TIP3   OH276723   6.547   2.690   2.160  0.3272  0.0157  0.7278
18411TIP3    H176724   6.581   2.616   2.210 -0.9490 -0.6551  0.6388
18411TIP3    H276725   6.482   2.730   2.218 -2.3567 -1.7079 -0.8225
18412TIP3   OH276726   0.393   2.075   3.662 -0.1680 -0.1488  0.9168
18412TIP3    H176727   0.427   2.101   3.577 -0.2661 -2.6182  0.0484
18412TIP3    H276728   0.366   2.157   3.703  0.6802  1.1910 -1.0519
18413TIP3   OH276729   0.189   1.380   6.392 -0.1737 -0.1765  0.3242
18413TIP3    H176730   0.119   1.343   6.338 -0.6457 -0.0350  0.8329
18413TIP3    H276731   0.175   1.475   6.388  1.3927  0.0473 -1.4673
18414TIP3   OH276732   5.018   2.685  10.308  0.6857  0.0484 -0.0304
18414TIP3    H176733   4.962   2.752  10.269  0.1121 -1.0494 -1.1986
18414TIP3    H276734   4.978   2.667  10.393  0.7716  1.0702  0.2352
18415TIP3   OH276735   0.320   2.862  12.391  0.7659 -0.2250  0.1252
18415TIP3    H176736   0.265   2.823  12.458  0.3799  2.1904  1.3178
18415TIP3    H276737   0.354   2.787  12.341 -2.0236 -1.9051  0.5249
18416TIP3   OH276738   3.003   3.298  16.438 -0.5379 -0.3295 -0.2232
18416TIP3    H176739   3.017   3.359  16.366  0.6974 -0.0835  0.1821
18416TIP3    H276740   2.952   3.348  16.502 -0.8470 -0.2393 -0.5390
18417TIP3   OH276741   3.697   1.492   5.010 -0.5009  0.2323 -0.3423
18417TIP3    H176742   3.686   1.586   5.025  5.3694  1.1502  0.5844
18417TIP3    H276743   3.723   1.486   4.918  0.7790 -0.1945  0.0315
18418TIP3   OH276744   0.018   2.460  13.434  0.0316 -0.0311  0.2470
18418TIP3    H176745  -0.052   2.397  13.418  0.5662 -0.6810  0.4232
18418TIP3    H276746  -0.021   2.525  13.492  0.3398 -1.9011  2.7094
18419TIP3   OH276747   3.750   0.866  14.008  0.1076 -0.1771 -0.1922
18419TIP3    H176748   3.742   0.806  14.082  0.2991 -1.1235 -0.9182
18419TIP3    H276749   3.819   0.927  14.033 -0.8718  0.4576  1.0314
18420TIP3   OH276750   5.705   3.016  11.360 -0.0412  0.5098 -0.2931
18420TIP3    H176751   5.723   3.096  11.408 -1.1691  0.3463  0.4560
18420TIP3    H276752   5.637   3.040  11.297  1.2557  0.6655 -1.6972
18421TIP3   OH276753   4.681   4.939  14.665  0.1464 -0.2135 -0.1476
18421TIP3    H176754   4.622   5.010  14.691  2.5559  2.3256 -1.1382
18421TIP3    H276755   4.656   4.919  14.575  0.0806  0.0787 -0.1967
18422TIP3   OH276756   6.127   5.268   5.042 -0.4269  0.4284  0.0975
18422TIP3    H176757   6.178   5.298   4.967  2.0940  0.7634  1.8068
18422TIP3    H276758   6.097   5.181   5.018  0.5949  0.4040 -1.1704
18423TIP3   OH276759   3.062   1.561   0.581 -0.2889  0.7544  0.1580
18423TIP3    H176760   3.040   1.469   0.565 -0.5910  0.7384  0.6421
18423TIP3    H276761   3.134   1.558   0.644 -1.4458  0.8608  1.5397
18424TIP3   OH276762   5.098   0.180   2.846  0.7955 -0.1082  0.7445
18424TIP3    H176763   5.032   0.237   2.886  1.8849  1.0143  0.9700
18424TIP3    H276764   5.121   0.118   2.915  0.2439 -0.2932  0.7727
18425TIP3   OH276765   2.569   6.286   0.220 -0.0885  0.2472  0.0545
18425TIP3    H176766   2.563   6.238   0.302  1.5707 -0.8333 -0.3965
18425TIP3    H276767   2.489   6.263   0.173 -0.4201 -0.2097  0.8231
18426TIP3   OH276768   5.161   1.168   1.850  0.3644  0.0113 -0.1080
18426TIP3    H176769   5.070   1.180   1.824  0.5923  0.5263 -0.6898
18426TIP3    H276770   5.208   1.154   1.767  0.7127 -0.9676  0.2327
18427TIP3   OH276771   2.285   6.566  16.788 -0.1372  0.1049 -0.0634
18427TIP3    H176772   2.272   6.558  16.693 -2.1714  2.1910 -0.0449
18427TIP3    H276773   2.213   6.516  16.826 -0.2535  0.5794  0.3421
18428TIP3   OH276774   0.406   5.132  15.294 -0.3757 -0.5004  0.4605
18428TIP3    H176775   0.409   5.212  15.347  0.0459 -1.1570  1.4555
18428TIP3    H276776   0.318   5.132  15.256 -0.2544  0.6178  0.1519
18429TIP3   OH276777   4.857   0.710  15.723  0.0849 -0.5189 -0.7707
18429TIP3    H176778   4.856   0.617  15.745 -0.4715 -0.4218 -0.3585
18429TIP3    H276779   4.909   0.715  15.642  0.8518 -1.0682 -0.3214
18430TIP3   OH276780   6.507   0.262   5.010  0.1741  0.3546  0.3431
18430TIP3    H176781   6.535   0.239   4.922 -1.9445  0.6571 -0.4794
18430TIP3    H276782   6.426   0.311   4.997 -0.8666 -0.6526  2.5051
18431TIP3   OH276783   6.078   1.508  16.620  0.0443  0.3768  0.0675
18431TIP3    H176784   6.074   1.497  16.525 -1.5168 -0.9678  0.2465
18431TIP3    H276785   6.167   1.481  16.643 -0.4936 -2.3727 -0.7212
18432TIP3   OH276786   5.482   4.542   3.264  0.0328  0.4428  0.5600
18432TIP3    H176787   5.402   4.575   3.223  0.3861  1.8862  0.9710
18432TIP3    H276788   5.526   4.492   3.196 -1.4853 -0.8645  0.4935
18433TIP3   OH276789   6.183   5.218  15.161  0.2600 -0.0761 -0.0072
18433TIP3    H176790   6.140   5.173  15.088 -0.0001 -0.6952  0.5167
18433TIP3    H276791   6.256   5.265  15.121  0.4409 -0.8449 -0.5980
18434TIP3   OH276792   3.902   4.598  11.260 -0.0286  0.0569  0.1159
18434TIP3    H176793   3.944   4.637  11.184 -2.0108  0.5243 -0.8095
18434TIP3    H276794   3.809   4.596  11.238 -0.6878  0.2739  2.5425
18435TIP3   OH276795   1.118   1.984   3.202 -0.4489  0.2187  0.1597
18435TIP3    H176796   1.038   1.997   3.253 -0.7166 -0.2582 -0.1261
18435TIP3    H276797   1.142   2.071   3.171 -0.6753  0.4087  0.5156
18436TIP3   OH276798   5.204   0.860  11.098  0.0134 -0.5372  0.4857
18436TIP3    H176799   5.123   0.816  11.077  0.3951 -0.8297 -0.4078
18436TIP3    H276800   5.258   0.851  11.020  0.7336  0.0520  0.8958
18437TIP3   OH276801   2.403   1.650  13.849 -0.0969 -0.1762 -0.8605
18437TIP3    H176802   2.316   1.690  13.845 -0.3087 -0.2778  1.3512
18437TIP3    H276803   2.394   1.581  13.914  2.4332  2.1454  2.2588
18438TIP3   OH276804   2.196   2.940  12.334  0.1346 -0.3528 -0.0972
18438TIP3    H176805   2.142   3.018  12.347  2.6096  1.5436 -0.5058
18438TIP3    H276806   2.254   2.938  12.409  0.9933 -1.0424 -0.7589
18439TIP3   OH276807   4.755   6.250  17.056  0.1667  0.3009 -0.2537
18439TIP3    H176808   4.779   6.229  16.966 -1.1974 -0.0162 -0.5581
18439TIP3    H276809   4.737   6.166  17.097 -0.8922  0.5526 -0.1819
18440TIP3   OH276810   4.070   5.347  14.203 -0.6757  0.0527  0.2599
18440TIP3    H176811   4.097   5.408  14.272  1.5144  0.0574 -0.5149
18440TIP3    H276812   4.000   5.393  14.157  1.0229  2.1506 -0.4236
18441TIP3   OH276813   2.400   0.817  16.127 -0.6052  0.2635 -0.0004
18441TIP3    H176814   2.426   0.853  16.042 -4.4557 -0.1393 -1.5432
18441TIP3    H276815   2.387   0.894  16.182 -1.8054  0.8188 -1.0239
18442TIP3   OH276816   3.294   3.225  14.185  0.4669 -0.1773  0.5142
18442TIP3    H176817   3.378   3.236  14.142 -0.0053 -0.3469 -0.4746
18442TIP3    H276818   3.261   3.314  14.197 -0.0950 -0.1694 -0.9091
18443TIP3   OH276819   5.512   1.544   4.448 -0.1946 -0.2154 -0.0323
18443TIP3    H176820   5.566   1.569   4.523  0.3713  0.3053 -0.6068
18443TIP3    H276821   5.434   1.504   4.487 -0.1333  0.5018  0.8424
18444TIP3   OH276822   1.434   3.813   2.025  0.8378 -0.0508  0.1904
18444TIP3    H176823   1.354   3.854   1.992  0.4046 -0.5114  0.6544
18444TIP3    H276824   1.408   3.773   2.108  1.2790 -1.1507 -0.1848
18445TIP3   OH276825   1.495   1.733  11.460 -0.2585  0.0021 -0.1291
18445TIP3    H176826   1.532   1.819  11.440 -2.7681  0.7474 -2.1294
18445TIP3    H276827   1.518   1.679  11.385  0.4923 -0.8594  0.6861
18446TIP3   OH276828   4.417   2.521  14.645 -0.1809  0.1976 -0.1089
18446TIP3    H176829   4.331   2.483  14.629  0.2649 -0.8367 -0.1032
18446TIP3    H276830   4.444   2.486  14.729 -0.0736  1.1372  0.2625
18447TIP3   OH276831   2.783   2.750   0.048 -0.3668  0.0391 -0.2318
18447TIP3    H176832   2.694   2.780   0.030 -1.3568 -0.9749  2.4044
18447TIP3    H276833   2.787   2.663   0.007 -0.0387  0.6796 -1.6080
18448TIP3   OH276834   0.552   5.047   4.656  0.0173 -0.2169  0.3541
18448TIP3    H176835   0.547   5.001   4.572 -1.7967 -0.8300  0.7433
18448TIP3    H276836   0.591   4.983   4.716  0.9818  0.0953  0.0716
18449TIP3   OH276837   0.630   1.067  13.401 -0.4388 -0.3670 -0.0103
18449TIP3    H176838   0.626   0.973  13.380 -0.8248 -0.4979  0.6182
18449TIP3    H276839   0.544   1.101  13.379 -0.7029 -0.4156  0.8742
18450TIP3   OH276840   4.589   6.600  13.955 -0.0931 -0.2477  0.4363
18450TIP3    H176841   4.630   6.529  14.005  4.3203  0.6343 -1.4275
18450TIP3    H276842   4.641   6.677  13.978 -1.8290  1.4300 -1.0171
18451TIP3   OH276843   3.551   0.058  15.511 -0.4539 -0.4274 -0.1632
18451TIP3    H176844   3.519  -0.032  15.506  1.9531 -1.3302 -3.0998
18451TIP3    H276845   3.634   0.051  15.559 -1.1074  0.5860  1.1582
18452TIP3   OH276846   3.352   4.610  16.779 -0.2299 -0.1348  0.5982
18452TIP3    H176847   3.409   4.586  16.707  0.0960 -0.7502  1.0592
18452TIP3    H276848   3.409   4.658  16.840 -0.8423  1.8118 -0.2670
18453TIP3   OH276849   0.286   0.273  14.005  0.3585 -0.3407 -0.3176
18453TIP3    H176850   0.192   0.251  14.008 -0.0224  0.7223 -2.4729
18453TIP3    H276851   0.323   0.229  14.081 -1.9997 -0.2277  0.9954
18454TIP3   OH276852   4.971   3.477   3.212 -0.2422 -0.2146 -0.8097
18454TIP3    H176853   4.946   3.453   3.122 -1.1346 -0.1915 -0.5819
18454TIP3    H276854   5.063   3.502   3.205 -0.0733 -0.9797 -1.5707
18455TIP3   OH276855   6.800   1.800  11.439 -0.2818  0.1411  0.2567
18455TIP3    H176856   6.822   1.838  11.524 -1.5414 -2.4639  1.8903
18455TIP3    H276857   6.839   1.712  11.442 -1.9445 -0.6935 -1.0891
18456TIP3   OH276858   6.280   3.893   4.043 -0.0235  0.0935 -0.3163
18456TIP3    H176859   6.257   3.803   4.066  0.5452 -0.0394 -0.2381
18456TIP3    H276860   6.219   3.917   3.973  0.0554 -0.4795 -0.5853
18457TIP3   OH276861   5.724   1.565  10.869 -0.3153 -0.3587  0.3339
18457TIP3    H176862   5.775   1.494  10.829 -1.0138 -0.8817  0.3423
18457TIP3    H276863   5.723   1.634  10.803  0.1183 -0.4792  0.1983
18458TIP3   OH276864   4.663   0.975  16.767  0.1491  0.2840  0.3552
18458TIP3    H176865   4.694   0.998  16.679 -3.4511  1.1112 -0.8719
18458TIP3    H276866   4.660   1.058  16.814 -1.5232  0.5113 -0.0853
18459TIP3   OH276867   4.375   5.187   5.062 -0.5071  0.4720  0.6055
18459TIP3    H176868   4.378   5.197   4.967 -0.2112  0.9485  0.6650
18459TIP3    H276869   4.380   5.276   5.096 -1.7996  0.4034  1.0390
18460TIP3   OH276870   6.301   1.180   2.854  0.8250  0.3452  0.0245
18460TIP3    H176871   6.363   1.145   2.918  0.5091  0.3164  0.3223
18460TIP3    H276872   6.283   1.107   2.795  1.5913  0.5527 -0.4698
18461TIP3   OH276873   5.238   1.929  15.486 -0.1351  0.0514 -0.6665
18461TIP3    H176874   5.254   1.928  15.580  3.5881 -1.2442 -1.1379
18461TIP3    H276875   5.191   1.847  15.469  0.5565 -0.4740 -0.0870
18462TIP3   OH276876   4.638   4.455   5.443  0.4653 -0.4290 -0.0364
18462TIP3    H176877   4.571   4.419   5.501  1.2593 -0.5847  0.8232
18462TIP3    H276878   4.627   4.408   5.361  0.2702 -1.3003  0.4743
18463TIP3   OH276879   2.891   5.433   4.021 -0.1693  0.2821  0.6017
18463TIP3    H176880   2.919   5.349   4.056 -2.0150 -0.8902 -0.6047
18463TIP3    H276881   2.920   5.497   4.087  0.4979 -1.3521  1.9739
18464TIP3   OH276882   4.393   0.727  14.592 -0.0251  0.0825  0.1825
18464TIP3    H176883   4.372   0.667  14.521 -0.6132  1.5517 -0.9320
18464TIP3    H276884   4.315   0.782  14.600  1.7268  2.9834 -1.2403
18465TIP3   OH276885   4.611   5.562   4.851 -0.1422 -0.2685 -0.3886
18465TIP3    H176886   4.518   5.543   4.835 -0.9911  1.7588  1.5847
18465TIP3    H276887   4.628   5.642   4.801  0.4660 -0.4542 -0.4863
18466TIP3   OH276888   2.342   0.043  15.231  0.6427  0.5520 -0.2109
18466TIP3    H176889   2.308   0.030  15.319 -2.2323  3.4832 -0.6919
18466TIP3    H276890   2.360   0.137  15.225 -0.5753  0.7244 -3.0925
18467TIP3   OH276891   0.354   5.024  13.246  0.1681 -0.0482  0.3573
18467TIP3    H176892   0.328   4.950  13.190 -0.8143 -2.9565  4.2096
18467TIP3    H276893   0.416   5.073  13.193 -2.0265 -1.3287 -3.8998
18468TIP3   OH276894   0.716   2.054  15.920 -0.0645  0.4932  0.0409
18468TIP3    H176895   0.683   2.144  15.923 -2.3338 -0.2854  0.6315
18468TIP3    H276896   0.689   2.022  15.834  1.5854  0.6321 -0.5590
18469TIP3   OH276897   1.408   2.697   3.341  0.0035  0.0932  0.5817
18469TIP3    H176898   1.326   2.661   3.373  0.5389 -0.2417  1.6312
18469TIP3    H276899   1.412   2.785   3.377  0.7391 -0.3826  1.7500
18470TIP3   OH276900   5.566   2.853  14.227  0.2401  0.0841 -0.3029
18470TIP3    H176901   5.541   2.922  14.166  0.2365 -1.1258 -1.7243
18470TIP3    H276902   5.580   2.898  14.310 -0.7306  1.6434 -0.9447
18471TIP3   OH276903   3.885   4.680  12.712  0.4625  1.0448  0.1914
18471TIP3    H176904   3.951   4.612  12.725  0.6963  1.4441  1.1581
18471TIP3    H276905   3.917   4.754  12.763 -0.9521  1.1049  1.0290
18472TIP3   OH276906   1.370   0.355   2.187 -0.1143  0.3099 -0.4824
18472TIP3    H176907   1.348   0.433   2.238  0.0696 -0.0274  0.1298
18472TIP3    H276908   1.383   0.287   2.253 -0.4391 -0.2825 -1.0175
18473TIP3   OH276909   6.345   4.546   0.524  0.3119 -0.2887  0.2521
18473TIP3    H176910   6.391   4.630   0.519  1.9715 -1.2538 -2.1929
18473TIP3    H276911   6.348   4.511   0.436 -3.6065 -1.3343  0.3354
18474TIP3   OH276912   2.312   5.480   6.103  0.5363  0.9919  0.5351
18474TIP3    H176913   2.252   5.546   6.068 -0.9779 -0.8761 -0.6734
18474TIP3    H276914   2.399   5.518   6.092 -0.2210  2.4546 -0.8996
18475TIP3   OH276915   5.420   6.020  11.034 -0.7380 -0.0469  0.5969
18475TIP3    H176916   5.325   6.020  11.032 -0.7465 -0.7862  0.0754
18475TIP3    H276917   5.443   5.950  11.095 -0.5217  0.6496  1.3221
18476TIP3   OH276918   1.768   5.536  17.097  0.2909 -0.0056 -0.2699
18476TIP3    H176919   1.828   5.490  17.039  2.4567  1.4517  0.6576
18476TIP3    H276920   1.681   5.524  17.058  0.9420 -3.2476 -1.0172
18477TIP3   OH276921   0.426   2.981   6.749  0.1009 -0.4698  0.4614
18477TIP3    H176922   0.436   3.004   6.841  0.7659  0.8845  0.0811
18477TIP3    H276923   0.331   2.985   6.734  0.1531  3.2749  0.2115
18478TIP3   OH276924   3.135   5.858  13.046  0.3034  0.3608  0.1620
18478TIP3    H176925   3.227   5.879  13.032  0.5881 -0.7820  0.2183
18478TIP3    H276926   3.096   5.940  13.075  1.1874  0.9899 -0.3976
18479TIP3   OH276927   5.322   3.419  13.394 -0.8711 -0.2513  0.0786
18479TIP3    H176928   5.385   3.352  13.368 -2.3187 -0.8990 -1.9427
18479TIP3    H276929   5.376   3.493  13.421  0.7529 -1.2469 -0.3031
18480TIP3   OH276930   5.229   5.682  15.708  0.1350 -0.0036 -0.2522
18480TIP3    H176931   5.195   5.641  15.629 -0.5579  0.7835 -0.3660
18480TIP3    H276932   5.164   5.662  15.776  0.2622  0.1195 -0.0927
18481TIP3   OH276933   4.495   2.996  13.033  0.7245  0.0281  0.3431
18481TIP3    H176934   4.477   3.000  13.127 -0.4603  2.6945  0.0852
18481TIP3    H276935   4.528   3.083  13.010  0.9200 -0.5243 -1.7322
18482TIP3   OH276936   1.875   1.886  11.109 -0.2460 -0.3235  0.5978
18482TIP3    H176937   1.808   1.931  11.162  0.7973  1.3081  0.5915
18482TIP3    H276938   1.915   1.824  11.169 -0.3369  0.2006  1.2129
18483TIP3   OH276939   4.858   3.141  14.984 -0.1170  0.6090  0.1026
18483TIP3    H176940   4.779   3.123  15.035 -0.3944  0.1370 -0.4823
18483TIP3    H276941   4.905   3.207  15.035  0.7168 -1.4411  2.1279
18484TIP3   OH276942   6.138   6.409   4.479  0.3505 -0.2839  0.4161
18484TIP3    H176943   6.111   6.477   4.540  0.6379  0.1799  0.0332
18484TIP3    H276944   6.175   6.340   4.535 -1.2260 -0.7712  0.9192
18485TIP3   OH276945   1.402   1.387   0.929 -0.3519  0.5377  0.0755
18485TIP3    H176946   1.366   1.318   0.873  0.6631  0.5396 -0.5916
18485TIP3    H276947   1.393   1.351   1.018  0.4612 -0.6162 -0.2788
18486TIP3   OH276948   0.940   4.632  11.839  0.3178  0.6448  0.3284
18486TIP3    H176949   1.008   4.566  11.855 -0.0315 -0.4069 -2.0451
18486TIP3    H276950   0.965   4.707  11.893  2.4519 -0.3126  0.7544
18487TIP3   OH276951   2.474   3.213  13.293 -0.4463  0.2693  0.2305
18487TIP3    H176952   2.497   3.240  13.204 -0.7783 -0.2737 -0.0220
18487TIP3    H276953   2.529   3.137  13.311  0.3462  0.9748  0.8733
18488TIP3   OH276954   2.404   1.537   3.103  0.3908  0.0481  0.0712
18488TIP3    H176955   2.450   1.578   3.031  2.3483 -1.3630  0.4296
18488TIP3    H276956   2.440   1.578   3.182 -1.4980  1.3528  0.3336
18489TIP3   OH276957   0.481   6.562   5.121  0.0940 -0.3751 -0.2821
18489TIP3    H176958   0.469   6.614   5.041  1.2976  1.7651  0.8287
18489TIP3    H276959   0.394   6.558   5.161 -0.2372 -0.1834 -0.9722
18490TIP3   OH276960   5.235   3.760   1.418 -0.0569  0.4845  0.2026
18490TIP3    H176961   5.326   3.749   1.444 -0.1966 -2.1276 -0.2146
18490TIP3    H276962   5.193   3.797   1.496  1.1821  0.9518  0.6781
18491TIP3   OH276963   6.047   6.400   2.615  0.3279  0.1602 -0.1015
18491TIP3    H176964   6.135   6.366   2.599  0.4133  0.1966  0.2662
18491TIP3    H276965   5.990   6.323   2.608  0.5210 -0.0698  0.7292
18492TIP3   OH276966   3.493   1.243   4.191  0.1460 -0.6604  0.3344
18492TIP3    H176967   3.417   1.276   4.239  1.2233  0.1944  1.5202
18492TIP3    H276968   3.549   1.320   4.180  0.7361 -1.2273 -0.7355
18493TIP3   OH276969   6.792   5.167  17.068  0.0713  0.2357 -0.4225
18493TIP3    H176970   6.860   5.128  17.013 -0.6629  0.8910 -1.8529
18493TIP3    H276971   6.712   5.124  17.040 -0.2978  0.4724  0.2623
18494TIP3   OH276972   4.500   2.290   5.049  0.3463 -0.1541 -0.3948
18494TIP3    H176973   4.459   2.224   5.105 -0.3029  1.3118  0.9236
18494TIP3    H276974   4.581   2.312   5.094 -0.3991  1.3685  0.3026
18495TIP3   OH276975   4.499   3.648   5.212  0.8000 -0.2992 -0.2063
18495TIP3    H176976   4.566   3.589   5.246  0.8173 -1.0348 -1.4523
18495TIP3    H276977   4.546   3.731   5.199  0.9709 -0.2232  0.7774
18496TIP3   OH276978   4.256   0.759   4.980  0.1139  0.1554  0.4081
18496TIP3    H176979   4.282   0.801   5.062 -2.4405  2.3914  0.2195
18496TIP3    H276980   4.219   0.831   4.928 -2.8026 -2.0101 -0.7320
18497TIP3   OH276981   4.994   3.700   2.376  0.1215  0.0574  0.1050
18497TIP3    H176982   5.036   3.782   2.403  1.2056 -0.5073  0.1733
18497TIP3    H276983   5.004   3.699   2.281 -0.0333  0.0734  0.0881
18498TIP3   OH276984   5.151   5.699   5.474  0.2114  1.0255 -0.2927
18498TIP3    H176985   5.198   5.625   5.513 -2.0373  0.0997  0.8462
18498TIP3    H276986   5.137   5.673   5.383 -0.2833  0.1581  0.0175
18499TIP3   OH276987   0.358   4.910  17.216 -0.5366  0.2003  0.1117
18499TIP3    H176988   0.373   4.858  17.136 -0.7320  0.8996 -0.3852
18499TIP3    H276989   0.343   4.999  17.184  1.7327  0.9813  1.0692
18500TIP3   OH276990   3.233   4.882  17.044  0.6176  0.2533  0.6431
18500TIP3    H176991   3.138   4.867  17.047  0.7541 -0.5981  1.0330
18500TIP3    H276992   3.243   4.976  17.057 -0.3018  0.7915 -2.0419
18501TIP3   OH276993   3.291   6.556   6.085  0.1617  0.4341  0.0390
18501TIP3    H176994   3.288   6.596   6.173  1.5058  0.4191  0.1135
18501TIP3    H276995   3.229   6.483   6.090 -0.1899  0.7657  0.7985
18502TIP3   OH276996   3.920   2.742  14.688  0.2849 -0.0212  0.0336
18502TIP3    H176997   3.878   2.819  14.650  2.3866  1.5310  0.6672
18502TIP3    H276998   3.873   2.728  14.771  0.1059  0.7903  0.0802
18503TIP3   OH276999   6.673   4.113   5.178  0.0105  0.6376  0.0557
18503TIP3    H177000   6.697   4.154   5.261  0.8433 -1.0020  0.6556
18503TIP3    H277001   6.756   4.100   5.132 -0.4544  1.7602 -1.1999
18504TIP3   OH277002   5.910   6.457  13.119 -0.3748  0.3540  0.2642
18504TIP3    H177003   5.983   6.423  13.169 -0.5774 -0.5179 -0.0166
18504TIP3    H277004   5.935   6.547  13.098 -0.4179  0.8524  2.1689
18505TIP3   OH277005   3.604   4.783  16.454  0.0268 -0.2050  0.0231
18505TIP3    H177006   3.579   4.692  16.435 -2.6316  0.8122 -1.7548
18505TIP3    H277007   3.557   4.804  16.535 -1.3533  0.3033 -0.8858
18506TIP3   OH277008   0.048   1.729  16.263 -0.5993 -0.2212  0.2719
18506TIP3    H177009   0.111   1.800  16.256 -1.1632  0.3217  0.5915
18506TIP3    H277010   0.035   1.717  16.357 -1.8431  0.4817  0.2186
18507TIP3   OH277011   2.719   0.329  11.040 -0.3409 -0.3329  0.2732
18507TIP3    H177012   2.655   0.271  11.082 -1.8721  0.7689 -0.4336
18507TIP3    H277013   2.687   0.337  10.950  1.2797 -0.4031 -0.3307
18508TIP3   OH277014   4.477   0.106   4.020 -0.1914 -0.1179 -0.2685
18508TIP3    H177015   4.479   0.150   4.105 -0.6284 -1.0461  0.2376
18508TIP3    H277016   4.417   0.159   3.967 -1.0934 -0.3465  0.4848
18509TIP3   OH277017   5.175   6.640  12.874 -0.2697 -0.3246 -0.0630
18509TIP3    H177018   5.099   6.675  12.920 -0.5031  0.4386 -0.9847
18509TIP3    H277019   5.239   6.712  12.874 -0.5134 -0.0783 -1.4389
18510TIP3   OH277020   4.649   0.959  14.205 -0.0114  0.3263  0.1143
18510TIP3    H177021   4.716   0.899  14.171  0.6366  1.5212 -0.8077
18510TIP3    H277022   4.570   0.905  14.214  0.7680 -0.8471  0.1296
18511TIP3   OH277023   3.584   2.335  13.340 -0.1239 -0.0330  0.4318
18511TIP3    H177024   3.680   2.341  13.343 -0.1816  0.8888  0.7103
18511TIP3    H277025   3.562   2.277  13.412  0.2254 -0.3328  0.3046
18512TIP3   OH277026   5.992   6.534   1.141  0.5013  0.0619 -0.4678
18512TIP3    H177027   5.945   6.508   1.220  0.4327 -1.7995 -1.0717
18512TIP3    H277028   5.927   6.580   1.089  0.2620  0.3857  0.1040
18513TIP3   OH277029   5.234   1.378   4.184 -0.3344 -0.6934 -0.1441
18513TIP3    H177030   5.226   1.409   4.274 -0.2793  0.3059 -0.4656
18513TIP3    H277031   5.268   1.289   4.192 -1.2782 -0.9865  0.8527
18514TIP3   OH277032   5.852   5.252   1.693 -0.7555 -0.5934  0.0544
18514TIP3    H177033   5.892   5.179   1.646 -2.8289 -0.7262 -1.6364
18514TIP3    H277034   5.758   5.240   1.681 -1.1830  2.0762  0.1728
18515TIP3   OH277035   3.711   5.846   1.152 -0.4353 -0.5152 -0.6015
18515TIP3    H177036   3.774   5.887   1.093  1.8438 -1.1067  1.2684
18515TIP3    H277037   3.693   5.760   1.114  2.4375 -1.6497  0.3561
18516TIP3   OH277038   0.920   1.035  16.424 -0.5875 -0.2117 -0.0209
18516TIP3    H177039   0.865   1.084  16.485  1.3709  0.7742  1.0256
18516TIP3    H277040   0.920   1.088  16.344 -0.2539  0.3750  0.3623
18517TIP3   OH277041   4.440   4.918  14.921  0.1464 -0.6686  0.0436
18517TIP3    H177042   4.432   4.993  14.863  0.1331 -0.0315  0.8397
18517TIP3    H277043   4.452   4.843  14.863  1.4054  0.0978 -0.7389
18518TIP3   OH277044   2.745   1.726   1.442 -0.2391  0.2625  0.3561
18518TIP3    H177045   2.703   1.661   1.498  0.9811 -0.8966 -0.0305
18518TIP3    H277046   2.838   1.721   1.465  0.1749  0.3193 -1.1963
18519TIP3   OH277047   6.125   2.141   3.841 -0.0409  0.7281 -0.4642
18519TIP3    H177048   6.090   2.084   3.773 -1.2677 -0.4575  1.0693
18519TIP3    H277049   6.190   2.195   3.796 -1.0596  0.2757 -2.6249
18520TIP3   OH277050   5.841   4.802   5.189  0.2813  0.7447 -0.3444
18520TIP3    H177051   5.827   4.800   5.284  1.0776 -0.6288 -0.2276
18520TIP3    H277052   5.764   4.757   5.153 -0.0338  1.2889 -0.3708
18521TIP3   OH277053   0.479   1.126   3.717  0.2785  0.0135  0.2676
18521TIP3    H177054   0.444   1.212   3.739  0.8902  0.1363  0.7707
18521TIP3    H277055   0.415   1.065   3.754 -0.1570  0.2444 -0.0929
18522TIP3   OH277056   0.668   5.102   5.429  0.0097  0.6600  0.3113
18522TIP3    H177057   0.717   5.137   5.504 -0.1573  1.3145  0.1187
18522TIP3    H277058   0.719   5.026   5.402  0.8113  1.2006  0.2560
18523TIP3   OH277059   0.302   0.386   2.763 -0.3135  0.2395  0.1268
18523TIP3    H177060   0.272   0.318   2.703  0.3561  0.4614 -0.4774
18523TIP3    H277061   0.286   0.468   2.717 -0.6688  0.4717  0.6514
18524TIP3   OH277062   3.232   5.335  10.715 -0.3869  0.1861 -0.6164
18524TIP3    H177063   3.245   5.332  10.620 -2.1651 -1.6742 -0.8603
18524TIP3    H277064   3.244   5.427  10.737  3.1586  0.2541 -2.0962
18525TIP3   OH277065   3.050   4.404  12.488  1.0896  0.2257 -0.3333
18525TIP3    H177066   3.063   4.317  12.526 -1.6578  1.0925  3.0544
18525TIP3    H277067   2.970   4.395  12.436  1.3903  0.5091 -0.8518
18526TIP3   OH277068   3.020   2.581  11.451 -0.4861  0.1940 -0.5739
18526TIP3    H177069   3.057   2.663  11.483  1.3085  0.1990 -2.4976
18526TIP3    H277070   2.935   2.574  11.496 -0.2400  2.5691  0.3849
18527TIP3   OH277071   1.096   4.177   5.569 -0.1541  0.0848  0.6691
18527TIP3    H177072   1.056   4.223   5.643  0.6752  1.1692  0.4784
18527TIP3    H277073   1.177   4.225   5.552 -0.6706  0.3207 -1.4263
18528TIP3   OH277074   3.424   6.662  16.965 -0.3873 -0.0112  0.2897
18528TIP3    H177075   3.387   6.727  16.905  0.9485 -0.3445 -0.9216
18528TIP3    H277076   3.357   6.593  16.969 -0.9253  0.4827 -0.0079
18529TIP3   OH277077   2.007   3.097  16.496 -0.0266  0.8418 -0.3243
18529TIP3    H177078   1.923   3.052  16.499  0.5219 -0.4333  4.6054
18529TIP3    H277079   1.985   3.187  16.474 -2.5188  0.3333 -0.2229
18530TIP3   OH277080   3.949   4.673   3.026 -0.1825  0.0928  0.5589
18530TIP3    H177081   3.906   4.593   3.055 -0.5071  0.2975  0.6437
18530TIP3    H277082   4.009   4.694   3.098  0.8025 -0.7408  0.0015
18531TIP3   OH277083   3.969   4.575   6.099 -0.5378  0.1492 -0.0044
18531TIP3    H177084   3.948   4.490   6.137 -0.0271 -0.3824 -0.8920
18531TIP3    H277085   3.923   4.576   6.015  0.5578  0.1620 -0.6322
18532TIP3   OH277086   5.138   3.889  14.907  0.0943  0.2332  0.0554
18532TIP3    H177087   5.158   3.982  14.898 -0.0606  0.0834 -2.4381
18532TIP3    H277088   5.127   3.857  14.817  2.8974 -2.8159  0.6027
18533TIP3   OH277089   4.819   6.259   1.254  0.3505  0.4355  0.1584
18533TIP3    H177090   4.835   6.326   1.188 -0.8941  0.5867  0.0015
18533TIP3    H277091   4.729   6.272   1.282 -0.3847 -1.9409 -0.7803
18534TIP3   OH277092   2.941   0.566   3.378 -0.9976  0.1241  0.3038
18534TIP3    H177093   3.004   0.620   3.426 -1.6580  1.2252 -0.0222
18534TIP3    H277094   2.861   0.571   3.430 -1.2682  0.0385 -0.0987
18535TIP3   OH277095   2.929   3.326   3.803  0.1507 -0.4771  0.5667
18535TIP3    H177096   2.990   3.397   3.823 -0.1667 -0.2145  0.6223
18535TIP3    H277097   2.870   3.364   3.737  0.5740 -1.0072 -0.1262
18536TIP3   OH277098   4.848   5.351  12.044 -0.3249 -0.0278 -0.8033
18536TIP3    H177099   4.867   5.404  12.122 -0.6030 -0.1707 -0.6353
18536TIP3    H277100   4.933   5.323  12.012 -0.2331 -0.3127 -0.3099
18537TIP3   OH277101   1.005   6.302   3.761 -0.2375 -0.1228  0.1860
18537TIP3    H177102   1.026   6.209   3.768  2.1941  0.3974  0.7380
18537TIP3    H277103   0.972   6.313   3.672  1.2309 -1.2237 -0.5232
18538TIP3   OH277104   0.392   2.639   0.585 -0.0430 -0.1404  0.0229
18538TIP3    H177105   0.374   2.611   0.496 -2.3116  0.2429  0.3054
18538TIP3    H277106   0.308   2.672   0.618  1.3691  2.5204  1.2970
18539TIP3   OH277107   5.206   6.310   2.235 -0.6878  0.4973  0.1085
18539TIP3    H177108   5.122   6.344   2.204 -1.5086 -0.6719  0.9408
18539TIP3    H277109   5.183   6.229   2.281  0.8846  0.2488  0.5076
18540TIP3   OH277110   5.629   4.047  16.299 -0.3506 -0.5156  0.1087
18540TIP3    H177111   5.655   4.044  16.207  0.2837 -1.7123  0.3024
18540TIP3    H277112   5.706   4.080  16.345 -1.1858  1.6181  0.0675
18541TIP3   OH277113   4.027   1.562   2.810  1.0235  0.7934  0.0081
18541TIP3    H177114   4.064   1.524   2.890 -0.6891 -2.3183 -0.4998
18541TIP3    H277115   4.103   1.574   2.753  1.7300 -3.4880 -0.3006
18542TIP3   OH277116   6.719   6.754  13.227 -1.1704 -0.2011  0.3787
18542TIP3    H177117   6.689   6.807  13.300 -0.0037  0.3351  0.4879
18542TIP3    H277118   6.808   6.728  13.251 -0.6786  0.1882 -0.9401
18543TIP3   OH277119   3.620   3.305  12.615 -0.2390 -0.2848  0.1392
18543TIP3    H177120   3.626   3.360  12.537  1.6734 -1.2658 -0.5008
18543TIP3    H277121   3.563   3.353  12.675  0.9304  2.1390 -0.5557
18544TIP3   OH277122   5.252   4.631   3.147  0.1949  0.7679 -0.3465
18544TIP3    H177123   5.186   4.691   3.112  1.9578  2.0223 -1.6900
18544TIP3    H277124   5.213   4.544   3.137 -0.8155  1.3775 -2.1391
18545TIP3   OH277125   1.236   3.436   2.283 -0.2362  0.2896  0.1593
18545TIP3    H177126   1.228   3.371   2.352 -0.9910 -1.3631 -1.4251
18545TIP3    H277127   1.146   3.460   2.261 -0.1340 -0.8539 -1.7021
18546TIP3   OH277128   4.817   0.291  15.606 -0.1174  0.1964  0.0192
18546TIP3    H177129   4.870   0.244  15.542  0.2832 -0.5235  0.8581
18546TIP3    H277130   4.750   0.335  15.554 -0.4819 -1.2697 -0.7993
18547TIP3   OH277131   0.204   6.418   1.737  0.3367 -0.0789  0.3654
18547TIP3    H177132   0.124   6.469   1.726  0.2035 -0.1579  0.9080
18547TIP3    H277133   0.272   6.471   1.695  0.1427  0.3910  0.6321
18548TIP3   OH277134   2.243   0.491   2.020 -0.2791 -0.5900 -0.3902
18548TIP3    H177135   2.294   0.557   2.068  0.9852 -1.3612 -0.6364
18548TIP3    H277136   2.154   0.525   2.020  0.2343  0.8066  0.0385
18549TIP3   OH277137   2.270   6.111  12.698  0.9840 -0.0394 -1.0961
18549TIP3    H177138   2.213   6.042  12.664  2.3408 -2.6505  1.5043
18549TIP3    H277139   2.358   6.073  12.699  1.7971  1.6487  0.5538
18550TIP3   OH277140   1.233   1.670  10.996  0.4795  0.0497 -0.1891
18550TIP3    H177141   1.246   1.764  10.983  1.4489  0.0365  0.5404
18550TIP3    H277142   1.196   1.662  11.084 -0.1372 -0.2202 -0.4682
18551TIP3   OH277143   1.478   4.423  11.892  0.0702 -0.2224  0.2242
18551TIP3    H177144   1.561   4.449  11.931 -0.8180 -2.5287  4.2510
18551TIP3    H277145   1.415   4.488  11.924 -0.2693 -0.7590  0.6845
18552TIP3   OH277146   2.701   1.092  10.740 -0.0514  0.3780 -0.1575
18552TIP3    H177147   2.661   1.166  10.694 -0.6849 -0.8173 -1.6281
18552TIP3    H277148   2.773   1.065  10.683  0.7263  0.3815  0.7941
18553TIP3   OH277149   2.241   4.104   2.352 -0.8942  0.3081  0.1438
18553TIP3    H177150   2.223   4.158   2.429 -0.6726  0.6445 -0.0395
18553TIP3    H277151   2.191   4.146   2.282 -0.2739  0.6095 -0.1263
18554TIP3   OH277152   0.294   0.489   4.450  0.7100  0.5321 -0.4074
18554TIP3    H177153   0.271   0.396   4.446 -1.6372  1.0478 -0.2462
18554TIP3    H277154   0.311   0.506   4.543 -0.4415  0.5890 -0.1975
18555TIP3   OH277155   6.663   6.331   2.625  0.0982 -0.5951  0.1024
18555TIP3    H177156   6.666   6.236   2.612  1.0140 -0.7166  1.0311
18555TIP3    H277157   6.601   6.344   2.696 -1.0401 -0.3688 -0.9087
18556TIP3   OH277158   5.602   5.880   3.824  0.3302  0.7389  0.3892
18556TIP3    H177159   5.589   5.946   3.892 -2.4845 -0.8449  1.5432
18556TIP3    H277160   5.514   5.852   3.800  1.3674 -1.5019 -1.1623
18557TIP3   OH277161   3.857   6.233   0.577 -0.0514  0.2216  0.1600
18557TIP3    H177162   3.890   6.150   0.544  0.4200  0.7991 -0.8799
18557TIP3    H277163   3.934   6.280   0.608 -0.1307  0.7767 -0.4488
18558TIP3   OH277164   0.685   4.177  14.829 -0.6526 -0.5746 -0.8980
18558TIP3    H177165   0.694   4.098  14.882  0.5012  0.9961  1.4549
18558TIP3    H277166   0.637   4.238  14.885  1.2391  1.4121 -1.3073
18559TIP3   OH277167   1.907   3.452   1.131 -0.1656 -0.0816 -0.0709
18559TIP3    H177168   1.836   3.482   1.189 -0.2709 -0.7506  0.1634
18559TIP3    H277169   1.968   3.407   1.190 -1.0385 -2.1653 -0.6327
18560TIP3   OH277170   6.781   2.187  15.477  0.0830 -0.0953  0.2456
18560TIP3    H177171   6.721   2.135  15.423 -0.6307 -1.3229  2.0937
18560TIP3    H277172   6.861   2.193  15.426 -0.8156 -0.4843 -1.2704
18561TIP3   OH277173   1.443   0.983   5.398  0.1926  0.1392 -0.1193
18561TIP3    H177174   1.460   0.905   5.345  0.0273 -1.0283  1.4752
18561TIP3    H277175   1.520   0.992   5.454  0.1806  1.1022 -0.2288
18562TIP3   OH277176   2.589   0.404   4.959  0.1849  0.0759  0.7357
18562TIP3    H177177   2.638   0.484   4.979 -2.9651  2.0386  1.3525
18562TIP3    H277178   2.550   0.421   4.873  1.4808 -1.9348 -0.3053
18563TIP3   OH277179   2.644   1.845  16.688 -0.1669 -0.1530 -0.4384
18563TIP3    H177180   2.587   1.800  16.627  0.8055  0.6756 -2.0227
18563TIP3    H277181   2.637   1.795  16.770 -1.7556 -1.0820 -1.1085
18564TIP3   OH277182   4.913   5.653  13.218 -0.0641  0.0446 -0.1447
18564TIP3    H177183   4.930   5.573  13.267  0.4215  0.2956  0.1060
18564TIP3    H277184   4.821   5.674  13.236 -0.3582 -0.7630 -0.6698
18565TIP3   OH277185   5.808   2.485   5.370  0.4227  0.0971 -0.1807
18565TIP3    H177186   5.727   2.435   5.358  2.6409 -3.8242 -0.5858
18565TIP3    H277187   5.852   2.481   5.284  1.8534  0.4495  0.4968
18566TIP3   OH277188   6.422   3.226  15.240  0.1455 -0.2761 -0.5853
18566TIP3    H177189   6.515   3.247  15.250  0.0223  0.5675 -1.0984
18566TIP3    H277190   6.379   3.278  15.307  0.1715 -1.9274  0.7616
18567TIP3   OH277191   5.501   5.990  11.488 -0.3174 -0.7148 -0.8077
18567TIP3    H177192   5.532   6.072  11.527 -0.1239  0.2094 -2.7886
18567TIP3    H277193   5.415   5.976  11.526 -0.9515  1.1773 -1.4261
18568TIP3   OH277194   4.217   1.731  13.709 -0.1394 -0.2530 -0.4278
18568TIP3    H177195   4.278   1.784  13.658  1.0580 -0.7091  0.4753
18568TIP3    H277196   4.132   1.772  13.695  0.8586  2.6171  1.0439
18569TIP3   OH277197   5.087   6.771   1.548 -0.4578  0.2435 -0.1465
18569TIP3    H177198   5.040   6.853   1.533  0.0950  0.2590 -2.1150
18569TIP3    H277199   5.134   6.754   1.466  1.2819 -0.8689  0.9844
18570TIP3   OH277200   1.886   2.189   4.929  0.5359  0.2975 -0.1040
18570TIP3    H177201   1.913   2.240   5.006 -0.0058  2.2774 -1.1462
18570TIP3    H277202   1.953   2.209   4.863 -0.0841  0.2314 -0.7594
18571TIP3   OH277203   3.895   5.766  15.032  0.0426 -0.0919 -0.1256
18571TIP3    H177204   3.864   5.802  15.115  1.2782 -0.9126  0.7172
18571TIP3    H277205   3.961   5.828  15.002 -1.9234  1.3986 -1.6813
18572TIP3   OH277206   2.468   3.070  15.618 -0.2349  0.2344 -0.1680
18572TIP3    H177207   2.515   3.153  15.611 -0.4550  0.4421  0.7185
18572TIP3    H277208   2.536   3.004  15.613  0.2683  0.5559  1.8908
18573TIP3   OH277209   2.719   2.743  14.618  0.3856  0.2853  0.5249
18573TIP3    H177210   2.675   2.662  14.646  2.3389 -0.7563  0.7844
18573TIP3    H277211   2.799   2.712  14.575  0.9402  2.0930  0.1990
18574TIP3   OH277212   0.834   0.470   3.784 -0.0209  1.0517  0.4035
18574TIP3    H177213   0.773   0.403   3.816  0.1459  1.3101  1.2678
18574TIP3    H277214   0.878   0.503   3.862  0.2705  1.8184 -0.0701
18575TIP3   OH277215   5.383   3.980   0.074 -0.2232  0.2754  0.4001
18575TIP3    H177216   5.314   3.915   0.059  1.2440 -1.1521 -0.5102
18575TIP3    H277217   5.336   4.062   0.087 -2.1119 -0.7971  0.6889
18576TIP3   OH277218   6.581   5.108  12.530 -0.4531 -0.1149 -0.1399
18576TIP3    H177219   6.562   5.021  12.566  2.0408  0.6803  3.6699
18576TIP3    H277220   6.515   5.165  12.568 -0.1155  0.1550  0.0445
18577TIP3   OH277221   5.725   0.871  17.153  0.0213 -0.2398 -0.1727
18577TIP3    H177222   5.667   0.943  17.178 -0.9147 -1.4160  1.2197
18577TIP3    H277223   5.761   0.897  17.069 -0.9110  1.4891 -0.0717
18578TIP3   OH277224   3.735   4.380  10.918 -0.2495  0.7246  0.1417
18578TIP3    H177225   3.668   4.428  10.869  0.4566 -0.4180 -2.1220
18578TIP3    H277226   3.818   4.416  10.887  0.3078 -1.8581 -1.7656
18579TIP3   OH277227   2.672   3.076  17.108 -0.7604 -0.0926  0.2646
18579TIP3    H177228   2.737   3.007  17.092 -0.1274  0.6078 -0.2333
18579TIP3    H277229   2.639   3.098  17.021 -0.9182  0.2759  0.4184
18580TIP3   OH277230   6.816   4.184   0.109 -0.0096 -0.0724  0.5298
18580TIP3    H177231   6.893   4.128   0.115 -0.1007 -0.4463 -1.3147
18580TIP3    H277232   6.836   4.246   0.039 -1.2792 -0.0196  0.1859
18581TIP3   OH277233   5.606   5.134  12.314  0.7965  0.5208 -0.8586
18581TIP3    H177234   5.699   5.157  12.321  0.7569  0.3617  0.3856
18581TIP3    H277235   5.602   5.073  12.240  1.7512  0.2025 -0.6606
18582TIP3   OH277236   0.599   4.310   6.449  0.2395  0.2760 -0.3533
18582TIP3    H177237   0.551   4.290   6.530  0.2918 -1.2573 -0.6579
18582TIP3    H277238   0.640   4.227   6.425 -0.9473  0.2931 -2.7278
18583TIP3   OH277239   0.134   0.376   4.881 -0.1175  0.2791  0.1437
18583TIP3    H177240   0.058   0.394   4.936 -0.3704  1.4854 -0.5693
18583TIP3    H277241   0.161   0.287   4.905 -0.8067  0.4171  1.5018
18584TIP3   OH277242   3.586   0.975  13.026  0.0711 -0.4095 -0.3659
18584TIP3    H177243   3.531   0.926  13.087 -1.3927  0.3795 -1.0116
18584TIP3    H277244   3.525   1.028  12.975  1.4194  0.3858 -1.2252
18585TIP3   OH277245   2.950   4.289   2.951 -0.5757 -0.0534 -0.2585
18585TIP3    H177246   2.863   4.308   2.918 -0.9856 -1.0461  0.2120
18585TIP3    H277247   2.985   4.374   2.978 -0.6637  0.6358 -2.1161
18586TIP3   OH277248   5.019   4.803  16.901 -0.2132 -0.0631  0.6639
18586TIP3    H177249   5.027   4.729  16.961 -0.3618 -0.5139  0.1298
18586TIP3    H277250   5.023   4.880  16.958  2.2554 -0.3750  1.0403
18587TIP3   OH277251   3.895   3.557   5.472  0.0351  0.0228  0.1301
18587TIP3    H177252   3.848   3.516   5.399 -0.6810  0.1103  0.5468
18587TIP3    H277253   3.875   3.650   5.464  0.0775  0.0506  0.3619
18588TIP3   OH277254   5.233   4.278  12.325  0.4775  0.0344  0.3353
18588TIP3    H177255   5.184   4.268  12.407 -0.2284  1.1308  0.0639
18588TIP3    H277256   5.247   4.372  12.316  0.3209 -0.0430 -0.9288
18589TIP3   OH277257   4.235   1.055   2.877  0.1782  0.7561  0.7978
18589TIP3    H177258   4.159   1.002   2.901 -1.5067  2.7177  0.1219
18589TIP3    H277259   4.225   1.071   2.784  0.5507  2.3411  1.0015
18590TIP3   OH277260   4.050   6.157  16.020  0.0325  0.3404 -0.2585
18590TIP3    H177261   4.102   6.156  16.100  0.1823 -0.6376 -0.3495
18590TIP3    H277262   3.968   6.198  16.045 -0.1878 -0.5673  0.5814
18591TIP3   OH277263   1.915   4.300  15.133 -0.1398  0.2673 -0.4399
18591TIP3    H177264   1.859   4.248  15.191  0.1790  1.5367  1.0644
18591TIP3    H277265   1.970   4.351  15.192  1.1115  0.6607 -1.8866
18592TIP3   OH277266   0.825   2.842   3.977  0.3106  0.8344 -0.2395
18592TIP3    H177267   0.856   2.829   3.887 -0.0808 -0.9338 -0.1743
18592TIP3    H277268   0.875   2.779   4.028 -0.8614  0.4088  0.4357
18593TIP3   OH277269   2.762   5.998  16.556 -0.5464 -0.0521  0.2016
18593TIP3    H177270   2.756   5.947  16.637 -1.2304  0.2203  0.3305
18593TIP3    H277271   2.710   6.077  16.573 -0.2588  0.2557 -0.3184
18594TIP3   OH277272   2.038   0.619   3.040  0.3649  0.1086 -0.3733
18594TIP3    H177273   2.087   0.554   2.990 -0.9395 -0.1648 -1.3345
18594TIP3    H277274   2.065   0.703   3.001  0.6734  0.0170 -0.3597
18595TIP3   OH277275   0.352   0.590  15.101 -0.6742  0.1806  0.1109
18595TIP3    H177276   0.283   0.548  15.050 -0.7481 -1.5279  1.5316
18595TIP3    H277277   0.307   0.626  15.177 -0.1755  0.0792  0.4619
18596TIP3   OH277278   2.210   3.146   0.732  0.4136  0.1072 -0.5920
18596TIP3    H177279   2.226   3.240   0.722 -1.3695  0.3198 -2.2156
18596TIP3    H277280   2.295   3.109   0.755  0.8116  2.3059  1.9147
18597TIP3   OH277281   5.969   1.753   5.844 -0.6170  0.1298  0.3122
18597TIP3    H177282   5.878   1.724   5.846 -0.9307  1.1490  1.2459
18597TIP3    H277283   6.010   1.709   5.919 -0.4499  0.0809  0.1958
18598TIP3   OH277284   5.856   3.832   6.502  0.1798  0.2888 -0.1419
18598TIP3    H177285   5.838   3.897   6.569  1.0111 -0.0619  0.4494
18598TIP3    H277286   5.795   3.761   6.519  1.7497 -0.7383  1.6179
18599TIP3   OH277287   1.934   2.577  17.168 -0.5642 -0.0505 -0.3427
18599TIP3    H177288   1.917   2.529  17.249  0.1838 -2.2167 -1.3946
18599TIP3    H277289   2.026   2.601  17.173 -1.1721  2.3413  0.6487
18600TIP3   OH277290   4.212   2.819   4.110  0.1436  0.2009  0.0233
18600TIP3    H177291   4.206   2.886   4.042  1.9618  0.6254  0.2433
18600TIP3    H277292   4.133   2.833   4.164  0.9370  2.8521  0.6484
18601TIP3   OH277293   1.414   3.324   0.647  0.2250 -0.0782  0.2119
18601TIP3    H177294   1.359   3.252   0.679  1.6519 -1.2409  0.1729
18601TIP3    H277295   1.395   3.396   0.707  1.3763 -1.5998  2.6039
18602TIP3   OH277296   1.767   3.549   2.124 -0.5767  0.1628 -0.1791
18602TIP3    H177297   1.689   3.516   2.168 -0.0768 -0.6080  0.1385
18602TIP3    H277298   1.840   3.520   2.179 -0.0767  1.1916 -0.2681
18603TIP3   OH277299   4.022   4.720  12.181  0.0716 -0.2680 -0.2116
18603TIP3    H177300   4.046   4.790  12.121  2.3911 -2.6042 -2.2455
18603TIP3    H277301   4.094   4.658  12.176 -1.2491 -2.2484  2.4723
18604TIP3   OH277302   1.944   5.017  16.340  0.0990  0.8897 -0.1123
18604TIP3    H177303   2.005   5.047  16.272 -0.9780  1.2169 -0.9635
18604TIP3    H277304   1.906   4.937  16.305 -0.3733  0.9888  0.1615
18605TIP3   OH277305   0.490   1.891   4.591 -0.1108  0.2168 -0.1265
18605TIP3    H177306   0.548   1.825   4.630  0.9426  0.4874 -1.1741
18605TIP3    H277307   0.401   1.859   4.608  0.3798 -1.2580 -0.2439
18606TIP3   OH277308   3.176   5.538  14.540  0.1230 -0.1561  0.0600
18606TIP3    H177309   3.218   5.503  14.460 -0.2665 -0.6462  0.0686
18606TIP3    H277310   3.248   5.578  14.588  0.4853 -0.4628 -0.2155
18607TIP3   OH277311   6.741   1.629  15.614 -0.4020 -0.0873 -0.1381
18607TIP3    H177312   6.655   1.596  15.587 -0.7511  0.8698 -0.2764
18607TIP3    H277313   6.730   1.725  15.613  0.6176  0.0384  0.0102
18608TIP3   OH277314   2.962   5.759   1.794 -0.3378 -0.3851 -0.4496
18608TIP3    H177315   2.959   5.846   1.754  1.1177  0.4030  1.0152
18608TIP3    H277316   3.006   5.704   1.729 -2.6111 -0.4840 -2.0385
18609TIP3   OH277317   1.526   2.494   3.552 -1.1642  0.3350  0.1247
18609TIP3    H177318   1.500   2.556   3.484  1.3830  1.5279  0.1144
18609TIP3    H277319   1.521   2.408   3.510 -1.1170  0.9111 -1.0909
18610TIP3   OH277320   4.669   6.525   0.077  0.3963  0.4626 -0.2497
18610TIP3    H177321   4.649   6.466   0.150 -0.2777 -0.8364 -1.4383
18610TIP3    H277322   4.596   6.587   0.076  0.2711  0.3214  0.0146
18611TIP3   OH277323   1.689   2.330   4.224 -0.2278  0.0783  0.3918
18611TIP3    H177324   1.742   2.350   4.147 -0.1055 -0.2922  0.3792
18611TIP3    H277325   1.600   2.355   4.199 -0.3217 -0.7562 -0.1528
18612TIP3   OH277326   5.643   5.590  12.681  0.1864 -0.1309 -0.0738
18612TIP3    H177327   5.598   5.666  12.718 -2.2167 -1.5043  0.0399
18612TIP3    H277328   5.652   5.610  12.588  0.0909  0.5337  0.0551
18613TIP3   OH277329   6.368   5.741  14.673  0.0243 -0.0207  0.0601
18613TIP3    H177330   6.295   5.692  14.635  0.0088  0.6515 -0.8110
18613TIP3    H277331   6.361   5.727  14.767 -0.3763 -1.1338 -0.1257
18614TIP3   OH277332   1.842   2.906   3.538 -0.4188 -0.1981 -0.0005
18614TIP3    H177333   1.860   2.993   3.573 -1.5679 -0.3430  1.0179
18614TIP3    H277334   1.773   2.920   3.473 -0.6587 -0.3395  0.2178
18615TIP3   OH277335   3.752   5.265   3.925 -0.4131 -0.1361  0.0150
18615TIP3    H177336   3.668   5.296   3.961 -1.2485 -0.3108 -1.6810
18615TIP3    H277337   3.727   5.204   3.856  1.0340  1.6928 -2.2675
18616TIP3   OH277338   5.016   0.922   5.415 -0.0316  0.0270  0.6079
18616TIP3    H177339   5.030   0.947   5.506 -0.8296 -0.0596  0.7596
18616TIP3    H277340   5.096   0.949   5.370 -0.0806  1.0760  1.1249
18617TIP3   OH277341   5.461   1.292  16.282  0.2722 -0.6019  0.6724
18617TIP3    H177342   5.542   1.330  16.318 -0.7465  1.5775  0.8586
18617TIP3    H277343   5.489   1.210  16.241  2.4039 -0.3997  1.5660
18618TIP3   OH277344   1.672   3.240  10.727  0.0240 -0.8919  0.0426
18618TIP3    H177345   1.689   3.164  10.671  4.5404  0.1142 -0.3304
18618TIP3    H277346   1.668   3.314  10.666 -2.2360 -0.4755  0.5893
18619TIP3   OH277347   0.559   5.400  16.837  0.1715 -0.0531  0.5946
18619TIP3    H177348   0.466   5.381  16.846 -0.0564  0.7718  0.0841
18619TIP3    H277349   0.564   5.495  16.834  0.7937 -0.0992 -1.6689
18620TIP3   OH277350   5.308   2.263  13.782 -0.0428  0.1327 -0.4571
18620TIP3    H177351   5.355   2.335  13.824 -1.3514  1.3822 -1.0483
18620TIP3    H277352   5.242   2.237  13.846 -1.3505  1.3369 -1.2502
18621TIP3   OH277353   5.199   3.600  13.113  0.0561  0.0081 -0.3518
18621TIP3    H177354   5.132   3.623  13.178 -1.7155 -1.1579 -1.6903
18621TIP3    H277355   5.282   3.620  13.157 -1.1312  1.3480  1.4290
18622TIP3   OH277356   3.779   6.592  12.545 -0.1241 -0.6074  0.3388
18622TIP3    H177357   3.796   6.502  12.517  0.4051 -0.1528 -0.8579
18622TIP3    H277358   3.684   6.599  12.544 -0.1955 -1.3089  0.9825
18623TIP3   OH277359   1.979   2.113  13.910 -0.0076 -0.1334  0.3427
18623TIP3    H177360   1.956   2.199  13.874  1.3274  0.0501 -0.1615
18623TIP3    H277361   1.991   2.057  13.833  1.9188  0.0055  0.4850
18624TIP3   OH277362   2.070   2.153   1.221 -0.4562  0.1514 -0.2355
18624TIP3    H177363   2.028   2.238   1.230  0.1256  0.2696  1.5507
18624TIP3    H277364   2.125   2.144   1.298 -0.4432 -1.8118 -0.4177
18625TIP3   OH277365   2.183   3.196   2.057  0.1895 -0.0718  0.4219
18625TIP3    H177366   2.157   3.225   2.145  0.0157 -0.7279  0.5975
18625TIP3    H277367   2.224   3.111   2.072  2.8014  1.0724  0.2028
18626TIP3   OH277368   1.099   5.167   2.327  0.3344 -0.4395  0.0848
18626TIP3    H177369   1.113   5.182   2.420  2.1370  0.5764 -0.2968
18626TIP3    H277370   1.163   5.223   2.284 -0.3920 -0.9566 -1.7797
18627TIP3   OH277371   4.846   3.410  14.008 -0.3519 -0.0682 -0.1870
18627TIP3    H177372   4.926   3.369  14.042  0.3951  1.6235  0.2211
18627TIP3    H277373   4.868   3.434  13.918 -0.1894  0.8596  0.0859
18628TIP3   OH277374   2.184   6.368  15.986  0.0822 -0.0632  0.7368
18628TIP3    H177375   2.205   6.275  15.977  0.6592 -0.1152  2.3168
18628TIP3    H277376   2.091   6.371  16.004  0.1088 -0.3568  0.9216
18629TIP3   OH277377   6.475   3.948  16.618 -0.5562 -0.2064  0.1407
18629TIP3    H177378   6.513   3.893  16.687 -0.2750 -1.4046 -0.9309
18629TIP3    H277379   6.395   3.903  16.591 -1.3307  0.9030  0.5217
18630TIP3   OH277380   0.245   0.442   3.032 -0.6456 -0.2872 -0.2365
18630TIP3    H177381   0.319   0.501   3.044  0.0460 -1.5056  2.0154
18630TIP3    H277382   0.275   0.379   2.965  0.8200 -1.3500  1.3291
18631TIP3   OH277383   0.989   1.658  14.353 -0.2378 -0.9423 -0.6456
18631TIP3    H177384   1.060   1.680  14.413 -0.1041 -0.6329 -0.9144
18631TIP3    H277385   1.003   1.715  14.278 -0.9200 -0.6851 -0.5878
18632TIP3   OH277386   1.555   2.862  11.011 -0.6744 -0.0720  0.5850
18632TIP3    H177387   1.480   2.921  11.005 -0.4345  0.1088 -1.2587
18632TIP3    H277388   1.630   2.921  11.022 -0.4842 -0.0362 -0.7950
18633TIP3   OH277389   6.714   2.338  12.819 -0.4475  0.8426 -0.0103
18633TIP3    H177390   6.763   2.288  12.753  0.9802  1.2494  0.6911
18633TIP3    H277391   6.657   2.273  12.859 -0.0838  0.2095 -0.4846
18634TIP3   OH277392   5.360   0.541   5.534 -0.2974  0.6401 -0.6929
18634TIP3    H177393   5.363   0.610   5.600  0.1539  0.2667 -0.3143
18634TIP3    H277394   5.346   0.460   5.583 -0.6868  0.4426 -1.1203
18635TIP3   OH277395   6.354   3.397  14.919 -0.7033 -0.4168  0.3439
18635TIP3    H177396   6.387   3.352  14.996  0.6645 -0.5788 -0.3119
18635TIP3    H277397   6.296   3.334  14.876 -1.6543 -0.2420  1.3412
18636TIP3   OH277398   4.366   0.355  13.682 -0.0531 -0.5679  0.4124
18636TIP3    H177399   4.399   0.266  13.678 -1.9828 -1.3026 -1.2890
18636TIP3    H277400   4.421   0.405  13.622  0.4655 -0.8160  0.6818
18637TIP3   OH277401   0.547   1.999  15.201 -0.3672  0.4706  0.6476
18637TIP3    H177402   0.596   2.081  15.203 -0.8774  0.7983  0.0927
18637TIP3    H277403   0.614   1.931  15.192  0.0568  0.8217  1.0681
18638TIP3   OH277404   2.721   2.240   4.861  0.0925 -0.1010  0.0782
18638TIP3    H177405   2.633   2.207   4.883  0.3951 -0.4656  0.7591
18638TIP3    H277406   2.712   2.272   4.771 -0.7572 -0.0785  0.1586
18639TIP3   OH277407   1.681   0.500  13.363 -0.1238 -0.4146  0.2169
18639TIP3    H177408   1.617   0.534  13.300  0.6381  0.2902 -0.1960
18639TIP3    H277409   1.662   0.547  13.444  0.0663  0.0260  0.0095
18640TIP3   OH277410   6.526   1.000   2.638 -0.3585 -0.0578  0.5322
18640TIP3    H177411   6.565   0.931   2.692  0.0570  0.8712  1.4627
18640TIP3    H277412   6.432   0.983   2.642 -0.1919 -1.2833 -0.2767
18641TIP3   OH277413   3.732   0.137   4.427 -0.2565  0.0694  0.3605
18641TIP3    H177414   3.798   0.096   4.482  0.2226 -1.6018 -1.3274
18641TIP3    H277415   3.781   0.166   4.349 -1.2551  0.1634 -0.2474
18642TIP3   OH277416   4.807   0.671  13.182 -0.4529  0.0708  0.2884
18642TIP3    H177417   4.799   0.611  13.257 -0.7778  0.9819  1.0098
18642TIP3    H277418   4.816   0.757  13.222 -0.7537  0.5881 -0.7370
18643TIP3   OH277419   3.070   3.164   3.658  0.3298  0.4534 -0.0525
18643TIP3    H177420   3.123   3.091   3.690 -0.1928  0.3032  0.4916
18643TIP3    H277421   3.027   3.199   3.736 -2.3340 -1.0042 -0.7628
18644TIP3   OH277422   1.670   5.732   5.787  0.3039 -0.3842 -0.1575
18644TIP3    H177423   1.719   5.813   5.775  1.6664 -1.2006 -0.2611
18644TIP3    H277424   1.735   5.663   5.781 -1.1806 -1.7048 -2.7936
18645TIP3   OH277425   5.756   2.265   2.594 -0.2502  0.3561  0.1235
18645TIP3    H177426   5.792   2.341   2.549  0.4214 -0.0112  0.0289
18645TIP3    H277427   5.797   2.267   2.681  1.2698 -0.9499 -0.5138
18646TIP3   OH277428   1.417   2.804   2.802  0.3880 -0.1609 -0.5867
18646TIP3    H177429   1.424   2.709   2.791  1.7980  0.0169 -1.5822
18646TIP3    H277430   1.395   2.817   2.894 -0.7415 -1.4661 -0.6441
18647TIP3   OH277431   6.713   5.830  16.274  0.3511  0.0760 -0.1081
18647TIP3    H177432   6.708   5.757  16.212  1.0193 -0.8060  0.8431
18647TIP3    H277433   6.767   5.895  16.230 -0.0429 -0.0983 -0.8656
18648TIP3   OH277434   3.763   4.379  14.669  0.5554 -0.2994 -0.4542
18648TIP3    H177435   3.761   4.450  14.605  0.5503 -0.2933 -0.4471
18648TIP3    H277436   3.672   4.351  14.676  0.5977 -0.4855 -0.6524
18649TIP3   OH277437   5.801   6.583  16.335 -0.1007 -0.0013 -0.4469
18649TIP3    H177438   5.824   6.562  16.244 -2.4590 -0.6773 -0.9493
18649TIP3    H277439   5.723   6.530  16.353 -0.2319  0.8200  1.6826
18650TIP3   OH277440   1.776   1.787  17.288  0.0696  0.0798  0.0557
18650TIP3    H177441   1.760   1.840  17.366  0.1656 -0.7539  0.6493
18650TIP3    H277442   1.850   1.732  17.311 -0.2290 -0.5411 -0.4356
18651TIP3   OH277443   2.309   2.502  15.371 -0.3056 -0.1659  0.1507
18651TIP3    H177444   2.328   2.495  15.277 -3.0152 -1.1343 -0.4082
18651TIP3    H277445   2.255   2.425  15.390  0.5577 -0.2480  2.6611
18652TIP3   OH277446   3.100   5.517  16.577  0.3700  0.4280  0.0444
18652TIP3    H177447   3.176   5.459  16.575  0.3093  0.3229  0.6706
18652TIP3    H277448   3.032   5.467  16.622 -0.8409 -0.3711 -2.4913
18653TIP3   OH277449   4.978   5.705   4.912  0.4895 -0.4914 -0.2289
18653TIP3    H177450   5.036   5.630   4.897  1.0376 -0.0684 -0.2623
18653TIP3    H277451   4.979   5.752   4.829  0.3204 -0.3325 -0.1403
18654TIP3   OH277452   6.525   1.658  11.389 -0.2597  0.2587 -0.0622
18654TIP3    H177453   6.535   1.696  11.302 -2.0786  0.1093 -0.3685
18654TIP3    H277454   6.548   1.729  11.449 -0.1649  0.7324 -0.6488
18655TIP3   OH277455   6.782   1.767  13.490  0.1302 -0.1313 -0.2802
18655TIP3    H177456   6.812   1.676  13.493  0.3927 -0.0757 -1.0685
18655TIP3    H277457   6.811   1.805  13.573  0.2088 -0.7040 -0.0426
18656TIP3   OH277458   0.036   3.420   3.722 -0.4916 -0.6166  0.0889
18656TIP3    H177459   0.119   3.459   3.749 -1.5159  1.0153  1.0112
18656TIP3    H277460   0.056   3.327   3.708  1.1577 -0.5667  1.7819
18657TIP3   OH277461   6.364   6.595  15.435  0.2334  0.3616  0.1534
18657TIP3    H177462   6.281   6.574  15.478 -0.2184  2.4294  0.3623
18657TIP3    H277463   6.409   6.510  15.428 -1.4810 -0.6597  0.8614
18658TIP3   OH277464   2.589   1.975  15.044  0.5979 -0.0449  0.4756
18658TIP3    H177465   2.650   2.019  15.103  0.2116 -0.8991  1.5535
18658TIP3    H277466   2.571   1.892  15.087  0.8959 -1.0452 -1.2357
18659TIP3   OH277467   0.722   5.859  13.009  0.8784 -0.1261 -0.1841
18659TIP3    H177468   0.685   5.935  12.964  0.0231 -0.6638 -0.4072
18659TIP3    H277469   0.749   5.800  12.939 -0.5405 -1.0048 -0.0252
18660TIP3   OH277470   2.197   4.618  12.208 -0.0089  0.5043 -0.4647
18660TIP3    H177471   2.183   4.643  12.299  0.2833 -0.1378 -0.2379
18660TIP3    H277472   2.250   4.688  12.171  0.0191  0.6789 -0.0945
18661TIP3   OH277473   0.677   2.439  13.916  0.3268 -0.0386 -0.3204
18661TIP3    H177474   0.756   2.394  13.888  0.4926 -0.2549  0.4609
18661TIP3    H277475   0.606   2.395  13.868  0.6336 -0.1202 -0.7066
18662TIP3   OH277476   1.101   6.348   2.700  0.0971  0.1147  0.2789
18662TIP3    H177477   1.083   6.440   2.716 -0.6888 -0.0694  0.4682
18662TIP3    H277478   1.024   6.302   2.732  0.9779 -0.7130  1.2863
18663TIP3   OH277479   4.387   5.919  17.242  0.1568  0.6763  0.0485
18663TIP3    H177480   4.308   5.940  17.292 -0.3430 -0.1846 -0.3518
18663TIP3    H277481   4.357   5.859  17.174  1.0332  0.9038 -0.5622
18664TIP3   OH277482   2.974   4.848  13.415  0.1861  0.5585 -0.8221
18664TIP3    H177483   2.900   4.905  13.394  0.5517  1.0304 -0.8469
18664TIP3    H277484   2.936   4.776  13.466 -0.8470 -0.8678 -3.3941
18665TIP3   OH277485   0.362   4.549  12.936 -0.5215  0.2429 -0.7781
18665TIP3    H177486   0.414   4.600  12.874  0.3686  0.4927  0.1456
18665TIP3    H277487   0.371   4.595  13.019  0.5050 -1.4799  0.1390
18666TIP3   OH277488   1.060   2.047  16.730 -0.5746 -0.2479  0.0784
18666TIP3    H177489   1.076   2.138  16.755  0.4826 -0.7103  1.1947
18666TIP3    H277490   1.027   2.006  16.810  0.0766 -1.1109 -0.0887
18667TIP3   OH277491   4.761   3.566  14.378  0.0583 -1.2549 -0.3360
18667TIP3    H177492   4.792   3.647  14.338 -0.8862 -0.9074 -0.3880
18667TIP3    H277493   4.770   3.581  14.473  1.7351 -1.8542 -0.3657
18668TIP3   OH277494   2.372   3.105  15.986 -0.1524 -0.3987 -0.8070
18668TIP3    H177495   2.459   3.103  15.947  0.1251  1.2190 -0.3518
18668TIP3    H277496   2.325   3.033  15.944  1.6604 -1.9052 -0.3765
18669TIP3   OH277497   1.337   3.395   2.542 -0.0321  0.1300  0.5132
18669TIP3    H177498   1.423   3.354   2.536 -0.2389 -0.2473 -0.0087
18669TIP3    H277499   1.353   3.480   2.584  0.3407 -0.6671  2.0439
18670TIP3   OH277500   1.973   1.090   0.473  0.2900 -0.4101  0.0015
18670TIP3    H177501   1.947   1.164   0.527  1.3951 -0.7795  1.0679
18670TIP3    H277502   1.946   1.115   0.384  0.4925  1.1833  0.3589
18671TIP3   OH277503   2.142   0.697  11.030 -0.6784 -0.0209  0.0039
18671TIP3    H177504   2.185   0.761  10.973 -0.0724 -0.5755 -0.1733
18671TIP3    H277505   2.100   0.636  10.970 -1.7778  0.5402  0.1759
18672TIP3   OH277506   0.519   2.173  13.534  0.5676 -0.1110 -0.3614
18672TIP3    H177507   0.449   2.207  13.590  1.7335  3.3926 -0.7939
18672TIP3    H277508   0.584   2.138  13.596  1.4446  2.9182  0.5982
18673TIP3   OH277509   5.891   1.305   3.363  0.0804 -0.5290 -0.3051
18673TIP3    H177510   5.797   1.322   3.364  0.0895 -0.4542  0.5582
18673TIP3    H277511   5.930   1.387   3.333 -0.0742 -0.1889  0.4041
18674TIP3   OH277512   3.822   6.101  16.951  0.3196  0.3878  0.5205
18674TIP3    H177513   3.802   6.184  16.907  0.7671 -0.0417 -0.5255
18674TIP3    H277514   3.829   6.124  17.044 -0.8114  1.2864  0.4082
18675TIP3   OH277515   2.377   6.540  17.066  0.5509 -0.0115 -0.3244
18675TIP3    H177516   2.407   6.450  17.077  1.0778  0.0610 -1.0460
18675TIP3    H277517   2.343   6.543  16.976 -0.2825  0.2878 -0.0100
18676TIP3   OH277518   3.216   1.390  13.905 -0.2071 -0.3076  0.1434
18676TIP3    H177519   3.292   1.332  13.906 -0.5325 -0.7381 -0.1207
18676TIP3    H277520   3.211   1.422  13.815  0.0422  0.2351  0.3138
18677TIP3   OH277521   4.906   3.489  11.919 -0.1456 -0.1314  0.3525
18677TIP3    H177522   4.985   3.544  11.918  0.0911 -0.4687  0.2895
18677TIP3    H277523   4.852   3.526  11.989 -0.6789  1.1419 -0.6856
18678TIP3   OH277524   6.482   2.162  14.599 -0.3567 -0.1523  0.0585
18678TIP3    H177525   6.407   2.159  14.539 -0.6002  0.8023  0.2946
18678TIP3    H277526   6.468   2.242  14.650  1.3478  0.6001 -0.5881
18679TIP3   OH277527   1.709   1.638  12.041  0.3835 -0.1762 -0.3129
18679TIP3    H177528   1.803   1.635  12.061  0.6911  3.2395 -0.5836
18679TIP3    H277529   1.667   1.624  12.125  1.2831  0.9541  0.3732
18680TIP3   OH277530   2.159   5.269   2.954 -0.5010  0.5576  0.3227
18680TIP3    H177531   2.197   5.320   2.882 -1.7152  1.4793  0.3056
18680TIP3    H277532   2.221   5.280   3.026 -0.1213  1.0257 -0.0619
18681TIP3   OH277533   4.780   2.528   5.680 -0.2946  0.1948 -0.5842
18681TIP3    H177534   4.800   2.605   5.734  0.3139  0.2303 -0.8500
18681TIP3    H277535   4.777   2.455   5.742  1.6509  0.0239 -0.6236
18682TIP3   OH277536   3.198   2.432  14.457  0.0891 -0.0689 -0.4233
18682TIP3    H177537   3.278   2.404  14.413 -2.6426 -3.1501 -4.1438
18682TIP3    H277538   3.174   2.514  14.413  0.2267 -0.1817 -0.7128
18683TIP3   OH277539   0.165   5.721   4.536  0.5661 -0.2826 -0.1696
18683TIP3    H177540   0.199   5.802   4.573  0.2258 -0.4119  0.4310
18683TIP3    H277541   0.240   5.680   4.494  0.7978  0.2111 -0.2394
18684TIP3   OH277542   5.188   4.421  11.845  0.1559  0.8695 -0.0276
18684TIP3    H177543   5.273   4.404  11.805 -1.4462  0.1183 -3.4468
18684TIP3    H277544   5.159   4.335  11.876 -0.0328  0.8205 -0.3382
18685TIP3   OH277545   1.684   1.785  13.032  0.0348  0.1612  0.1991
18685TIP3    H177546   1.644   1.784  13.119 -1.7245 -0.4831 -0.5640
18685TIP3    H277547   1.693   1.878  13.011 -3.1168  0.4562 -0.4117
18686TIP3   OH277548   3.730   4.113   0.518  0.8047 -0.3850 -0.2033
18686TIP3    H177549   3.638   4.118   0.543  1.3628 -1.4769  2.2619
18686TIP3    H277550   3.756   4.023   0.536  2.5011  0.0305 -0.3821
18687TIP3   OH277551   4.930   6.437   0.043  0.5392 -0.0317 -0.4315
18687TIP3    H177552   4.951   6.517  -0.004  0.6108  1.5432  2.0713
18687TIP3    H277553   4.836   6.424   0.029  0.9650 -1.0519 -2.9204
18688TIP3   OH277554   2.750   4.733   5.303  0.1103 -0.3072  0.2988
18688TIP3    H177555   2.782   4.645   5.283 -1.3027 -0.7718 -0.0306
18688TIP3    H277556   2.728   4.730   5.396 -1.8224 -0.9595 -0.1351
18689TIP3   OH277557   1.415   5.524  15.609  0.0697 -0.7340 -0.4302
18689TIP3    H177558   1.485   5.561  15.555 -1.2925 -0.1126 -1.8462
18689TIP3    H277559   1.427   5.564  15.695  0.3427  0.8159 -1.1505
18690TIP3   OH277560   1.985   3.228  13.717  0.4389 -0.7011 -0.0092
18690TIP3    H177561   2.022   3.314  13.699  0.3030 -0.5515  0.4018
18690TIP3    H277562   2.006   3.212  13.809 -0.6017 -0.5561  0.2722
18691TIP3   OH277563   6.615   2.796  13.381 -0.2143  0.3401  0.1683
18691TIP3    H177564   6.687   2.846  13.419 -0.3913  0.5822  0.1889
18691TIP3    H277565   6.632   2.706  13.406  0.1609  0.3792  0.0493
18692TIP3   OH277566   1.593   2.193  12.582  0.8501 -0.7717  0.1859
18692TIP3    H177567   1.633   2.273  12.615  1.3393 -0.8898 -0.1180
18692TIP3    H277568   1.500   2.214  12.575  1.1808  0.3100 -1.4406
18693TIP3   OH277569   3.745   6.118   2.310  0.0210 -0.5410  0.0405
18693TIP3    H177570   3.737   6.202   2.355  0.1241 -0.3634 -0.2706
18693TIP3    H277571   3.655   6.091   2.293 -0.1144 -1.4732  1.9265
18694TIP3   OH277572   1.750   6.040   2.278 -0.4265  0.5421 -0.0197
18694TIP3    H177573   1.711   5.995   2.353 -1.7743  0.6169 -0.6473
18694TIP3    H277574   1.711   5.998   2.201  4.0735 -2.5918 -0.9980
18695TIP3   OH277575   6.244   4.695   4.940  0.1255 -0.0120  0.6311
18695TIP3    H177576   6.240   4.771   4.998 -0.4161  1.3990 -1.1568
18695TIP3    H277577   6.152   4.669   4.928  0.1805  0.0989 -0.0641
18696TIP3   OH277578   2.586   4.815  16.079 -0.3721  0.1091 -0.5532
18696TIP3    H177579   2.609   4.888  16.136 -1.0525 -0.5137  0.5606
18696TIP3    H277580   2.505   4.842  16.037  0.3432  0.7384 -1.5708
18697TIP3   OH277581   3.278   4.425  13.189 -0.4000 -0.0720  0.1377
18697TIP3    H177582   3.255   4.453  13.278 -1.9320  0.1909 -0.3184
18697TIP3    H277583   3.318   4.502  13.149 -3.3624  1.1685 -0.6677
18698TIP3   OH277584   5.834   0.905  16.895  0.7430 -0.2218 -0.2962
18698TIP3    H177585   5.767   0.879  16.832  0.2675 -0.2619  0.2144
18698TIP3    H277586   5.817   0.998  16.910  2.9533  0.6822 -2.7427
18699TIP3   OH277587   5.708   1.632   3.475  0.1184 -0.4339  0.3917
18699TIP3    H177588   5.772   1.698   3.448  0.6248 -1.6733 -1.5883
18699TIP3    H277589   5.660   1.674   3.547  2.0199  1.1492  0.8170
18700TIP3   OH277590   1.232   2.509  17.092  0.1238 -0.1636  0.1116
18700TIP3    H177591   1.257   2.600  17.078 -1.7836  0.5389  0.9187
18700TIP3    H277592   1.313   2.459  17.081  0.6473  1.2214 -3.7650
18701TIP3   OH277593   5.622   1.444   2.768  0.1867 -0.5818 -0.2434
18701TIP3    H177594   5.685   1.372   2.768 -0.3896 -1.0915 -0.4204
18701TIP3    H277595   5.546   1.409   2.814  0.2658  0.2488  0.5635
18702TIP3   OH277596   3.058   5.469  16.944  0.4301 -0.7110 -0.4484
18702TIP3    H177597   3.027   5.546  16.897  0.5527 -1.6781 -2.1831
18702TIP3    H277598   2.979   5.430  16.982  0.5441  1.2115  2.0987
18703TIP3   OH277599   5.381   6.436  17.155  0.1791 -0.1884 -0.2419
18703TIP3    H177600   5.361   6.453  17.063  1.7451 -1.8978 -0.9622
18703TIP3    H277601   5.331   6.502  17.203 -0.1387  1.2060 -2.3471
18704TIP3   OH277602   1.971   5.703   5.549 -0.3284 -0.4468  0.3002
18704TIP3    H177603   1.943   5.699   5.640 -0.8321 -2.8298  0.1035
18704TIP3    H277604   1.996   5.613   5.528 -0.8388 -0.0850 -2.1036
18705TIP3   OH277605   6.105   5.026  15.742 -0.0280  0.0058  0.1154
18705TIP3    H177606   6.113   5.118  15.717 -0.8460  0.0427 -0.0222
18705TIP3    H277607   6.012   5.007  15.734 -0.0846 -0.4408  1.4991
18706TIP3   OH277608   5.099   6.774   3.085 -0.1492  0.1928  0.3017
18706TIP3    H177609   5.033   6.786   3.153 -0.2845 -0.0536  0.2136
18706TIP3    H277610   5.182   6.792   3.129 -0.2667  0.4151  0.4344
18707TIP3   OH277611   3.197   1.759  15.096 -0.6011 -0.1279 -0.3198
18707TIP3    H177612   3.159   1.682  15.138 -0.8647 -0.5240 -1.2596
18707TIP3    H277613   3.291   1.750  15.110 -0.6670 -0.3786 -0.0324
18708TIP3   OH277614   3.009   5.073  14.695 -0.7664 -0.0391  0.0343
18708TIP3    H177615   3.057   4.995  14.722 -0.8920  0.0465  0.5106
18708TIP3    H277616   3.073   5.144  14.698 -0.1045 -0.4445 -2.3765
18709TIP3   OH277617   4.644   5.925   1.492  0.3115  0.0109  0.4764
18709TIP3    H177618   4.716   5.946   1.552  1.5212  1.2819 -1.3236
18709TIP3    H277619   4.667   5.839   1.457  0.2494 -0.1710  0.8685
18710TIP3   OH277620   3.087   1.855   5.511 -0.4486 -0.5806  0.1718
18710TIP3    H177621   3.081   1.947   5.536  1.0522 -0.5607  0.5277
18710TIP3    H277622   3.115   1.810   5.591 -2.8674 -1.6434  0.5058
18711TIP3   OH277623   4.705   4.322  13.490 -0.3556 -0.0189 -0.3564
18711TIP3    H177624   4.624   4.364  13.462 -0.8073 -0.9469 -0.5013
18711TIP3    H277625   4.677   4.256  13.554  0.3344 -0.0458 -0.0684
18712TIP3   OH277626   6.227   6.426  16.001  0.1181  0.5209  0.0387
18712TIP3    H177627   6.318   6.401  16.017 -0.2757 -0.9382  0.1498
18712TIP3    H277628   6.182   6.404  16.082 -0.7558 -1.0669 -0.8315
18713TIP3   OH277629   6.319   0.137  14.058 -0.0020  0.0232 -0.5076
18713TIP3    H177630   6.298   0.222  14.018 -3.7960 -1.2185 -1.5793
18713TIP3    H277631   6.245   0.120  14.117  2.6629 -0.8021  2.8606
18714TIP3   OH277632   2.870   4.050  12.901  0.3065 -0.4886 -0.2858
18714TIP3    H177633   2.856   4.142  12.921 -0.0174 -0.5965 -0.0211
18714TIP3    H277634   2.957   4.031  12.937  0.0604 -0.4782  0.3365
18715TIP3   OH277635   4.459   6.712   3.822 -0.3296  0.4259 -0.1585
18715TIP3    H177636   4.477   6.635   3.876 -1.2303  0.1667 -0.2100
18715TIP3    H277637   4.496   6.786   3.871  1.6753 -0.1549 -0.6906
18716TIP3   OH277638   0.838   2.437   4.720 -0.7351  0.2499  0.4909
18716TIP3    H177639   0.786   2.361   4.748  1.1877 -1.1352  0.4836
18716TIP3    H277640   0.794   2.467   4.641 -1.6390 -0.7634  0.5767
18717TIP3   OH277641   1.252   4.493   2.383  0.1526 -0.7336 -0.3038
18717TIP3    H177642   1.324   4.432   2.398 -0.0594 -1.2560 -1.3421
18717TIP3    H277643   1.191   4.475   2.454  0.8238 -0.5985  0.3256
18718TIP3   OH277644   6.665   1.867   0.093 -0.3729  0.2206  0.4527
18718TIP3    H177645   6.581   1.889   0.051 -0.9634 -0.0162  1.4859
18718TIP3    H277646   6.642   1.803   0.160  0.8076 -0.7188 -0.0096
18719TIP3   OH277647   5.667   5.230   1.109  0.8214 -0.5901  1.0112
18719TIP3    H177648   5.612   5.268   1.042  3.7193  0.3449 -1.0390
18719TIP3    H277649   5.608   5.213   1.183 -2.3370 -0.8539 -1.3960
18720TIP3   OH277650   5.441   3.249  15.157  0.5476 -0.2819 -0.6575
18720TIP3    H177651   5.524   3.289  15.184  0.1970 -0.6120  1.0216
18720TIP3    H277652   5.458   3.155  15.158  0.0089 -0.3762  0.2488
18721TIP3   OH277653   4.414   4.464  12.959  0.0149 -0.2169 -0.2636
18721TIP3    H177654   4.327   4.465  13.000 -0.6876 -1.0963 -1.6637
18721TIP3    H277655   4.414   4.540  12.901  0.4241  0.1187  0.1602
18722TIP3   OH277656   1.238   6.773   0.243 -0.8456  0.7001  0.8720
18722TIP3    H177657   1.284   6.756   0.161  0.1918 -0.1956  1.6131
18722TIP3    H277658   1.149   6.739   0.228 -0.5728  0.2469  0.2364
18723TIP3   OH277659   6.822   2.158   1.375 -0.2313  0.2933 -0.0082
18723TIP3    H177660   6.823   2.195   1.463 -1.1099  0.8677 -0.2256
18723TIP3    H277661   6.750   2.094   1.376  0.6229 -0.6852  0.0712
18724TIP3   OH277662   1.459   5.195  15.253 -0.2006 -0.1022  0.2106
18724TIP3    H177663   1.383   5.141  15.231  0.8818 -1.4888 -0.3183
18724TIP3    H277664   1.493   5.156  15.334  0.3236  0.0858  0.0841
18725TIP3   OH277665   0.383   0.092   5.121  0.6616 -0.0518  0.5697
18725TIP3    H177666   0.334   0.070   5.201 -1.3515 -4.4815 -1.4937
18725TIP3    H277667   0.472   0.061   5.139 -0.1288 -2.4603  0.7232
18726TIP3   OH277668   0.007   2.062  16.088 -0.4639 -0.2913 -0.3599
18726TIP3    H177669   0.073   2.035  16.151 -2.0199 -1.7825  0.7320
18726TIP3    H277670  -0.076   2.054  16.136 -1.5627  0.1619 -2.1022
18727TIP3   OH277671   4.879   6.555   4.455  0.1106 -0.0637  0.1557
18727TIP3    H177672   4.947   6.563   4.522  1.2294 -2.0857 -0.6358
18727TIP3    H277673   4.856   6.462   4.456 -1.1265  0.1962 -1.0680
18728TIP3   OH277674   1.840   2.987  11.940 -0.4598  0.3396  0.4251
18728TIP3    H177675   1.787   3.037  12.003 -2.3069 -0.7949 -0.1326
18728TIP3    H277676   1.842   3.042  11.862  0.4442  1.0237  0.9095
18729TIP3   OH277677   0.772   2.340   1.610 -0.4180 -0.4241 -0.0528
18729TIP3    H177678   0.708   2.406   1.583 -0.4487 -0.6434 -0.5322
18729TIP3    H277679   0.778   2.281   1.535  0.5082 -0.2853 -0.0961
18730TIP3   OH277680   3.041   4.481   3.166 -0.7884 -0.0852 -0.5555
18730TIP3    H177681   3.132   4.506   3.151 -0.1170 -1.3771  1.0079
18730TIP3    H277682   2.998   4.562   3.192  0.0817  0.4142 -0.6148
18731TIP3   OH277683   3.747   1.518   1.751 -0.1687 -0.3301  0.1347
18731TIP3    H177684   3.728   1.521   1.844 -1.3722  1.3659 -0.1177
18731TIP3    H277685   3.661   1.521   1.709  0.4194  1.6785 -1.0344
18732TIP3   OH277686   2.266   6.308  12.998  0.3913 -0.0745  0.0684
18732TIP3    H177687   2.244   6.302  13.091 -2.3270 -0.8456 -0.5642
18732TIP3    H277688   2.320   6.231  12.981 -0.4308 -0.8024  0.6908
18733TIP3   OH277689   5.236   1.867  13.823  0.4655  0.2018 -0.3487
18733TIP3    H177690   5.183   1.788  13.814  0.9208 -0.2850  0.9741
18733TIP3    H277691   5.237   1.884  13.917 -1.0960  2.8441 -0.7140
18734TIP3   OH277692   5.366   3.178   1.424 -0.5981 -0.0265  0.1683
18734TIP3    H177693   5.275   3.156   1.444 -0.1354 -1.8013  0.5577
18734TIP3    H277694   5.413   3.164   1.506 -0.1717  2.3367  0.3745
18735TIP3   OH277695   5.045   3.182  16.066 -0.4600  0.7985  0.4585
18735TIP3    H177696   5.120   3.123  16.067 -0.9093  0.1954 -0.4745
18735TIP3    H277697   5.016   3.186  16.158 -0.7424 -0.8468  0.4728
18736TIP3   OH277698   4.329   1.561   1.548 -0.2126  0.3489  0.0311
18736TIP3    H177699   4.424   1.560   1.536  0.0204  0.6982  1.6008
18736TIP3    H277700   4.294   1.559   1.459  1.2310 -1.5668 -0.5804
18737TIP3   OH277701   6.260   0.769   3.716  0.0829  0.0333 -0.3984
18737TIP3    H177702   6.242   0.681   3.747  0.0969 -0.6936 -2.3248
18737TIP3    H277703   6.274   0.820   3.796  1.1945 -1.9276  0.7278
18738TIP3   OH277704   3.193   2.740   1.194  0.5121 -0.2097 -0.3664
18738TIP3    H177705   3.127   2.796   1.152 -0.1807 -1.2162 -0.6765
18738TIP3    H277706   3.157   2.722   1.281  0.4168 -0.6948 -0.5051
18739TIP3   OH277707   3.199   0.659   5.080 -0.5054  0.2199 -0.1577
18739TIP3    H177708   3.160   0.596   5.140 -0.0783 -0.8380 -0.9545
18739TIP3    H277709   3.293   0.644   5.087 -0.2502  1.9987  0.9368
18740TIP3   OH277710   5.645   5.060   2.858  0.1369  0.3910  0.0117
18740TIP3    H177711   5.660   5.154   2.848  1.9522  0.0983 -0.2202
18740TIP3    H277712   5.589   5.053   2.936  2.4681  1.5173  1.8909
18741TIP3   OH277713   3.149   0.869  14.368 -0.7767 -0.0927 -0.0341
18741TIP3    H177714   3.209   0.796  14.386 -0.0718  0.4892  0.0302
18741TIP3    H277715   3.117   0.852  14.279  1.2408  0.7549 -0.9917
18742TIP3   OH277716   3.340   1.991  17.204  0.1898 -0.1199 -0.1314
18742TIP3    H177717   3.424   1.949  17.188  1.4799  1.5229  1.9731
18742TIP3    H277718   3.360   2.083  17.218 -2.0898  0.5126 -0.4863
18743TIP3   OH277719   3.255   0.830  16.990  0.8197 -0.6532  0.5349
18743TIP3    H177720   3.160   0.841  16.985  0.8646 -0.5901 -0.3729
18743TIP3    H277721   3.269   0.776  17.068 -0.0357 -1.5652  0.0653
18744TIP3   OH277722   3.980   4.290   2.860 -0.2729  0.1837 -0.5323
18744TIP3    H177723   3.903   4.280   2.804 -0.1858  2.1474 -1.0880
18744TIP3    H277724   4.054   4.270   2.804 -0.3125 -0.4298 -0.3672
18745TIP3   OH277725   1.060   5.796  13.070  0.2169 -0.4721  0.0172
18745TIP3    H177726   1.028   5.856  13.138 -0.3093  0.3782 -0.9458
18745TIP3    H277727   1.135   5.842  13.031  0.5712 -0.9925  0.0723
18746TIP3   OH277728   2.370   6.565  12.073  0.2422 -0.3817 -0.0480
18746TIP3    H177729   2.437   6.555  12.004 -0.0967  0.0730 -0.4452
18746TIP3    H277730   2.395   6.501  12.139  1.3647  0.1225  0.0374
18747TIP3   OH277731   0.315   6.536  16.723  0.3263  0.6809 -0.1873
18747TIP3    H177732   0.295   6.448  16.692 -0.0282  0.4442  0.6823
18747TIP3    H277733   0.236   6.587  16.705  0.5108  0.8111 -0.6394
18748TIP3   OH277734   2.651   1.475  11.290 -0.2730  0.2592  0.5266
18748TIP3    H177735   2.722   1.488  11.353  1.3236 -0.0842 -1.1079
18748TIP3    H277736   2.685   1.409  11.229 -1.5954  0.8063 -0.8663
18749TIP3   OH277737   3.128   6.015   0.868 -0.1177  0.0513 -0.7101
18749TIP3    H177738   3.086   6.094   0.901  0.4449 -0.0794  0.3485
18749TIP3    H277739   3.055   5.957   0.845 -0.5216  0.4674 -0.4839
18750TIP3   OH277740   0.353   0.595   4.209  0.2466 -0.1850  0.0034
18750TIP3    H177741   0.330   0.549   4.290 -0.2487  0.6167  0.3256
18750TIP3    H277742   0.333   0.532   4.140 -0.2687 -0.5237  0.4512
18751TIP3   OH277743   2.590   0.834   4.021  0.0512  0.1342 -0.0174
18751TIP3    H177744   2.624   0.870   3.939 -0.1353  0.2123 -0.0620
18751TIP3    H277745   2.634   0.884   4.089 -0.5207  0.7339 -0.0848
18752TIP3   OH277746   0.234   0.770   4.850  0.7722 -0.3140 -0.0427
18752TIP3    H177747   0.209   0.761   4.942 -0.9832  1.0494 -0.3274
18752TIP3    H277748   0.275   0.856   4.844 -0.5554  0.2976 -0.7803
18753TIP3   OH277749   0.624   5.175   2.999  0.1441 -0.1982 -0.1826
18753TIP3    H177750   0.622   5.266   3.027  1.1542 -0.1348 -0.2903
18753TIP3    H277751   0.533   5.145   3.007 -0.4293  1.1618 -1.3215
18754TIP3   OH277752   2.838   0.185   1.232 -0.1625 -0.4928 -0.3563
18754TIP3    H177753   2.760   0.153   1.186  0.0411  0.3742 -1.3349
18754TIP3    H277754   2.804   0.253   1.291  0.0081  1.0316 -1.9394
18755TIP3   OH277755   4.998   4.490   1.407 -0.1897 -0.6669  0.0501
18755TIP3    H177756   5.060   4.563   1.406  0.4438 -1.1959 -0.8571
18755TIP3    H277757   4.976   4.478   1.500  0.3726  0.1079  0.2916
18756TIP3   OH277758   6.778   6.676   5.217  0.5245  0.7000  1.1667
18756TIP3    H177759   6.734   6.591   5.209  1.0575  0.5003  0.2207
18756TIP3    H277760   6.740   6.729   5.147  1.6603  0.5806  0.4528
18757TIP3   OH277761   5.625   6.166  16.079 -0.0652 -0.2861  0.1427
18757TIP3    H177762   5.557   6.125  16.025 -0.6297  1.1733 -0.3032
18757TIP3    H277763   5.579   6.195  16.158  0.2012  0.0196  0.1861
18758TIP3   OH277764   1.575   0.955   2.196 -0.1873  0.6157 -0.1153
18758TIP3    H177765   1.557   1.030   2.141  1.5102  0.8484 -0.4242
18758TIP3    H277766   1.579   0.990   2.285 -0.9281  0.5973 -0.0694
18759TIP3   OH277767   0.421   4.530   0.576  0.1557  0.2037 -0.7141
18759TIP3    H177768   0.502   4.541   0.527 -0.3581 -0.9910 -1.8635
18759TIP3    H277769   0.384   4.448   0.544 -1.3856  0.5977 -0.0243
18760TIP3   OH277770   3.833   1.735  12.288 -0.7483 -0.5132 -0.2200
18760TIP3    H177771   3.776   1.787  12.230 -0.4618  0.7572  0.6059
18760TIP3    H277772   3.922   1.759  12.262 -0.6090 -0.7570  0.0258
18761TIP3   OH277773   6.129   3.042   5.233  0.0400 -0.2291  0.2693
18761TIP3    H177774   6.161   3.084   5.153  0.8803  0.3404  0.8831
18761TIP3    H277775   6.167   3.094   5.304 -2.0339  0.2904  1.0518
18762TIP3   OH277776   0.297   2.416   1.657  0.0268 -0.0551 -0.2823
18762TIP3    H177777   0.320   2.327   1.629 -0.7981 -0.3270 -0.1214
18762TIP3    H277778   0.247   2.403   1.738 -0.2456  0.5456 -0.3490
18763TIP3   OH277779   0.411   2.711  12.997 -0.6016  0.1167 -0.1163
18763TIP3    H177780   0.401   2.718  12.902 -2.0369 -0.3130 -0.0219
18763TIP3    H277781   0.389   2.798  13.030 -0.4034  0.1807 -0.1500
18764TIP3   OH277782   5.501   6.405   6.541  0.6145 -0.2298 -0.0356
18764TIP3    H177783   5.548   6.360   6.471  0.9555  1.1551 -0.7275
18764TIP3    H277784   5.525   6.497   6.532 -2.0560  0.5354 -0.3143
18765TIP3   OH277785   3.733   2.063  13.633 -0.1305 -0.7342 -0.1097
18765TIP3    H177786   3.740   2.117  13.711 -1.7225 -0.3228 -0.2189
18765TIP3    H277787   3.675   2.112  13.574 -0.5844 -1.9446 -0.7218
18766TIP3   OH277788   5.014   3.794  13.204  0.6420 -0.1558 -0.5544
18766TIP3    H177789   4.920   3.807  13.217  0.6363 -1.4195  0.9878
18766TIP3    H277790   5.019   3.736  13.127 -0.0246 -2.0864  0.7665
18767TIP3   OH277791   4.516   2.950   2.907  0.3213 -0.3786  0.1691
18767TIP3    H177792   4.551   2.908   2.829 -0.2422  0.3811 -0.5062
18767TIP3    H277793   4.422   2.955   2.891  0.2259 -0.0297  0.8032
18768TIP3   OH277794   3.916   4.785  14.093  0.1798 -0.0938  0.1154
18768TIP3    H177795   3.919   4.695  14.062  3.2124 -0.2137  0.4725
18768TIP3    H277796   3.919   4.778  14.188  0.1631  0.3929  0.1544
18769TIP3   OH277797   0.528   5.726  13.275 -0.1774  0.4530 -0.2032
18769TIP3    H177798   0.489   5.739  13.189  0.4318 -0.4627 -0.6345
18769TIP3    H277799   0.618   5.757  13.267 -0.4230  1.3871  0.4324
18770TIP3   OH277800   0.674   6.077   6.127 -0.0495 -0.1374 -1.1460
18770TIP3    H177801   0.603   6.062   6.064 -1.4103  0.8236  0.0908
18770TIP3    H277802   0.666   6.006   6.190 -0.4492  0.4125 -0.5608
18771TIP3   OH277803   0.088   5.756  15.139 -0.1881 -0.2662  0.4252
18771TIP3    H177804   0.088   5.688  15.072 -2.6295  0.1874 -0.1402
18771TIP3    H277805   0.144   5.825  15.103  0.7382 -1.1400  0.1298
18772TIP3   OH277806   1.294   1.959  14.716  0.2007  0.2881 -0.2431
18772TIP3    H177807   1.388   1.960  14.697  0.5342 -1.6143  1.0346
18772TIP3    H277808   1.289   1.926  14.806 -1.7574 -1.4950 -0.9307
18773TIP3   OH277809   4.932   5.124   0.796  0.1365 -0.2925 -0.3943
18773TIP3    H177810   4.870   5.196   0.794  0.3578  0.0394  1.8881
18773TIP3    H277811   5.008   5.156   0.747 -0.6504  0.1152 -1.3678
18774TIP3   OH277812   4.998   1.126  16.371 -0.3586  0.0366  0.0691
18774TIP3    H177813   4.980   1.176  16.291  1.7458 -0.2761 -0.6736
18774TIP3    H277814   5.050   1.186  16.426 -1.8174  0.2611  1.2574
18775TIP3   OH277815   2.990   5.844  13.733  0.1397 -0.5903 -0.1193
18775TIP3    H177816   3.017   5.920  13.783 -0.0585  0.2524 -1.2380
18775TIP3    H277817   3.048   5.843  13.657 -0.2910 -1.1683 -0.4549
18776TIP3   OH277818   4.163   3.742  14.192 -0.3283 -0.1697  0.2635
18776TIP3    H177819   4.191   3.684  14.121  1.2217  0.6052  0.2087
18776TIP3    H277820   4.244   3.768  14.236 -1.0007  1.6273  0.5341
18777TIP3   OH277821   4.257   4.219   3.708 -0.2087 -1.4240  0.1584
18777TIP3    H177822   4.171   4.222   3.750 -0.7288  1.4114 -0.8852
18777TIP3    H277823   4.240   4.247   3.618  1.7946 -0.9348 -0.1008
18778TIP3   OH277824   5.740   5.348  11.579 -0.5661 -0.5973 -0.1260
18778TIP3    H177825   5.797   5.292  11.527 -0.6495 -0.8399  0.0404
18778TIP3    H277826   5.764   5.329  11.670 -0.1747  0.0829 -0.0798
18779TIP3   OH277827   5.441   6.206  17.007  0.2035  0.0610  0.4259
18779TIP3    H177828   5.536   6.193  16.997  0.3259  1.8665 -1.6190
18779TIP3    H277829   5.433   6.269  17.079  0.5068 -0.5796  1.0250
18780TIP3   OH277830   4.872   2.833   6.563 -0.1823 -0.3324 -0.2445
18780TIP3    H177831   4.853   2.783   6.642  1.9228  1.0598  1.2680
18780TIP3    H277832   4.846   2.776   6.491 -0.2249 -2.5354  1.4160
18781TIP3   OH277833   6.073   6.702  16.967  0.1585  0.0133 -0.8947
18781TIP3    H177834   6.080   6.797  16.962  0.1664  0.1463  1.0186
18781TIP3    H277835   6.158   6.674  17.000 -0.7539 -0.3670  1.2717
18782TIP3   OH277836   4.407   2.636  16.510  0.0364  0.1948 -0.9840
18782TIP3    H177837   4.462   2.708  16.479  0.0697  0.4389 -0.3936
18782TIP3    H277838   4.458   2.596  16.581 -0.6261  0.5477 -0.2961
18783TIP3   OH277839   4.263   3.503   3.449  0.2276 -0.6262 -0.4395
18783TIP3    H177840   4.267   3.521   3.355 -0.2195 -2.0348 -0.7451
18783TIP3    H277841   4.180   3.457   3.461  0.2855 -0.4632  0.6461
18784TIP3   OH277842   2.885   4.342  12.216  0.1040  0.2234 -0.5876
18784TIP3    H177843   2.805   4.293  12.200  1.8496 -2.7032 -0.9839
18784TIP3    H277844   2.883   4.413  12.152 -2.2975  0.5125 -0.2879
18785TIP3   OH277845   4.401   0.780  12.072  0.3708  0.4642 -0.0922
18785TIP3    H177846   4.327   0.827  12.112 -0.4569 -3.2764  3.4366
18785TIP3    H277847   4.477   0.811  12.121  1.2010  3.3321 -2.8460
18786TIP3   OH277848   6.301   5.654   0.538 -0.0140  0.3913 -0.0978
18786TIP3    H177849   6.372   5.692   0.486 -0.4401  0.0785 -0.9247
18786TIP3    H277850   6.237   5.724   0.545 -0.5974 -0.0050 -1.2375
18787TIP3   OH277851   1.861   4.877  14.491  0.2227 -0.9066 -0.0272
18787TIP3    H177852   1.903   4.950  14.536 -0.5436  0.2260 -1.0723
18787TIP3    H277853   1.914   4.801  14.513  0.0372 -0.3819  2.5459
18788TIP3   OH277854   3.504   4.020   0.602 -0.8015  0.1398 -0.3275
18788TIP3    H177855   3.497   3.956   0.532  0.6323 -0.0079 -0.3653
18788TIP3    H277856   3.496   3.969   0.683 -2.7145  0.3447 -0.3561
18789TIP3   OH277857   3.267   4.988   3.213  0.2945 -0.1757  0.5413
18789TIP3    H177858   3.297   5.067   3.168 -2.5565  1.0168  0.4811
18789TIP3    H277859   3.239   5.019   3.299 -0.8297 -1.1022  0.5385
18790TIP3   OH277860   5.538   0.795   3.123  0.0053 -0.1670 -0.1108
18790TIP3    H177861   5.574   0.803   3.035  1.1410 -0.1345  0.3446
18790TIP3    H277862   5.498   0.708   3.125 -0.1922 -0.0951 -0.7135
18791TIP3   OH277863   6.319   5.251  16.261  0.1523  0.2883  0.1023
18791TIP3    H177864   6.240   5.242  16.315  1.3184  2.6335  2.4273
18791TIP3    H277865   6.340   5.345  16.266  1.7556  0.1553 -2.4689
18792TIP3   OH277866   3.501   5.403  14.023 -0.0340  0.1592 -0.1931
18792TIP3    H177867   3.581   5.441  13.986  0.2509 -1.1080 -0.9437
18792TIP3    H277868   3.515   5.404  14.118  0.4212  0.8898 -0.2606
18793TIP3   OH277869   1.578   2.902  16.322 -0.0398  0.0935  0.0908
18793TIP3    H177870   1.619   2.842  16.261  0.8010  1.4079 -0.6860
18793TIP3    H277871   1.560   2.981  16.270 -1.9378  0.2106  0.8527
18794TIP3   OH277872   0.245   1.421  10.818 -0.0933 -0.0066 -0.1835
18794TIP3    H177873   0.301   1.475  10.874 -2.3051  1.7930  0.4469
18794TIP3    H277874   0.230   1.475  10.741 -2.0408  0.2153  0.2904
18795TIP3   OH277875   2.446   2.339   1.493  0.0300  0.1245  0.4805
18795TIP3    H177876   2.457   2.430   1.465  2.5972 -0.2966 -0.1803
18795TIP3    H277877   2.368   2.309   1.446  1.3630  0.9045 -2.4782
18796TIP3   OH277878   4.016   0.932  16.428  0.1090  0.0647  0.1865
18796TIP3    H177879   4.007   0.839  16.410  0.4428 -0.0830  0.7503
18796TIP3    H277880   4.075   0.964  16.360  0.4399 -0.2523  0.3185
18797TIP3   OH277881   6.521   4.926  11.645  0.2242  0.0730 -0.6373
18797TIP3    H177882   6.439   4.882  11.621  2.2099 -2.9953 -2.4576
18797TIP3    H277883   6.528   4.915  11.740 -0.8433 -0.7529 -0.6396
18798TIP3   OH277884   2.278   4.597  14.639 -0.1231 -0.2348  0.2003
18798TIP3    H177885   2.329   4.678  14.643  0.4766 -0.5667 -0.5474
18798TIP3    H277886   2.253   4.581  14.730  0.6337  0.2348  0.5064
18799TIP3   OH277887   1.015   3.793  14.486  0.2334  0.4373  0.7643
18799TIP3    H177888   0.920   3.801  14.476  0.4663  1.8360 -0.6989
18799TIP3    H277889   1.033   3.826  14.574 -0.7286 -0.9622  1.5161
18800TIP3   OH277890   3.131   2.914   4.818 -0.0060 -0.7537  0.4976
18800TIP3    H177891   3.174   2.998   4.805  1.4024 -1.4609  0.3954
18800TIP3    H277892   3.053   2.918   4.762 -0.4034  0.7649  1.1082
18801TIP3   OH277893   1.912   1.797   2.956  0.3335 -0.3243 -1.0531
18801TIP3    H177894   1.940   1.809   2.866  0.2416 -0.7084 -1.1335
18801TIP3    H277895   1.992   1.777   3.005  0.7132  1.8937 -0.6672
18802TIP3   OH277896   4.852   2.350  13.500  0.3040 -0.5963 -0.3570
18802TIP3    H177897   4.884   2.280  13.442 -0.4675 -0.4885 -0.9324
18802TIP3    H277898   4.875   2.431  13.454  0.8636 -0.4677  0.1318
18803TIP3   OH277899   1.894   2.727   4.355 -0.2360  0.0199 -0.1611
18803TIP3    H177900   1.827   2.727   4.423  0.9016 -2.0983  1.0882
18803TIP3    H277901   1.971   2.767   4.397 -0.0546  0.3902 -0.8304
18804TIP3   OH277902   6.445   0.559   3.390 -0.1609 -0.1890  0.5707
18804TIP3    H177903   6.474   0.488   3.447  0.8458 -0.2143  0.0387
18804TIP3    H277904   6.403   0.621   3.450 -0.6646 -1.0151  1.0960
18805TIP3   OH277905   5.591   5.938  14.515 -0.5016 -0.0853 -0.2250
18805TIP3    H177906   5.666   5.894  14.475 -1.4850 -2.7143  0.5836
18805TIP3    H277907   5.626   5.979  14.594  0.1071 -1.5200  0.2945
18806TIP3   OH277908   2.635   2.230   0.991 -0.2551  0.4317  0.2550
18806TIP3    H177909   2.727   2.247   0.970 -0.3120  1.4708  0.7650
18806TIP3    H277910   2.596   2.206   0.907  0.6820 -1.0929  0.2154
18807TIP3   OH277911   5.533   3.834   3.254  0.4102 -0.1515  0.1005
18807TIP3    H177912   5.514   3.865   3.165  0.5159 -0.9953 -0.2248
18807TIP3    H277913   5.461   3.775   3.275  0.3719  0.0640  0.5938
18808TIP3   OH277914   6.452   2.069  13.152 -0.6115 -0.5536  0.7807
18808TIP3    H177915   6.546   2.087  13.147 -0.2979 -2.1455  0.5683
18808TIP3    H277916   6.437   2.001  13.087 -2.1954  0.6549 -0.2021
18809TIP3   OH277917   1.038   1.599  15.088  1.0596  0.1758  0.1324
18809TIP3    H177918   1.119   1.551  15.111  0.7414 -1.7234 -2.2684
18809TIP3    H277919   0.969   1.533  15.097  0.1464  1.0553 -0.3374
18810TIP3   OH277920   1.949   2.868  13.782  0.1717 -0.5234  0.3049
18810TIP3    H177921   1.945   2.958  13.814  1.2638 -1.2955  2.9000
18810TIP3    H277922   1.875   2.824  13.822 -0.8032 -0.6728 -1.5562
18811TIP3   OH277923   3.529   4.592  14.093 -0.1455  0.8021 -0.7033
18811TIP3    H177924   3.571   4.546  14.020 -2.4561  0.6782 -2.0508
18811TIP3    H277925   3.435   4.580  14.077 -0.7601 -0.0646  2.8515
18812TIP3   OH277926   1.442   2.503   2.794 -0.3692  0.0500  0.5093
18812TIP3    H177927   1.413   2.418   2.760  0.5305 -0.0014 -0.1727
18812TIP3    H277928   1.536   2.491   2.811  0.5732  1.8211 -2.7439
18813TIP3   OH277929   3.300   3.868   6.065 -0.3882  0.3872 -0.2320
18813TIP3    H177930   3.244   3.823   6.128 -1.8837  1.1616 -0.9276
18813TIP3    H277931   3.335   3.799   6.009 -2.1745 -0.0204 -0.9208
18814TIP3   OH277932   1.855   1.367  15.116 -0.0728 -0.2118 -0.2606
18814TIP3    H177933   1.856   1.462  15.108 -0.3049 -0.3098 -1.5648
18814TIP3    H277934   1.802   1.350  15.194 -2.4149  0.6512 -1.5896
18815TIP3   OH277935   3.197   4.100  10.666 -0.0187  0.0472  0.1270
18815TIP3    H177936   3.124   4.143  10.711  0.3671 -1.4190  2.2797
18815TIP3    H277937   3.268   4.163  10.673  0.0584 -0.1625  1.7494
18816TIP3   OH277938   5.269   2.583   1.404  0.0478  0.4884 -0.0829
18816TIP3    H177939   5.175   2.601   1.407  0.0526  0.4311  0.4655
18816TIP3    H277940   5.285   2.522   1.476  0.6000  0.9467  0.1923
18817TIP3   OH277941   5.055   1.986  11.932  0.0046 -0.3180 -0.2692
18817TIP3    H177942   5.030   2.026  12.015  0.6156 -0.3820 -0.0514
18817TIP3    H277943   5.138   2.027  11.910 -0.4846  0.2107 -1.2033
18818TIP3   OH277944   5.273   4.660   1.024 -0.2709  0.3621 -0.2365
18818TIP3    H177945   5.255   4.696   0.937 -0.4213 -0.3113 -0.4881
18818TIP3    H277946   5.193   4.676   1.073 -0.1945  0.7231 -0.2198
18819TIP3   OH277947   5.147   5.231   6.220  0.7151  0.6491 -0.0494
18819TIP3    H177948   5.144   5.327   6.228 -0.6717  0.5601  1.0264
18819TIP3    H277949   5.192   5.203   6.300 -1.3190  0.3234  1.0541
18820TIP3   OH277950   3.863   2.895   3.159  0.4923  0.3527  0.3536
18820TIP3    H177951   3.954   2.907   3.132  0.1056 -0.7738 -1.6529
18820TIP3    H277952   3.821   2.980   3.145  0.9284  0.5066 -0.0062
18821TIP3   OH277953   3.910   6.450   1.838 -0.2776  0.1076 -0.5437
18821TIP3    H177954   3.934   6.531   1.793  2.1168  0.8938  1.8577
18821TIP3    H277955   3.865   6.480   1.917 -1.3642 -1.0358 -0.7176
18822TIP3   OH277956   3.500   2.126   4.682 -0.6353  0.2910  0.0636
18822TIP3    H177957   3.436   2.191   4.653  0.0938  1.3809  0.8196
18822TIP3    H277958   3.554   2.172   4.746 -1.3895 -1.6326  2.2524
18823TIP3   OH277959   6.006   6.337  14.893 -0.0814 -0.8832  0.6022
18823TIP3    H177960   6.003   6.249  14.931  0.0646 -0.6870  1.0825
18823TIP3    H277961   5.990   6.395  14.967  0.0461 -0.4969  0.3299
18824TIP3   OH277962   4.876   3.537  14.663  0.3816 -0.4467 -0.3998
18824TIP3    H177963   4.815   3.611  14.669  0.8895 -0.1110  0.8818
18824TIP3    H277964   4.824   3.462  14.693  0.8187 -0.0024  1.6131
18825TIP3   OH277965   0.558   1.339  16.630 -0.0360 -0.2327 -0.2684
18825TIP3    H177966   0.477   1.288  16.624  0.4786 -0.9997 -0.9760
18825TIP3    H277967   0.534   1.426  16.598 -0.4049 -0.6794 -1.2372
18826TIP3   OH277968   4.988   6.603  15.537  0.0236 -0.1919  0.1387
18826TIP3    H177969   5.007   6.670  15.471  0.2967 -1.5327 -1.2071
18826TIP3    H277970   4.993   6.521  15.489  0.0971 -1.2158  1.8387
18827TIP3   OH277971   2.868   1.804   1.829 -0.5396  0.9721  0.2557
18827TIP3    H177972   2.886   1.828   1.920 -0.3356  0.7234  0.2788
18827TIP3    H277973   2.808   1.730   1.835  0.3903  0.2079  0.1967
18828TIP3   OH277974   6.539   2.478   4.843 -0.0013  0.0022  0.7742
18828TIP3    H177975   6.457   2.526   4.857 -0.0540 -0.1188  0.8892
18828TIP3    H277976   6.538   2.411   4.911 -0.2064 -0.5226  0.2669
18829TIP3   OH277977   6.658   6.634  13.700  0.1918  0.0863  0.6106
18829TIP3    H177978   6.581   6.610  13.647 -0.8603 -0.3163  2.2240
18829TIP3    H277979   6.680   6.722  13.672 -0.4675 -0.0236 -0.3187
18830TIP3   OH277980   2.129   6.486   5.640  0.2597  0.3328 -0.1100
18830TIP3    H177981   2.082   6.495   5.558 -2.5982  0.6539  1.4187
18830TIP3    H277982   2.166   6.572   5.657  0.6565  0.3272 -0.8895
18831TIP3   OH277983   5.000   4.922   1.289  0.5449  0.2284 -0.3880
18831TIP3    H177984   5.012   4.852   1.225 -0.0029  0.7851 -1.1141
18831TIP3    H277985   5.000   5.003   1.236 -1.2045  0.6091  0.1475
18832TIP3   OH277986   0.003   6.794  14.496 -0.6453  0.5870  0.1958
18832TIP3    H177987  -0.055   6.718  14.500 -1.2978  1.0361 -0.4548
18832TIP3    H277988   0.022   6.815  14.587  1.6266 -1.8943  0.4175
18833TIP3   OH277989   3.071   5.586   1.606  0.0760  0.4457 -0.5493
18833TIP3    H177990   3.041   5.628   1.526  0.8943  1.1312 -0.5087
18833TIP3    H277991   3.144   5.531   1.578 -1.6581 -1.9084 -0.8017
18834TIP3   OH277992   2.158   5.326  11.379 -0.8366 -0.4998  0.2501
18834TIP3    H177993   2.244   5.347  11.343 -0.2102 -0.9948  1.3943
18834TIP3    H277994   2.136   5.401  11.435 -0.8339 -0.6852  0.5000
18835TIP3   OH277995   4.587   5.063   5.583 -0.6948  0.3486  0.0980
18835TIP3    H177996   4.562   5.131   5.521  1.8285  0.5523 -0.7931
18835TIP3    H277997   4.640   5.108   5.649 -1.9179 -0.1790  1.5140
18836TIP3   OH277998   4.900   6.689  13.788 -0.0132 -0.6259 -0.1571
18836TIP3    H177999   4.857   6.709  13.871 -0.9805 -2.3025 -0.2190
18836TIP3    H278000   4.886   6.595  13.775  2.0744 -0.8558 -1.1215
18837TIP3   OH278001   6.423   6.718  11.549 -0.3469  0.0249 -0.2108
18837TIP3    H178002   6.429   6.793  11.608 -2.0954  1.7218 -2.0290
18837TIP3    H278003   6.364   6.657  11.593  1.3836 -0.5226  1.4555
18838TIP3   OH278004   1.020   0.320   5.086 -0.0103  0.4263 -0.3254
18838TIP3    H178005   1.067   0.241   5.113 -0.5848  0.0981 -0.2539
18838TIP3    H278006   1.000   0.306   4.994 -0.3719  0.3474 -0.2392
18839TIP3   OH278007   6.415   0.206   1.784 -0.4935 -0.0249  0.3710
18839TIP3    H178008   6.371   0.148   1.846 -1.2928  0.0367 -0.1324
18839TIP3    H278009   6.358   0.208   1.708  0.2964  0.1944 -0.2346
18840TIP3   OH278010   1.434   2.884  11.363 -0.0954  0.0597  0.6297
18840TIP3    H178011   1.369   2.955  11.366  0.3240  0.5563 -0.9920
18840TIP3    H278012   1.393   2.817  11.309  0.8957  0.5706 -0.8009
18841TIP3   OH278013   4.374   6.810   0.548 -0.0901 -0.0550 -0.7310
18841TIP3    H178014   4.405   6.737   0.494 -0.4377  0.5645 -1.8117
18841TIP3    H278015   4.444   6.875   0.541 -0.4262  0.2842 -0.9754
18842TIP3   OH278016   0.936   1.222  13.682 -0.0606 -0.0460 -0.1795
18842TIP3    H178017   0.847   1.218  13.647  0.6146 -0.9290 -1.9431
18842TIP3    H278018   0.978   1.143  13.649  0.3475 -1.7173  3.7686
18843TIP3   OH278019   4.362   5.428   0.391  0.2932 -0.4936  0.7302
18843TIP3    H178020   4.315   5.351   0.360 -1.1543  0.0058  1.5486
18843TIP3    H278021   4.293   5.486   0.424  1.4174  0.7621  0.9604
18844TIP3   OH278022   2.339   3.523  12.078 -0.0260  0.0380  0.3372
18844TIP3    H178023   2.282   3.522  12.155  0.6209  0.7121  0.8329
18844TIP3    H278024   2.427   3.537  12.113  0.3060  0.1400 -0.5116
18845TIP3   OH278025   5.381   0.950   3.293  0.8344 -0.5966  0.1872
18845TIP3    H178026   5.413   0.890   3.226  2.1177 -1.9885  1.9343
18845TIP3    H278027   5.450   1.017   3.300  1.1953 -1.0187  0.7782
18846TIP3   OH278028   6.505   0.078  10.877 -0.0116  0.2511  0.1938
18846TIP3    H178029   6.484   0.061  10.968  1.0290  1.6869  0.7315
18846TIP3    H278030   6.420   0.073  10.832 -0.3146 -2.1731  0.8940
18847TIP3   OH278031   1.831   6.315  12.042 -0.3507 -0.2316 -0.4282
18847TIP3    H178032   1.829   6.342  12.133  2.0565  0.7299 -0.5924
18847TIP3    H278033   1.789   6.387  11.995  0.1660  0.1850 -0.2548
18848TIP3   OH278034   0.018   0.035  14.754 -0.3178 -0.0318 -0.2294
18848TIP3    H178035   0.035   0.113  14.806 -2.1423  0.1643  0.1193
18848TIP3    H278036   0.032  -0.038  14.814 -2.1124  0.1817  0.4975
18849TIP3   OH278037   0.684   1.230  13.061  0.0061 -0.0279  0.0754
18849TIP3    H178038   0.742   1.164  13.099 -1.3837 -0.7709  1.0088
18849TIP3    H278039   0.675   1.296  13.130  0.2300  0.3955 -0.2997
18850TIP3   OH278040   3.574   6.513   1.546 -0.4811 -0.1925 -0.0359
18850TIP3    H178041   3.510   6.584   1.559  1.1670  1.1852  1.1047
18850TIP3    H278042   3.632   6.546   1.478 -0.3923 -1.0014 -0.3616
18851TIP3   OH278043   1.188   5.184  11.044 -0.1233 -0.7410 -0.2526
18851TIP3    H178044   1.276   5.147  11.047  0.2345 -0.2285 -2.3482
18851TIP3    H278045   1.167   5.188  10.950 -2.5698 -1.2554  0.1963
18852TIP3   OH278046   2.579   4.388  14.804 -0.1631  0.2245  0.7212
18852TIP3    H178047   2.549   4.445  14.874 -0.6520 -0.2899  0.9292
18852TIP3    H278048   2.541   4.302  14.823 -1.8243  0.4694 -1.1267
18853TIP3   OH278049   1.308   6.244   3.931  0.2084  0.0451 -0.5076
18853TIP3    H178050   1.267   6.161   3.905 -0.1316 -0.0584  0.3341
18853TIP3    H278051   1.328   6.287   3.848 -3.1937  0.9119 -1.0499
18854TIP3   OH278052   5.262   0.908   4.651  0.6887 -0.3227  0.6927
18854TIP3    H178053   5.346   0.868   4.671  1.5980  0.6115 -1.0768
18854TIP3    H278054   5.198   0.850   4.692  1.9430 -3.3875 -1.3069
18855TIP3   OH278055   1.212   6.408   4.608 -0.5290  0.0323 -0.2779
18855TIP3    H178056   1.284   6.421   4.669 -1.3430 -1.3338  1.0616
18855TIP3    H278057   1.253   6.367   4.531  0.2728  0.2285  0.0344
18856TIP3   OH278058   4.634   3.411  12.292  0.0903 -0.1638 -0.5733
18856TIP3    H178059   4.645   3.335  12.234  2.3041 -1.0959  0.9475
18856TIP3    H278060   4.707   3.468  12.270  0.1863  0.0945  0.4027
18857TIP3   OH278061   2.029   0.442  16.661 -0.4291  0.3585  0.2570
18857TIP3    H178062   2.111   0.490  16.652  0.0311 -0.0494  1.9160
18857TIP3    H278063   1.980   0.462  16.581  1.1934  0.7664 -0.6704
18858TIP3   OH278064   3.483   2.178  15.391  0.0111 -0.4717  0.1604
18858TIP3    H178065   3.489   2.224  15.307 -1.1290 -1.3215 -0.4113
18858TIP3    H278066   3.475   2.086  15.368 -2.1874 -0.5797  1.0914
18859TIP3   OH278067   2.383   5.459  17.024 -0.1416  0.0701  0.1340
18859TIP3    H178068   2.295   5.456  16.986 -1.0724 -0.2091  2.1440
18859TIP3    H278069   2.376   5.522  17.096  1.2440 -0.1083  0.4635
18860TIP3   OH278070   3.583   6.124  11.818  0.0316  0.1780 -0.0520
18860TIP3    H178071   3.525   6.058  11.779 -1.3643  1.3507 -0.0119
18860TIP3    H278072   3.629   6.162  11.743 -1.4700  1.3058 -0.4561
18861TIP3   OH278073   3.731   4.376  10.586  0.0079  0.3345  0.4111
18861TIP3    H178074   3.822   4.406  10.592  0.5846 -1.0544 -0.7697
18861TIP3    H278075   3.693   4.431  10.517  0.4909 -0.2713 -0.3590
18862TIP3   OH278076   0.143   4.954  12.375 -0.3772  0.4943  0.2544
18862TIP3    H178077   0.174   4.877  12.327  1.1737  0.1477  1.7286
18862TIP3    H278078   0.201   4.960  12.451 -1.9033  1.7917  1.3889
18863TIP3   OH278079   6.033   3.085   1.265 -0.2593  0.0282  0.1319
18863TIP3    H178080   6.072   2.998   1.280 -1.7798 -0.3940  2.0925
18863TIP3    H278081   6.108   3.145   1.268  0.8800 -1.2074 -1.6917
18864TIP3   OH278082   6.519   4.474   2.776 -0.1991  0.2811  0.3844
18864TIP3    H178083   6.538   4.401   2.716 -2.3278 -0.5250  0.6122
18864TIP3    H278084   6.522   4.434   2.863 -2.3569  0.1752  0.4539
18865TIP3   OH278085   4.940   0.188   6.148 -0.1141 -0.3803 -0.1355
18865TIP3    H178086   5.032   0.201   6.171  0.4849 -1.6141 -1.6083
18865TIP3    H278087   4.896   0.170   6.231  0.7427  1.3115  0.7340
18866TIP3   OH278088   3.958   5.757   0.571  0.0358 -0.0785 -0.1712
18866TIP3    H178089   3.887   5.693   0.566  0.6287 -0.8529  1.0619
18866TIP3    H278090   3.974   5.769   0.664  1.3231  0.3187 -0.4235
18867TIP3   OH278091   6.818   6.187   2.215 -0.0195 -0.1787 -0.0206
18867TIP3    H178092   6.841   6.260   2.273 -1.0081  2.0548 -2.2184
18867TIP3    H278093   6.722   6.193   2.208 -0.0030 -1.0010 -1.1041
18868TIP3   OH278094   5.896   0.166  13.190 -0.0857 -0.0311  0.0631
18868TIP3    H178095   5.954   0.155  13.265 -1.8004 -0.5524  1.3644
18868TIP3    H278096   5.816   0.119  13.214 -1.2620  1.1043 -1.4342
18869TIP3   OH278097   1.818   4.721  16.888  0.5694 -0.4802 -0.7830
18869TIP3    H178098   1.750   4.664  16.853  1.0467 -0.9627 -0.9423
18869TIP3    H278099   1.771   4.797  16.923  0.1020  0.2570 -2.8638
18870TIP3   OH278100   6.238   2.721   0.209 -0.1337 -0.0474 -0.5928
18870TIP3    H178101   6.206   2.740   0.121  0.0835  0.8147 -0.4985
18870TIP3    H278102   6.160   2.701   0.260 -0.2234 -0.9464 -1.0660
18871TIP3   OH278103   0.798   2.073  12.760  0.2123 -0.2318  0.2898
18871TIP3    H178104   0.723   2.020  12.788  0.2729 -0.3559  0.2144
18871TIP3    H278105   0.788   2.155  12.809 -1.2388  0.6687 -1.3789
18872TIP3   OH278106   4.174   2.230  13.797 -0.0767 -0.1923 -0.4630
18872TIP3    H178107   4.107   2.166  13.772 -1.9084  1.1491  0.7004
18872TIP3    H278108   4.201   2.203  13.885 -0.8711  0.5892  0.0404
18873TIP3   OH278109   1.359   2.839  12.557  0.5383 -0.0528  0.0998
18873TIP3    H178110   1.375   2.842  12.463 -0.1449  1.3488  0.0047
18873TIP3    H278111   1.397   2.755  12.585 -0.4854 -1.1740 -1.6415
18874TIP3   OH278112   1.377   4.850  13.287 -1.1510 -0.1655 -0.9320
18874TIP3    H178113   1.389   4.924  13.228 -1.9943 -0.6376 -1.7100
18874TIP3    H278114   1.415   4.775  13.241  0.5031 -0.0995  0.2205
18875TIP3   OH278115   4.333   4.890  11.830  0.2005  0.1062 -0.0164
18875TIP3    H178116   4.305   4.981  11.825 -0.6551 -0.0230  1.8465
18875TIP3    H278117   4.261   4.844  11.873  1.2502 -1.1524  0.4841
18876TIP3   OH278118   0.808   3.458  16.889 -0.0012  0.3017  0.0851
18876TIP3    H178119   0.878   3.488  16.831  2.0878 -0.3477  2.1318
18876TIP3    H278120   0.783   3.372  16.854  1.5933 -0.3167  0.3867
18877TIP3   OH278121   5.903   3.871   2.541 -0.4941 -0.3197  0.3680
18877TIP3    H178122   5.949   3.837   2.618 -0.4674 -0.2215  0.3960
18877TIP3    H278123   5.966   3.860   2.469 -0.2341  0.2813  0.5012
18878TIP3   OH278124   4.234   5.625   1.010  0.1908 -0.2113  0.5827
18878TIP3    H178125   4.170   5.555   1.020  0.6439 -0.4162  2.5564
18878TIP3    H278126   4.305   5.585   0.959  0.0872 -0.9521  1.0023
18879TIP3   OH278127   5.166   5.914  14.772  0.0628 -0.1484 -0.3981
18879TIP3    H178128   5.162   5.981  14.841 -1.0606  0.3111 -0.8851
18879TIP3    H278129   5.250   5.870  14.786  0.5704  0.9978  0.2688
18880TIP3   OH278130   4.017   6.668   5.884  0.1185  0.3170 -0.6554
18880TIP3    H178131   3.961   6.746   5.879  0.5829  0.6943 -0.0937
18880TIP3    H278132   4.032   6.655   5.978  2.4028  1.2845 -0.8108
18881TIP3   OH278133   4.398   3.107   4.211 -0.0738  0.3373  0.0339
18881TIP3    H178134   4.417   3.179   4.151  0.3362  1.1476  1.0842
18881TIP3    H278135   4.484   3.073   4.235 -0.2186  0.1779  0.3331
18882TIP3   OH278136   0.873   2.507   2.530  0.1548 -0.1780  0.8527
18882TIP3    H178137   0.955   2.468   2.558  0.2103 -0.1321  0.7577
18882TIP3    H278138   0.899   2.586   2.483 -0.0066  0.5998  2.0442
18883TIP3   OH278139   2.380   1.315   6.248 -0.2728 -0.2492  0.9038
18883TIP3    H178140   2.315   1.315   6.318 -2.0180 -0.0328 -0.6603
18883TIP3    H278141   2.442   1.247   6.273 -1.4307 -0.8830  2.1427
18884TIP3   OH278142   2.306   2.069   4.079  0.6960  0.4030  0.0333
18884TIP3    H178143   2.392   2.054   4.039  0.9074  1.4844  0.0603
18884TIP3    H278144   2.314   2.153   4.123  0.6082 -0.9383  2.7986
18885TIP3   OH278145   5.037   4.942   4.004 -0.0924 -0.3786  0.1587
18885TIP3    H178146   4.990   4.876   3.953 -2.1888  1.7592 -0.8355
18885TIP3    H278147   4.982   4.958   4.080  0.5909 -0.0324  0.5970
18886TIP3   OH278148   0.816   6.285   2.477  0.0018  0.0149 -0.1263
18886TIP3    H178149   0.802   6.191   2.472 -0.3736  0.0023  1.0000
18886TIP3    H278150   0.808   6.306   2.570  0.5494  1.0864 -0.3079
18887TIP3   OH278151   2.947   1.653  13.987  0.2991 -0.1040  0.3050
18887TIP3    H178152   2.973   1.681  13.899 -0.0818  0.5646  0.4001
18887TIP3    H278153   2.922   1.733  14.032 -1.8388 -0.6574  0.2304
18888TIP3   OH278154   1.114   5.100  12.108 -0.2422 -0.3661 -0.6936
18888TIP3    H178155   1.036   5.156  12.113  0.3442  0.3543  0.8544
18888TIP3    H278156   1.161   5.132  12.031 -0.1327  1.0057 -0.0765
18889TIP3   OH278157   0.969   2.056   1.498 -0.5661  0.4341  0.4662
18889TIP3    H178158   0.873   2.047   1.490 -0.4179 -0.4727 -0.7283
18889TIP3    H278159   0.992   2.124   1.435 -0.3362 -0.0983 -0.0432
18890TIP3   OH278160   2.708   0.435  12.498  0.0227  0.5576  0.8921
18890TIP3    H178161   2.774   0.498  12.527  0.6998  0.0906  0.4182
18890TIP3    H278162   2.630   0.487  12.482  0.0356  1.0131  2.2058
18891TIP3   OH278163   2.489   6.533   5.820 -0.1811 -0.0461 -0.1278
18891TIP3    H178164   2.480   6.527   5.725 -1.2964  1.8649 -0.1959
18891TIP3    H278165   2.489   6.627   5.839 -1.8528 -0.3742  1.9071
18892TIP3   OH278166   0.145   3.747   3.080  0.3388  0.3132 -0.2042
18892TIP3    H178167   0.191   3.668   3.052 -2.2694 -1.0832 -0.8461
18892TIP3    H278168   0.055   3.718   3.095 -0.3874  2.9013  0.9260
18893TIP3   OH278169   3.401   0.505   3.597  0.5823 -0.5374 -0.0313
18893TIP3    H178170   3.377   0.585   3.644 -0.8673  0.7844 -2.7583
18893TIP3    H278171   3.342   0.438   3.633  0.0845  0.2084  0.5767
18894TIP3   OH278172   6.153   5.178   4.355  0.8817 -0.4206 -0.2903
18894TIP3    H178173   6.162   5.271   4.335 -0.4313 -0.4902 -1.4144
18894TIP3    H278174   6.113   5.140   4.276  0.9072 -1.8378  0.3382
18895TIP3   OH278175   2.611   0.740  17.288 -0.0502  0.1010 -0.0195
18895TIP3    H178176   2.577   0.824  17.318 -0.9563 -0.5046  0.7313
18895TIP3    H278177   2.532   0.687  17.272  0.4933 -1.2692  1.5027
18896TIP3   OH278178   0.127   3.430  12.548 -0.1092  0.6995 -0.1966
18896TIP3    H178179   0.222   3.445  12.555  0.1342 -0.5036 -0.5898
18896TIP3    H278180   0.087   3.505  12.592  1.0035  1.7300 -0.8944
18897TIP3   OH278181   6.056   1.395   5.787  0.1370 -0.7984 -0.7220
18897TIP3    H178182   5.998   1.424   5.857 -0.7037  1.7703 -2.3659
18897TIP3    H278183   6.006   1.327   5.741 -0.7893  0.0179 -0.9477
18898TIP3   OH278184   0.621   5.716   6.199 -0.7626 -0.7223  0.0757
18898TIP3    H178185   0.666   5.784   6.249  0.1237 -0.4874 -1.0008
18898TIP3    H278186   0.649   5.634   6.241  1.8455 -0.6892 -1.3297
18899TIP3   OH278187   3.397   1.162  12.945 -0.1736 -0.5961 -0.4172
18899TIP3    H178188   3.429   1.233  13.001 -1.2672 -0.8063  0.5227
18899TIP3    H278189   3.304   1.180  12.935  0.0134 -0.4920 -2.3309
18900TIP3   OH278190   2.453   1.246  15.252  0.6152  0.2297 -0.3102
18900TIP3    H178191   2.506   1.304  15.197  0.7412  1.2099  0.8196
18900TIP3    H278192   2.487   1.258  15.340 -0.1517 -0.6818  0.1293
18901TIP3   OH278193   0.686   3.245  11.629  0.1311 -0.2253 -0.1271
18901TIP3    H178194   0.659   3.284  11.546  1.6249 -0.4226 -0.7383
18901TIP3    H278195   0.610   3.257  11.687 -0.3706  1.3352 -1.0345
18902TIP3   OH278196   4.686   6.135   0.283 -0.1439  0.3144  0.1278
18902TIP3    H178197   4.640   6.136   0.199  0.4582 -0.9745 -0.2416
18902TIP3    H278198   4.644   6.064   0.332  0.5319  0.0433  0.3169
18903TIP3   OH278199   5.967   0.208  14.961 -0.1511  0.4050 -0.3389
18903TIP3    H178200   5.884   0.248  14.987 -0.3778 -0.3247  0.0802
18903TIP3    H278201   5.942   0.123  14.926  0.4431  0.0872 -0.0051
18904TIP3   OH278202   3.599   2.292   4.851 -0.0906 -0.2015  0.5326
18904TIP3    H178203   3.592   2.327   4.940  1.7676 -1.5855  1.2844
18904TIP3    H278204   3.646   2.360   4.802  3.5064 -1.4192  1.9801
18905TIP3   OH278205   1.516   3.204   4.414  0.1648 -0.5593  0.9283
18905TIP3    H178206   1.569   3.130   4.388  0.8226  0.8193 -2.0867
18905TIP3    H278207   1.429   3.167   4.430  0.7668 -2.1214  0.7436
18906TIP3   OH278208   2.619   5.475  16.850  0.0532 -0.0865 -0.2147
18906TIP3    H178209   2.562   5.480  16.927  0.3870 -3.9747  0.4928
18906TIP3    H278210   2.563   5.441  16.781  0.2602  1.4938 -1.2295
18907TIP3   OH278211   1.425   5.183  12.113  0.1977  0.0409 -0.1261
18907TIP3    H178212   1.363   5.134  12.059  0.6759  0.2286 -0.8562
18907TIP3    H278213   1.422   5.140  12.198  0.2279 -0.9351 -0.6084
18908TIP3   OH278214   6.458   4.231  16.527 -0.4022 -0.2317  0.6627
18908TIP3    H178215   6.520   4.291  16.569  2.4501 -1.9272 -0.7698
18908TIP3    H278216   6.498   4.144  16.538 -1.7870 -1.2552 -1.6192
18909TIP3   OH278217   3.836   1.455   1.382  0.1435  0.7897  0.1601
18909TIP3    H178218   3.911   1.395   1.382 -0.7233 -0.3365 -0.1007
18909TIP3    H278219   3.807   1.455   1.291 -0.6999  0.5149  0.4210
18910TIP3   OH278220   6.032   0.241  17.110  0.2602 -0.7816  0.1822
18910TIP3    H178221   5.979   0.167  17.140 -1.1006  0.3023  0.5589
18910TIP3    H278222   6.076   0.271  17.189 -0.3440 -0.2986  0.3475
18911TIP3   OH278223   0.896   4.370   2.383  0.5008 -0.1033 -0.3052
18911TIP3    H178224   0.922   4.439   2.443  0.6704 -0.0797 -0.4066
18911TIP3    H278225   0.800   4.376   2.379  0.4026 -0.7147  0.7035
18912TIP3   OH278226   0.904   4.709  13.856  0.2017  0.7368 -0.4110
18912TIP3    H178227   0.857   4.724  13.938  0.4186  1.5041 -0.4165
18912TIP3    H278228   0.970   4.643  13.878  1.5472  2.3408  0.5574
18913TIP3   OH278229   5.873   2.218  14.661  0.2320 -0.2983 -0.8723
18913TIP3    H178230   5.805   2.180  14.717  1.0216  0.2056  0.4899
18913TIP3    H278231   5.825   2.265  14.593 -0.8640  1.3768  0.9466
18914TIP3   OH278232   5.060   4.286   4.333 -0.8986 -0.0301 -0.2289
18914TIP3    H178233   5.116   4.208   4.330  0.3791  0.8669 -1.5113
18914TIP3    H278234   5.084   4.335   4.254 -1.7511  1.6065  0.4835
18915TIP3   OH278235   0.912   1.859  11.653 -0.2343 -0.3189 -0.4068
18915TIP3    H178236   0.945   1.847  11.564 -0.1647 -0.6542 -0.3362
18915TIP3    H278237   0.986   1.837  11.709 -0.3466 -0.3326 -0.2642
18916TIP3   OH278238   0.364   1.515   0.784  0.6549  0.5081  0.2134
18916TIP3    H178239   0.277   1.479   0.800 -0.5608  2.9645 -0.3223
18916TIP3    H278240   0.383   1.492   0.694 -0.9032  2.5719 -0.7181
18917TIP3   OH278241   1.744   2.376  12.774  0.0534 -0.0965 -0.0823
18917TIP3    H178242   1.750   2.472  12.765 -0.4810  0.2187  2.3748
18917TIP3    H278243   1.818   2.343  12.722  0.5974  1.6690 -0.5169
18918TIP3   OH278244   4.515   6.314  15.492  0.6099  0.1367  0.7575
18918TIP3    H178245   4.442   6.321  15.554  0.3374 -0.7317  0.5527
18918TIP3    H278246   4.528   6.220  15.481  2.6200  0.2434  1.7867
18919TIP3   OH278247   0.905   3.968  15.120  0.4883 -0.6011  0.5571
18919TIP3    H178248   0.891   3.887  15.169  0.0532  0.3453  2.0391
18919TIP3    H278249   0.817   3.995  15.092  0.6093 -0.5054  0.2601
18920TIP3   OH278250   1.134   6.436   5.772 -0.1293  0.3913  0.2795
18920TIP3    H178251   1.087   6.499   5.827 -2.6576 -1.0698 -0.0194
18920TIP3    H278252   1.079   6.358   5.773 -1.1743  0.5872 -5.2266
18921TIP3   OH278253   4.292   2.617   5.362  0.0533  0.1087 -0.1806
18921TIP3    H178254   4.337   2.701   5.361  0.7483 -0.2243  1.0152
18921TIP3    H278255   4.218   2.630   5.421  0.0303 -0.0493 -0.1718
18922TIP3   OH278256   6.660   6.026   2.620  0.0857  0.5117  0.6604
18922TIP3    H178257   6.717   6.011   2.695 -0.4756 -1.1800  0.7862
18922TIP3    H278258   6.701   5.979   2.548 -1.0212 -0.5843  0.7099
18923TIP3   OH278259   6.615   6.548   5.596  0.0370 -0.0830 -0.2579
18923TIP3    H178260   6.681   6.531   5.528 -0.4649 -0.6936 -0.6000
18923TIP3    H278261   6.653   6.618   5.649  2.2665 -2.2568  1.2606
18924TIP3   OH278262   0.458   2.660  12.233 -0.2303 -0.2835 -0.5232
18924TIP3    H178263   0.546   2.686  12.260 -1.5595  2.2995  1.8682
18924TIP3    H278264   0.456   2.677  12.139  1.5227  0.5750 -0.4516
18925TIP3   OH278265   0.653   4.585   0.795  0.5312  0.0377  0.5512
18925TIP3    H178266   0.599   4.663   0.806 -0.0235 -0.2742  0.0730
18925TIP3    H278267   0.666   4.578   0.700  0.8884 -0.2430  0.6185
18926TIP3   OH278268   0.563   1.802   3.266  0.0288 -0.1427  0.3598
18926TIP3    H178269   0.514   1.760   3.197  0.4003 -1.0428  0.6347
18926TIP3    H278270   0.521   1.888   3.277  0.3467  0.2619 -1.3788
18927TIP3   OH278271   4.520   2.521  16.725  0.7032  0.1372  0.0898
18927TIP3    H178272   4.506   2.550  16.815 -0.0124  0.9981 -0.2738
18927TIP3    H278273   4.515   2.426  16.729 -2.6314  0.1875  0.5104
18928TIP3   OH278274   5.259   0.187  14.464  0.1456 -0.1081  0.5097
18928TIP3    H178275   5.295   0.275  14.469 -0.5827  0.5306 -2.9396
18928TIP3    H278276   5.318   0.140  14.405  0.7599 -2.1835  2.5868
18929TIP3   OH278277   1.713   4.165   1.669  0.0011 -0.4169 -0.5618
18929TIP3    H178278   1.653   4.229   1.706 -1.1932 -0.6041 -2.1077
18929TIP3    H278279   1.692   4.083   1.714  0.3899 -0.1080  0.2103
18930TIP3   OH278280   4.795   1.980  15.754 -0.1628 -0.3625  0.4630
18930TIP3    H178281   4.852   1.992  15.677  0.0271  0.6182  0.7445
18930TIP3    H278282   4.811   2.057  15.808 -1.4578 -0.2762  0.7512
18931TIP3   OH278283   0.386   5.268  12.573 -0.0066 -0.2904  0.4322
18931TIP3    H178284   0.328   5.235  12.505 -0.5781 -0.8315  1.1680
18931TIP3    H278285   0.360   5.221  12.652  0.2081  0.8005  1.1715
18932TIP3   OH278286   3.841   0.069   0.010 -0.5614  0.1676 -0.0882
18932TIP3    H178287   3.817   0.047  -0.080 -0.7734  0.4330 -0.0961
18932TIP3    H278288   3.886   0.153   0.003  0.9170 -0.5851 -0.1520
18933TIP3   OH278289   3.784   4.456   6.268  0.1785  0.2715 -0.5314
18933TIP3    H178290   3.699   4.447   6.225  0.6230  2.0695 -1.9015
18933TIP3    H278291   3.772   4.525   6.333  0.4318  0.0716 -0.2678
18934TIP3   OH278292   3.175   5.701   2.694 -0.0343 -0.0796 -0.1670
18934TIP3    H178293   3.263   5.696   2.730  0.7443  0.9907 -1.7901
18934TIP3    H278294   3.159   5.614   2.658  0.6373 -0.0967 -0.4430
18935TIP3   OH278295   1.064   4.090   5.313 -0.7816 -0.2371  0.0055
18935TIP3    H178296   1.052   4.121   5.403 -0.2814 -2.3585  0.8619
18935TIP3    H278297   0.986   4.038   5.295 -0.3514 -0.7656 -0.3576
18936TIP3   OH278298   4.956   2.590   0.978  0.8763 -0.2776 -0.4923
18936TIP3    H178299   4.876   2.643   0.983  0.0860 -1.5168  1.2617
18936TIP3    H278300   4.981   2.592   0.886  0.2755  2.2059 -0.6554
18937TIP3   OH278301   4.489   0.576  16.609  0.3640 -0.0523 -0.4036
18937TIP3    H178302   4.582   0.586  16.588  0.3542 -0.1902 -0.5073
18937TIP3    H278303   4.465   0.660  16.648  0.2808  0.3518 -1.3037
18938TIP3   OH278304   0.276   2.013  13.859 -0.5887 -0.4274 -0.2684
18938TIP3    H178305   0.285   1.962  13.939  0.1593  0.7149  0.4127
18938TIP3    H278306   0.323   1.962  13.793 -0.2075 -0.8239  0.2971
18939TIP3   OH278307   3.850   2.993  14.606  0.2712 -0.1685 -0.3816
18939TIP3    H178308   3.765   2.985  14.649 -0.0939 -0.4057 -1.1201
18939TIP3    H278309   3.912   3.005  14.677 -0.4031  0.1935  0.1570
18940TIP3   OH278310   4.160   3.953  12.995  0.1217 -0.1490  0.0124
18940TIP3    H178311   4.237   3.928  13.045  0.2713  1.0171  0.4054
18940TIP3    H278312   4.104   3.876  12.996  1.4986 -1.1993 -0.7349
18941TIP3   OH278313   1.574   1.084  14.819 -0.0624  0.4153  0.2159
18941TIP3    H178314   1.604   1.170  14.791 -0.9177  0.2653 -1.2713
18941TIP3    H278315   1.598   1.025  14.747 -1.4145 -0.1716  0.2052
18942TIP3   OH278316   4.334   5.888  15.808 -0.2769 -0.1137 -0.3742
18942TIP3    H178317   4.292   5.822  15.863 -0.6915  1.2902  1.0868
18942TIP3    H278318   4.423   5.856  15.795 -0.1936 -0.5482  1.0668
18943TIP3   OH278319   0.658   0.794  15.060  0.5513  0.6866  0.6932
18943TIP3    H178320   0.613   0.759  14.984 -1.5300  0.3623  1.9886
18943TIP3    H278321   0.751   0.780  15.042  0.0664 -0.3387 -1.2817
18944TIP3   OH278322   5.395   4.785  16.516 -0.4870  0.5463 -0.7215
18944TIP3    H178323   5.339   4.825  16.583  2.4078  0.3196  2.1193
18944TIP3    H278324   5.395   4.692  16.539  0.6646  0.4912 -0.9166
18945TIP3   OH278325   2.775   3.074   2.471 -0.1533 -0.2819 -0.7252
18945TIP3    H178326   2.815   3.053   2.386  0.3157  0.3143 -0.6618
18945TIP3    H278327   2.830   3.031   2.536  0.5066  0.6743 -0.6279
18946TIP3   OH278328   4.863   6.014   3.336 -0.0558  0.3040 -0.3295
18946TIP3    H178329   4.891   5.938   3.285 -0.1963  0.1182 -0.1278
18946TIP3    H278330   4.889   6.089   3.282  1.7124  0.1754  0.2824
18947TIP3   OH278331   4.827   5.360   3.639  0.0792  0.2707 -0.1714
18947TIP3    H178332   4.902   5.371   3.699  0.3611 -0.9401 -0.2752
18947TIP3    H278333   4.859   5.299   3.573 -0.9749 -0.1766 -0.2760
18948TIP3   OH278334   5.680   1.053   1.096  0.2792  0.4426 -0.2907
18948TIP3    H178335   5.713   1.131   1.141  3.0241  0.7075 -2.4847
18948TIP3    H278336   5.720   1.057   1.009 -2.3901 -1.5587 -1.7631
18949TIP3   OH278337   6.684   0.400  15.940 -0.0078  0.4919 -0.4391
18949TIP3    H178338   6.730   0.322  15.910 -1.6515 -0.8363  0.3333
18949TIP3    H278339   6.714   0.413  16.030  0.1945  0.7153 -0.5356
18950TIP3   OH278340   6.047   5.738  16.593  0.4729 -0.4297  0.1700
18950TIP3    H178341   6.033   5.675  16.664  2.4634 -1.1162  0.0066
18950TIP3    H278342   6.121   5.790  16.622 -0.4194  1.1057 -0.2249
18951TIP3   OH278343   0.395   0.945  12.325  0.3549 -0.3242 -0.1392
18951TIP3    H178344   0.463   0.979  12.266 -0.2127 -1.0336 -1.2447
18951TIP3    H278345   0.419   0.853  12.337  0.1812 -0.3072  0.3217
18952TIP3   OH278346   5.981   6.104   2.618  0.2168 -0.0134 -0.1379
18952TIP3    H178347   6.054   6.074   2.563 -0.5385 -0.8025 -0.7407
18952TIP3    H278348   5.907   6.108   2.558 -0.5198 -0.4401  0.7383
18953TIP3   OH278349   3.882   1.060  12.639 -0.2168  0.6368 -0.1570
18953TIP3    H178350   3.939   1.029  12.710  0.3796  3.3031  0.6437
18953TIP3    H278351   3.833   1.132  12.678 -1.9474  0.3686 -1.7215
18954TIP3   OH278352   2.372   2.325  12.994  0.2175 -0.5146  0.2543
18954TIP3    H178353   2.377   2.420  13.002  2.4675 -0.6131  0.8487
18954TIP3    H278354   2.423   2.306  12.915 -0.1887 -1.2345  0.1587
18955TIP3   OH278355   0.505   0.898   2.868 -0.4141 -0.2361 -0.0069
18955TIP3    H178356   0.419   0.862   2.891  0.0917 -1.7882 -0.4247
18955TIP3    H278357   0.545   0.831   2.813  2.6526 -1.5436  3.3553
18956TIP3   OH278358   4.670   4.620   2.775 -0.0573  0.0977 -0.0223
18956TIP3    H178359   4.623   4.624   2.858  0.7947  2.1076  0.4308
18956TIP3    H278360   4.715   4.536   2.776 -1.9955 -1.0049  0.4090
18957TIP3   OH278361   1.878   3.884   1.489 -0.4420 -0.1496 -0.0792
18957TIP3    H178362   1.945   3.837   1.439  1.8477  1.1064  1.6067
18957TIP3    H278363   1.881   3.845   1.576 -1.7015  0.1684  0.1279
18958TIP3   OH278364   6.666   3.526  13.556 -0.0668  0.7033 -0.8530
18958TIP3    H178365   6.679   3.582  13.633  0.4732  0.0880 -0.4848
18958TIP3    H278366   6.610   3.578  13.498  1.0480  1.9521 -0.8661
18959TIP3   OH278367   4.087   0.867   3.755  0.4403  0.7251  0.4308
18959TIP3    H178368   4.166   0.813   3.761  1.2284  1.9778  2.4026
18959TIP3    H278369   4.032   0.836   3.827 -2.0515 -1.7440 -2.2943
18960TIP3   OH278370   3.734   2.382  12.232  0.7970  0.0786  0.1767
18960TIP3    H178371   3.800   2.318  12.205  0.2257  0.1516 -1.4656
18960TIP3    H278372   3.687   2.404  12.152 -0.4631  0.9142  1.1059
18961TIP3   OH278373   0.995   2.128   4.449  0.1663 -0.7994 -0.6348
18961TIP3    H178374   1.016   2.128   4.356  0.3611 -0.0647 -0.5989
18961TIP3    H278375   1.057   2.190   4.487 -1.0090  0.1874 -0.2733
18962TIP3   OH278376   6.704   4.330  16.997 -0.2667  0.3082  0.1993
18962TIP3    H178377   6.614   4.362  16.996  0.1390  1.5022  0.2625
18962TIP3    H278378   6.731   4.337  17.088 -0.3837 -0.8868  0.3377
18963TIP3   OH278379   1.391   1.753  13.638  0.6366  0.1918 -0.2957
18963TIP3    H178380   1.368   1.688  13.571  2.3998 -0.9550  0.1370
18963TIP3    H278381   1.478   1.725  13.668  0.8011  1.9453  0.9348
18964TIP3   OH278382   4.524   0.898  16.406  0.0215 -1.0571  0.0160
18964TIP3    H178383   4.477   0.848  16.472  1.4440 -1.1335  1.0057
18964TIP3    H278384   4.492   0.863  16.322 -3.5644  0.6340  0.4993
18965TIP3   OH278385   2.153   1.179  11.380  0.2702 -0.6072  0.0702
18965TIP3    H178386   2.163   1.107  11.318  2.2981 -1.1974  1.0039
18965TIP3    H278387   2.202   1.151  11.457 -0.9892  0.7261  1.4164
18966TIP3   OH278388   5.858   1.250   3.874  0.4782  0.3249  0.4563
18966TIP3    H178389   5.874   1.313   3.805  0.3331  1.9884  1.8758
18966TIP3    H278390   5.817   1.301   3.944 -1.1313 -1.6541  1.0585
18967TIP3   OH278391   1.253   2.628  13.225 -0.1361  0.2397  0.2371
18967TIP3    H178392   1.285   2.712  13.258  1.0492  0.8583 -2.2022
18967TIP3    H278393   1.309   2.563  13.266  2.0785  1.0644 -1.2817
18968TIP3   OH278394   2.650   0.760   4.469 -0.3342 -0.0444  0.3043
18968TIP3    H178395   2.641   0.686   4.409 -0.2394 -0.7716  1.1700
18968TIP3    H278396   2.563   0.772   4.506 -0.5129  0.7326 -0.3433
18969TIP3   OH278397   0.300   6.631  16.211 -0.4000  0.7310 -0.8275
18969TIP3    H178398   0.373   6.658  16.155  0.0064  0.9392 -0.2067
18969TIP3    H278399   0.341   6.611  16.296 -1.0705  0.9028 -0.4603
18970TIP3   OH278400   4.361   2.144   2.904  0.2249 -0.1875  0.5829
18970TIP3    H178401   4.339   2.237   2.914  3.4163  0.6529  0.9571
18970TIP3    H278402   4.311   2.101   2.974 -0.4500  1.4025  1.1482
18971TIP3   OH278403   4.041   5.303  11.602  0.2623 -1.1413  0.0599
18971TIP3    H178404   4.071   5.343  11.683 -2.1047 -1.0891  0.9882
18971TIP3    H278405   4.019   5.213  11.626 -1.4348 -0.8411 -0.2150
18972TIP3   OH278406   1.610   3.064  13.938 -0.3756  0.0544 -0.4240
18972TIP3    H178407   1.568   3.038  14.020 -0.4611  0.4247 -0.3471
18972TIP3    H278408   1.629   2.982  13.893  1.4962 -0.2889  0.8621
18973TIP3   OH278409   4.779   2.068  11.740  0.2586 -0.3621  0.0668
18973TIP3    H178410   4.803   2.153  11.775  1.2772  0.1540 -1.7464
18973TIP3    H278411   4.781   2.009  11.815  0.3122  1.0513  1.2030
18974TIP3   OH278412   6.085   1.104  16.543 -0.1082 -0.2960  0.2127
18974TIP3    H178413   6.027   1.028  16.542 -0.7601  0.1041  2.2076
18974TIP3    H278414   6.033   1.173  16.585  1.1428  0.6526  0.2581
18975TIP3   OH278415   5.545   0.947   4.378 -0.3034 -0.1020  0.2062
18975TIP3    H178416   5.543   1.020   4.316  0.1236  1.3266  1.7908
18975TIP3    H278417   5.587   0.983   4.456 -0.3215 -1.9868  1.1490
18976TIP3   OH278418   0.098   0.830   1.997 -0.2961  0.1275 -0.3496
18976TIP3    H178419   0.110   0.755   1.939  0.9131  0.1318 -0.1344
18976TIP3    H278420   0.123   0.906   1.944 -0.1879  0.2353 -0.1462
18977TIP3   OH278421   2.544   6.526  12.303 -0.4679 -0.0666  0.6031
18977TIP3    H178422   2.560   6.618  12.283 -1.5804  0.0832  0.3317
18977TIP3    H278423   2.608   6.505  12.371  0.7226  0.5170 -0.2922
18978TIP3   OH278424   1.250   0.610   0.442 -0.0043 -0.0718  0.2418
18978TIP3    H178425   1.183   0.626   0.376 -0.7508 -0.2455  0.9405
18978TIP3    H278426   1.320   0.566   0.395 -0.9111 -1.0146 -0.2551
18979TIP3   OH278427   5.534   6.793   2.928  0.0546  0.0946 -0.1349
18979TIP3    H178428   5.538   6.791   3.024  0.3314  0.0137 -0.1485
18979TIP3    H278429   5.460   6.737   2.906 -0.6286  0.8843  0.0733
18980TIP3   OH278430   0.459   0.622  11.501  0.0375 -0.6352  0.0129
18980TIP3    H178431   0.441   0.666  11.584 -1.0215 -0.1107 -0.4818
18980TIP3    H278432   0.552   0.598  11.507  0.1192 -0.1239  1.1138
18981TIP3   OH278433   2.468   1.877   0.488 -0.2672 -0.3785  0.1559
18981TIP3    H178434   2.420   1.878   0.571  0.2265  3.9493  0.5955
18981TIP3    H278435   2.411   1.924   0.427 -0.4924 -3.2341 -2.0545
18982TIP3   OH278436   5.478   4.921   0.391 -0.1139 -0.1111 -0.1857
18982TIP3    H178437   5.540   4.881   0.331  0.4922 -0.9988  0.9862
18982TIP3    H278438   5.508   4.894   0.478 -1.6543  0.1439  0.4577
18983TIP3   OH278439   2.080   1.786  16.082  0.1180 -0.2330 -0.2377
18983TIP3    H178440   2.131   1.849  16.031  0.2053 -0.5440 -0.5326
18983TIP3    H278441   2.018   1.841  16.131  1.2616  0.2280  0.7571
18984TIP3   OH278442   3.386   6.289  11.537  0.5025 -0.4341 -0.2326
18984TIP3    H178443   3.446   6.218  11.515  2.3177  1.3409 -1.4181
18984TIP3    H278444   3.441   6.354  11.581 -0.9952  0.4300  0.4574
18985TIP3   OH278445   6.391   4.495   2.103  0.0345 -0.1082  0.0278
18985TIP3    H178446   6.380   4.423   2.041  1.8395  0.3410 -0.8625
18985TIP3    H278447   6.326   4.560   2.076  0.4332 -0.1445 -1.0853
18986TIP3   OH278448   1.987   5.690  10.968  0.2646  0.4282 -0.5127
18986TIP3    H178449   1.936   5.769  10.982  0.9996  0.9837 -0.8784
18986TIP3    H278450   2.011   5.661  11.057 -0.3931  0.3498 -0.3590
18987TIP3   OH278451   2.188   5.022  15.802 -0.1450  0.4290  0.1125
18987TIP3    H178452   2.155   5.095  15.854  0.0630 -0.0611  0.9551
18987TIP3    H278453   2.125   5.012  15.731 -2.8033 -1.5160  2.5348
18988TIP3   OH278454   6.618   3.396  12.834  0.0598  0.2743 -0.2628
18988TIP3    H178455   6.701   3.433  12.864  0.8012  0.1474 -2.0576
18988TIP3    H278456   6.553   3.463  12.854  0.6606  0.5924  0.6864
18989TIP3   OH278457   5.400   1.422   3.532  0.5184 -0.2574 -0.2281
18989TIP3    H178458   5.409   1.333   3.564  3.2301 -0.0743 -0.3068
18989TIP3    H278459   5.486   1.461   3.542  0.0660  1.5958 -2.5146
18990TIP3   OH278460   2.620   0.901   0.664 -0.5626 -0.9645  0.4886
18990TIP3    H178461   2.611   0.929   0.755  0.7771 -2.8535  1.2785
18990TIP3    H278462   2.543   0.938   0.620 -1.0733  0.2776  2.2961
18991TIP3   OH278463   0.105   6.807   0.043  0.0443 -0.2770 -0.3108
18991TIP3    H178464   0.053   6.883   0.068  2.4340  1.5643 -0.6196
18991TIP3    H278465   0.121   6.819  -0.051  0.6026 -1.0808 -0.3295
18992TIP3   OH278466   1.498   2.895   6.475  0.6638 -0.1223  0.5936
18992TIP3    H178467   1.471   2.865   6.388  2.1530  1.4561 -0.4846
18992TIP3    H278468   1.415   2.912   6.521 -0.1500 -1.7069 -0.2098
18993TIP3   OH278469   4.706   2.250  10.315  0.3510  0.1251 -0.4931
18993TIP3    H178470   4.761   2.277  10.389 -1.1737  2.4361 -0.1168
18993TIP3    H278471   4.673   2.332  10.278 -2.1148 -1.1191 -1.2664
18994TIP3   OH278472   4.219   2.377   2.830 -0.1341  0.2118 -0.1461
18994TIP3    H178473   4.125   2.357   2.829 -0.1620  0.3594 -1.1180
18994TIP3    H278474   4.251   2.350   2.744  1.0227 -1.2000  0.6812
18995TIP3   OH278475   6.009   5.481   3.858  0.5108 -0.3495  0.6876
18995TIP3    H178476   5.961   5.496   3.776  0.8950  1.0839  0.6930
18995TIP3    H278477   6.055   5.564   3.873  1.0895 -0.8884  1.9275
18996TIP3   OH278478   3.717   1.713   6.110 -0.5992  0.5842  0.1945
18996TIP3    H178479   3.681   1.802   6.102  2.0747  1.8083  0.5561
18996TIP3    H278480   3.770   1.702   6.031 -1.2244 -0.8877 -0.0442
18997TIP3   OH278481   3.662   6.610   3.501 -0.0930 -0.5171  0.1311
18997TIP3    H178482   3.680   6.586   3.410 -1.3294 -2.1496  0.2650
18997TIP3    H278483   3.713   6.547   3.553  0.0202 -0.0750  0.5640
18998TIP3   OH278484   5.866   5.386   2.775  0.2756 -0.1917 -0.4700
18998TIP3    H178485   5.877   5.431   2.691 -0.5932  1.3355  0.1914
18998TIP3    H278486   5.945   5.406   2.825  0.0466  0.3179 -0.3085
18999TIP3   OH278487   5.807   0.752   4.637  0.3992 -0.9080 -0.2261
18999TIP3    H178488   5.787   0.682   4.574 -0.5828  0.3548 -1.3970
18999TIP3    H278489   5.817   0.830   4.583 -0.1975  0.1790  1.1749
19000TIP3   OH278490   1.624   6.508   5.843 -0.2185 -0.4686 -0.5238
19000TIP3    H178491   1.688   6.579   5.855 -2.9776  1.9356  1.5259
19000TIP3    H278492   1.570   6.538   5.771 -0.5905 -1.1883 -0.5455
19001TIP3   OH278493   0.506   6.247   1.177  0.1676 -0.1234  0.5159
19001TIP3    H178494   0.531   6.204   1.095  2.2366  0.4358  0.8127
19001TIP3    H278495   0.411   6.235   1.182  0.0465 -0.5029 -1.7541
19002TIP3   OH278496   6.740   5.339  14.716  0.1099  0.6905  0.2796
19002TIP3    H178497   6.828   5.345  14.680  0.3728  0.9036  0.9300
19002TIP3    H278498   6.754   5.332  14.811 -0.4655 -2.0091  0.2537
19003TIP3   OH278499   3.839   1.398  13.006  0.0135  0.5062  0.5209
19003TIP3    H178500   3.923   1.353  13.016  0.0833  0.2181 -1.1195
19003TIP3    H278501   3.774   1.331  13.025  0.1358  0.2179 -0.0700
19004TIP3   OH278502   1.537   2.793   3.987  0.3304 -0.0624  0.6535
19004TIP3    H178503   1.557   2.863   3.925  0.7820 -1.6951 -1.1537
19004TIP3    H278504   1.622   2.760   4.014  0.2062 -2.1220 -1.2201
19005TIP3   OH278505   1.437   6.317  10.480  0.0993  0.4348  0.3081
19005TIP3    H178506   1.468   6.230  10.455 -0.6809  0.0815  0.5354
19005TIP3    H278507   1.480   6.335  10.563 -0.3207 -0.0679  0.6436
19006TIP3   OH278508   5.491   3.812   5.293 -0.4855 -0.2823  0.0761
19006TIP3    H178509   5.577   3.796   5.253  0.3890  0.5234  1.5900
19006TIP3    H278510   5.482   3.742   5.358 -1.2248 -0.6574 -0.4077
19007TIP3   OH278511   0.620   5.809  15.211  0.3170 -0.2597  0.3560
19007TIP3    H178512   0.701   5.789  15.164  1.9476  1.1670  2.3420
19007TIP3    H278513   0.576   5.874  15.157  0.4059 -1.1772 -0.8397
19008TIP3   OH278514   6.004   4.795   5.856  0.1362 -0.7125 -0.0845
19008TIP3    H178515   6.062   4.783   5.931  0.2513  1.3166  0.2075
19008TIP3    H278516   5.931   4.847   5.889 -0.7320 -1.3136 -0.9769
19009TIP3   OH278517   0.017   0.177  11.558 -0.1911  0.4363  0.3475
19009TIP3    H178518  -0.043   0.143  11.625  1.6172 -0.4818  1.6038
19009TIP3    H278519   0.032   0.102  11.500  1.1736  0.0574  1.1521
19010TIP3   OH278520   0.009   1.024   4.180  0.5029  0.1896  0.2835
19010TIP3    H178521  -0.051   1.096   4.200  0.8665  0.7859 -0.7312
19010TIP3    H278522  -0.048   0.955   4.146  0.3094  0.5229 -0.0798
19011TIP3   OH278523   0.045   4.648   3.013 -0.4471  0.6209  0.5026
19011TIP3    H178524   0.072   4.731   3.052  0.2171  0.6778 -0.0605
19011TIP3    H278525   0.020   4.671   2.923  3.4484 -0.2996 -0.9893
19012TIP3   OH278526   4.946   2.664   3.616  0.0195 -0.5825 -0.3227
19012TIP3    H178527   5.017   2.611   3.652 -1.2329 -1.6763  0.6411
19012TIP3    H278528   4.957   2.658   3.521  1.2172 -0.6938 -0.1941
19013TIP3   OH278529   1.193   4.411   3.314  0.1000  0.3445 -0.1123
19013TIP3    H178530   1.225   4.357   3.242 -1.4975  1.8407 -2.0437
19013TIP3    H278531   1.243   4.493   3.307  2.5370 -0.6810  2.8114
19014TIP3   OH278532   0.667   3.450   4.300 -0.0333 -0.9059 -0.8063
19014TIP3    H178533   0.682   3.520   4.363 -2.2997 -0.9745 -0.1005
19014TIP3    H278534   0.678   3.492   4.214  2.5393 -0.6850 -0.4272
19015TIP3   OH278535   4.718   4.525   0.942 -0.2536  0.1143 -0.0437
19015TIP3    H178536   4.743   4.489   0.857 -0.1129  1.1165 -0.4392
19015TIP3    H278537   4.716   4.620   0.929 -1.9857  0.2043  0.5955
19016TIP3   OH278538   3.258   3.539  11.740 -0.0271  0.2578  0.0802
19016TIP3    H178539   3.164   3.557  11.741 -0.0608  0.0876  0.3267
19016TIP3    H278540   3.292   3.588  11.666 -0.2563  0.5938  0.1972
19017TIP3   OH278541   2.079   6.088  16.480 -0.5082  0.9337  0.0880
19017TIP3    H178542   2.092   6.151  16.410 -0.9499 -0.3973 -1.2668
19017TIP3    H278543   2.095   6.137  16.560 -0.4940  2.6509 -0.9097
19018TIP3   OH278544   2.305   4.771   3.296  0.9690  0.0994 -0.4916
19018TIP3    H178545   2.218   4.781   3.256  0.4175 -0.1981  0.5881
19018TIP3    H278546   2.348   4.704   3.243 -0.8024 -2.4173  1.0331
19019TIP3   OH278547   0.747   0.488   1.662  0.1982  0.4353 -0.2990
19019TIP3    H178548   0.824   0.525   1.617 -0.3357  0.8943 -0.8500
19019TIP3    H278549   0.685   0.561   1.668 -1.4765 -0.6547 -2.7255
19020TIP3   OH278550   6.191   3.797  17.268 -0.3060 -0.4348 -0.0542
19020TIP3    H178551   6.224   3.708  17.256 -1.5833 -0.8288 -0.7865
19020TIP3    H278552   6.178   3.805  17.363  1.0812 -0.5372  0.1681
19021TIP3   OH278553   4.474   3.223  16.573 -0.1293  0.6098  0.3127
19021TIP3    H178554   4.478   3.253  16.664 -0.4914  2.8003 -0.3464
19021TIP3    H278555   4.479   3.303  16.521 -0.2617 -0.5760 -1.6094
19022TIP3   OH278556   4.387   4.601   1.106 -0.5274  0.0683 -0.4328
19022TIP3    H178557   4.357   4.631   1.020 -0.3450  1.3466 -0.0752
19022TIP3    H278558   4.387   4.506   1.099 -0.7762  0.1371 -1.7603
19023TIP3   OH278559   0.896   6.461  13.446 -0.0169 -0.3856  0.2904
19023TIP3    H178560   0.949   6.539  13.460 -1.1231  0.3904  0.2918
19023TIP3    H278561   0.837   6.459  13.522 -1.0379 -0.3373 -0.4775
19024TIP3   OH278562   1.097   6.549  15.313 -0.2677  0.1123 -0.2377
19024TIP3    H178563   1.061   6.614  15.373  0.2942  2.3352 -2.1843
19024TIP3    H278564   1.191   6.550  15.329 -0.4258 -2.1285  1.4160
19025TIP3   OH278565   3.129   1.652  11.249  0.0695 -0.0180 -0.1548
19025TIP3    H178566   3.212   1.695  11.228  0.2792 -0.1863  0.3072
19025TIP3    H278567   3.150   1.558  11.251 -0.1854 -0.0790 -0.2746
19026TIP3   OH278568   6.597   4.600   4.673  0.0473  0.2124  0.3940
19026TIP3    H178569   6.507   4.633   4.678 -0.1505 -0.3682  0.7754
19026TIP3    H278570   6.648   4.674   4.641 -0.2294  1.1980  2.1103
19027TIP3   OH278571   0.118   5.245   3.313  0.7304 -0.0250  0.3911
19027TIP3    H178572   0.067   5.268   3.236  1.9970  0.0904 -0.4451
19027TIP3    H278573   0.204   5.284   3.297  1.3490 -0.9525  1.3496
19028TIP3   OH278574   3.515   5.086   0.144 -0.0474  0.2655  0.4685
19028TIP3    H178575   3.516   5.125   0.231 -0.0150 -1.2387  1.1873
19028TIP3    H278576   3.575   5.012   0.150  2.1411  1.7292 -1.6712
19029TIP3   OH278577   3.930   4.625  11.939  0.0242 -0.3740  0.1742
19029TIP3    H178578   3.904   4.534  11.928  0.1242 -0.2636 -1.1381
19029TIP3    H278579   3.946   4.634  12.033  1.9851 -2.2498  0.0908
19030TIP3   OH278580   2.827   5.356   2.588 -0.4590  0.0026 -0.6663
19030TIP3    H178581   2.844   5.402   2.506 -0.5813  0.7196 -0.2937
19030TIP3    H278582   2.773   5.416   2.639 -2.7688 -1.5233 -1.1471
19031TIP3   OH278583   4.660   6.665  12.865  0.1871 -0.3533  0.0269
19031TIP3    H178584   4.585   6.725  12.866  0.4972  0.0957 -1.4099
19031TIP3    H278585   4.691   6.667  12.774  1.3815 -1.2341  0.3946
19032TIP3   OH278586   2.494   3.030   2.300  0.7047 -0.2874 -0.3825
19032TIP3    H178587   2.573   3.007   2.251  1.2533 -0.7737  0.6875
19032TIP3    H278588   2.509   3.121   2.328  1.2327 -0.6100  0.4304
19033TIP3   OH278589   2.622   1.796  15.265 -0.0322  0.3870 -0.0014
19033TIP3    H178590   2.566   1.722  15.286 -0.0401  0.1241 -0.8956
19033TIP3    H278591   2.675   1.810  15.344  0.3579 -0.9210 -0.0075
19034TIP3   OH278592   2.618   0.591   0.952  0.1810  0.0862  0.2491
19034TIP3    H178593   2.543   0.573   0.896  0.3454  2.0897 -0.7260
19034TIP3    H278594   2.657   0.506   0.970 -3.3492 -1.3137  2.3628
19035TIP3   OH278595   2.864   5.175   5.000  0.2557  0.2392  0.0890
19035TIP3    H178596   2.859   5.145   4.909 -1.4067  0.9506 -0.0866
19035TIP3    H278597   2.955   5.159   5.025  0.3760 -1.3852 -1.1955
19036TIP3   OH278598   3.295   5.120   3.875  0.3155  0.3496 -0.3868
19036TIP3    H178599   3.384   5.096   3.852  0.2577 -1.2398  0.8359
19036TIP3    H278600   3.287   5.096   3.968 -1.8741 -1.2429 -0.8927
19037TIP3   OH278601   6.350   3.407   1.043  0.2449  0.0670 -0.0825
19037TIP3    H178602   6.293   3.478   1.070 -2.6645 -2.4379  1.0119
19037TIP3    H278603   6.414   3.399   1.113  0.2764  1.2343  0.0352
19038TIP3   OH278604   4.571   5.127   6.036 -0.0046 -0.7185 -0.2797
19038TIP3    H178605   4.492   5.162   6.076 -0.5159 -0.7279 -1.2484
19038TIP3    H278606   4.601   5.197   5.977  1.3106 -0.2914  0.8423
19039TIP3   OH278607   1.810   3.644  17.188 -0.6517  0.1915  0.0409
19039TIP3    H178608   1.865   3.657  17.111  0.0272 -0.8686  0.3172
19039TIP3    H278609   1.727   3.613  17.153 -0.5711  0.3612 -0.3053
19040TIP3   OH278610   5.314   1.467   1.667 -0.1460  0.3344 -0.2249
19040TIP3    H178611   5.384   1.404   1.646 -0.1952  0.4833 -0.8757
19040TIP3    H278612   5.243   1.444   1.607  0.2430  1.6940 -1.2441
19041TIP3   OH278613   1.421   5.377   6.641  0.3302 -0.3895 -0.3191
19041TIP3    H178614   1.335   5.336   6.637  0.4850 -0.7948  0.4430
19041TIP3    H278615   1.405   5.463   6.680  0.4602 -1.0176  1.1472
19042TIP3   OH278616   5.287   3.950  11.609 -0.4232  0.1240 -0.1615
19042TIP3    H178617   5.355   3.893  11.644 -0.7470 -0.1127  0.0889
19042TIP3    H278618   5.212   3.892  11.596 -0.6134  0.4056 -0.3301
19043TIP3   OH278619   5.525   6.184  13.299  0.4684 -0.1436  0.1113
19043TIP3    H178620   5.575   6.216  13.224 -0.3777 -1.1053 -0.8855
19043TIP3    H278621   5.447   6.239  13.300 -0.7439 -1.7213 -1.2979
19044TIP3   OH278622   0.691   0.230   3.459 -0.4160  0.2882  0.3585
19044TIP3    H178623   0.660   0.300   3.402  1.4698  0.2116 -0.8613
19044TIP3    H278624   0.614   0.176   3.476 -1.5180  1.6442 -0.1526
19045TIP3   OH278625   6.602   1.065   1.116  0.0923  0.0463 -0.4675
19045TIP3    H178626   6.604   1.023   1.030  0.6205  1.4363 -1.1672
19045TIP3    H278627   6.525   1.121   1.114 -0.3456 -0.5103  0.2791
19046TIP3   OH278628   0.386   6.249  12.174 -0.7827 -0.6874 -0.3920
19046TIP3    H178629   0.313   6.216  12.226 -2.2043  2.5116 -0.0882
19046TIP3    H278630   0.456   6.263  12.238  0.4860 -4.2724 -0.7630
19047TIP3   OH278631   3.179   1.086  17.175 -0.0669  0.3452 -0.3193
19047TIP3    H178632   3.258   1.031  17.175 -0.7080 -0.5967 -1.0540
19047TIP3    H278633   3.115   1.036  17.124 -0.7734  1.6336 -0.7208
19048TIP3   OH278634   1.104   6.732   4.333  0.7254 -0.1212  0.3618
19048TIP3    H178635   1.166   6.671   4.293 -0.0827 -1.4341  1.0456
19048TIP3    H278636   1.071   6.686   4.411 -3.2143 -0.7395 -1.4293
19049TIP3   OH278637   3.763   6.565  11.452  0.3493  0.2012 -0.5175
19049TIP3    H178638   3.717   6.497  11.402  1.9140 -2.0027  0.8344
19049TIP3    H278639   3.853   6.533  11.458  0.4254  0.7037  2.9889
19050TIP3   OH278640   5.817   1.867  14.084  0.3757  0.6949  0.8274
19050TIP3    H178641   5.730   1.830  14.099  0.0159  1.2965  0.3087
19050TIP3    H278642   5.844   1.831  13.999  1.2876 -0.6615  1.6571
19051TIP3   OH278643   2.831   3.263  14.586  0.1674  0.3195 -0.1708
19051TIP3    H178644   2.784   3.194  14.632  2.0162 -1.0343 -0.2043
19051TIP3    H278645   2.804   3.254  14.495 -1.0177  0.8880  0.1080
19052TIP3   OH278646   6.516   6.345  14.121  0.1156 -0.5907 -0.3191
19052TIP3    H178647   6.561   6.424  14.091 -0.9113  0.0879 -0.1448
19052TIP3    H278648   6.509   6.290  14.044 -0.3772  0.0962 -0.7750
19053TIP3   OH278649   0.586   5.836  13.723  0.2052 -0.0328 -0.4550
19053TIP3    H178650   0.544   5.921  13.704  1.1250  0.8834  1.3363
19053TIP3    H278651   0.636   5.816  13.645 -0.1004  1.0341 -0.9463
19054TIP3   OH278652   0.596   5.886   2.140 -0.0550  0.5917 -0.5468
19054TIP3    H178653   0.507   5.866   2.168 -0.2658  3.6348  1.3779
19054TIP3    H278654   0.651   5.821   2.185 -1.1185  0.2446  0.2860
19055TIP3   OH278655   5.062   3.962   5.888  0.4114 -0.2027 -0.2438
19055TIP3    H178656   5.000   4.012   5.835 -2.1605 -1.3392  1.5110
19055TIP3    H278657   5.063   4.007   5.972  1.3599 -0.7004  0.0274
19056TIP3   OH278658   2.877   3.892   0.665 -0.9983  0.3732  0.1037
19056TIP3    H178659   2.863   3.800   0.643  1.0365  0.5331 -2.2854
19056TIP3    H278660   2.793   3.921   0.702 -2.3278 -1.9179 -0.9263
19057TIP3   OH278661   1.513   1.357  16.806 -0.2790 -0.4469 -0.0187
19057TIP3    H178662   1.468   1.427  16.855 -0.0410 -1.8919  2.4624
19057TIP3    H278663   1.594   1.397  16.775 -2.0731  1.5652 -2.5933
19058TIP3   OH278664   1.556   1.192  15.998 -0.0598 -0.7959  0.2561
19058TIP3    H178665   1.484   1.254  15.991  0.6370  0.2102  1.6089
19058TIP3    H278666   1.588   1.183  15.908 -0.5232  0.3756 -0.0481
19059TIP3   OH278667   0.908   4.575  17.292 -0.4321 -0.3730 -0.4855
19059TIP3    H178668   0.847   4.646  17.273  0.7324  0.3326 -1.7952
19059TIP3    H278669   0.936   4.544  17.205  0.7441 -0.9416  0.0780
19060TIP3   OH278670   0.285   5.354  17.190 -0.6977 -0.2733  0.5052
19060TIP3    H178671   0.312   5.441  17.217  0.2396 -0.1972 -0.5815
19060TIP3    H278672   0.258   5.365  17.099 -0.2367 -1.1635  0.2439
19061TIP3   OH278673   5.553   6.564  11.408 -0.0796 -0.0250  0.0854
19061TIP3    H178674   5.573   6.483  11.361 -0.1895  0.4387 -0.7956
19061TIP3    H278675   5.511   6.535  11.489  1.0391 -0.8819  0.3791
19062TIP3   OH278676   3.043   5.637  15.268  0.4058  0.5176  0.2026
19062TIP3    H178677   3.120   5.673  15.225  0.9357 -1.5062 -0.7027
19062TIP3    H278678   3.013   5.705  15.328  2.3300  1.7051 -0.1363
19063TIP3   OH278679   1.477   6.275  11.252 -0.5241 -0.4230  0.6867
19063TIP3    H178680   1.501   6.350  11.198  0.5336 -0.8434  0.5488
19063TIP3    H278681   1.557   6.254  11.300 -0.7185 -1.6461  0.5001
19064TIP3   OH278682   3.974   4.473  16.078  0.5393  0.0556 -0.1665
19064TIP3    H178683   3.979   4.563  16.112  0.3189 -0.0987  0.2782
19064TIP3    H278684   3.942   4.422  16.152  0.6777 -0.3938 -0.4185
19065TIP3   OH278685   3.707   3.543  13.592 -0.1534 -0.3874 -0.8885
19065TIP3    H178686   3.802   3.535  13.599  0.0679  0.0931 -2.6560
19065TIP3    H278687   3.673   3.467  13.638  0.9213  0.8893  2.3626
19066TIP3   OH278688   5.118   5.576   1.273 -0.2524 -0.3359  0.0847
19066TIP3    H178689   5.079   5.516   1.209 -2.1564 -0.3910  1.2299
19066TIP3    H278690   5.047   5.636   1.295  0.8893  0.7601  0.8620
19067TIP3   OH278691   6.786   4.882   5.853  0.1358 -0.0995  0.4198
19067TIP3    H178692   6.863   4.910   5.903 -0.7827  1.0441  1.2222
19067TIP3    H278693   6.732   4.961   5.845 -1.6977 -1.2186  1.2044
19068TIP3   OH278694   0.860   4.493  15.106  0.1910  0.4726  0.3399
19068TIP3    H178695   0.801   4.568  15.115  1.3437  1.6078 -0.9721
19068TIP3    H278696   0.944   4.524  15.141  0.5343 -0.4054  0.3165
19069TIP3   OH278697   0.469   0.251  12.537  0.0545  0.5854  0.6009
19069TIP3    H178698   0.565   0.248  12.537  0.0317 -1.4911 -0.0299
19069TIP3    H278699   0.445   0.263  12.628  0.9003  0.5383  0.8379
19070TIP3   OH278700   4.574   4.416  16.440 -0.3583  0.0210 -0.1712
19070TIP3    H178701   4.580   4.321  16.451 -2.3819 -0.0595  0.6182
19070TIP3    H278702   4.662   4.442  16.414  0.0111 -2.1927 -1.4160
19071TIP3   OH278703   2.197   2.358  12.621 -0.0434  0.1806 -0.1754
19071TIP3    H178704   2.261   2.363  12.691  0.7453 -1.8868 -0.6868
19071TIP3    H278705   2.208   2.440  12.573  0.9391  0.6481  0.7994
19072TIP3   OH278706   3.710   6.094   1.485  0.5607  0.1972  0.5001
19072TIP3    H178707   3.782   6.044   1.523 -0.4944 -0.0381  2.2906
19072TIP3    H278708   3.681   6.151   1.555 -1.3654 -0.1048 -0.0122
19073TIP3   OH278709   3.722   0.543  15.451  0.2585  0.3664  0.0299
19073TIP3    H178710   3.812   0.513  15.440  0.9211  1.6065  1.5399
19073TIP3    H278711   3.729   0.639  15.455 -1.5799  0.7767 -3.3206
19074TIP3   OH278712   5.100   0.090  14.652  0.6469  0.0824  0.7972
19074TIP3    H178713   5.153   0.146  14.595 -0.9790  1.1300  0.2535
19074TIP3    H278714   5.092   0.008  14.603  1.5717 -0.0239  0.8005
19075TIP3   OH278715   4.599   3.858  11.216  0.0373  0.6171 -0.4402
19075TIP3    H178716   4.545   3.922  11.263  0.5155  0.8132 -0.1532
19075TIP3    H278717   4.572   3.868  11.124 -1.2190 -0.0951 -0.1625
19076TIP3   OH278718   4.047   1.413   2.444  0.3087 -0.2749 -0.0391
19076TIP3    H178719   4.112   1.467   2.490  0.5136 -0.0330 -0.6101
19076TIP3    H278720   4.071   1.420   2.352 -0.5641 -0.1336 -0.2594
19077TIP3   OH278721   3.288   3.651   5.556  0.1252  0.3863  0.1202
19077TIP3    H178722   3.258   3.705   5.628  1.2030 -0.7985  1.5186
19077TIP3    H278723   3.226   3.578   5.553 -0.1275  0.6212 -0.3881
19078TIP3   OH278724   2.172   2.829   4.048  0.3353  0.2336 -0.3786
19078TIP3    H178725   2.219   2.898   4.095  0.9340 -0.6726  0.3873
19078TIP3    H278726   2.141   2.872   3.967  0.3358  1.4943  0.2586
19079TIP3   OH278727   4.698   0.601  14.115  0.4655  0.3959 -0.4041
19079TIP3    H178728   4.655   0.602  14.200 -1.2009  2.8634 -1.1738
19079TIP3    H278729   4.790   0.622  14.134  0.2549  0.2839  0.8096
19080TIP3   OH278730   6.025   2.976  12.752 -0.6850 -0.2683  0.2314
19080TIP3    H178731   6.110   3.020  12.764 -0.1440 -1.5548  1.2634
19080TIP3    H278732   6.008   2.932  12.835  0.0058 -4.0590 -1.4419
19081TIP3   OH278733   6.758   0.539   3.527  0.0349 -0.3085 -0.2747
19081TIP3    H178734   6.742   0.557   3.435  1.3504 -0.2469 -0.5042
19081TIP3    H278735   6.728   0.618   3.573  1.0673  0.4167 -0.8218
19082TIP3   OH278736   3.718   0.255  16.153  0.0608  0.1434  0.1047
19082TIP3    H178737   3.673   0.332  16.189  0.1760  0.6373 -0.7898
19082TIP3    H278738   3.807   0.262  16.186 -0.4784 -0.8999  1.9825
19083TIP3   OH278739   0.294   4.975   1.952  0.0976 -0.8094  0.1583
19083TIP3    H178740   0.232   5.044   1.974 -0.4757 -0.8340 -1.3126
19083TIP3    H278741   0.356   4.975   2.025  1.2768  2.5730 -0.6517
19084TIP3   OH278742   0.463   5.768  12.354  0.1462 -0.2573 -0.1413
19084TIP3    H178743   0.447   5.784  12.447  0.1660 -1.6123  0.1095
19084TIP3    H278744   0.558   5.779  12.344  0.3655 -1.6159  0.3229
19085TIP3   OH278745   1.375   5.908  16.666  0.4421 -0.0783  0.6418
19085TIP3    H178746   1.421   5.955  16.735  0.7426 -1.3464  1.3309
19085TIP3    H278747   1.441   5.852  16.626  0.1976  0.4097 -0.4782
19086TIP3   OH278748   6.635   4.893  15.428 -0.0297 -0.8604 -0.1305
19086TIP3    H178749   6.589   4.914  15.509 -0.7769 -0.8332 -0.5601
19086TIP3    H278750   6.722   4.931  15.440 -0.3202 -0.3578  0.4214
19087TIP3   OH278751   5.609   6.190   4.309  0.1266 -0.0329  0.1205
19087TIP3    H178752   5.593   6.257   4.375 -1.5345 -1.3321  1.1287
19087TIP3    H278753   5.530   6.192   4.255 -0.7750 -2.3280  1.2574
19088TIP3   OH278754   2.546   6.506   5.528 -0.1952  0.4026 -0.2347
19088TIP3    H178755   2.617   6.444   5.548 -0.1175  0.8844  1.1044
19088TIP3    H278756   2.530   6.494   5.435  0.5863 -0.8316 -0.2449
19089TIP3   OH278757   5.434   3.845  14.736 -0.0057  0.2881 -0.2670
19089TIP3    H178758   5.529   3.845  14.735  0.0038  0.3722  0.5007
19089TIP3    H278759   5.410   3.764  14.781 -0.2798  0.8520  0.6106
19090TIP3   OH278760   2.347   6.494  15.802  0.1704  0.1198  0.3153
19090TIP3    H178761   2.345   6.413  15.751  1.2626  0.0228  0.3991
19090TIP3    H278762   2.299   6.473  15.883  0.3418 -0.4077  0.2834
19091TIP3   OH278763   6.519   4.999   0.057  0.0886 -0.0295  0.1648
19091TIP3    H178764   6.468   5.010  -0.023  0.7204 -0.5952 -0.3264
19091TIP3    H278765   6.468   5.044   0.124 -1.1534 -0.7570 -0.2651
19092TIP3   OH278766   5.953   4.735   0.501 -0.5016 -0.2609 -0.0518
19092TIP3    H178767   5.874   4.681   0.508 -0.8277  0.1885 -0.2467
19092TIP3    H278768   6.012   4.699   0.568 -0.5448 -1.1350 -0.4757
19093TIP3   OH278769   3.541   6.182   0.984  0.7633 -0.1866 -0.0173
19093TIP3    H178770   3.601   6.235   0.932 -0.5666  3.0311  1.4252
19093TIP3    H278771   3.591   6.159   1.062  1.4341 -1.3675 -0.7712
19094TIP3   OH278772   5.022   0.549  14.673 -0.2855 -0.1606 -0.4735
19094TIP3    H178773   4.931   0.551  14.643 -0.3350  0.7108 -0.3048
19094TIP3    H278774   5.065   0.619  14.624  0.0849  0.0049  0.0710
19095TIP3   OH278775   1.492   5.689   4.420 -0.5602 -0.5800  0.3838
19095TIP3    H178776   1.442   5.608   4.412 -0.4595 -0.5621 -0.5748
19095TIP3    H278777   1.426   5.759   4.417 -0.8190 -0.6294  2.8673
19096TIP3   OH278778   2.452   2.322   2.766 -0.1121  0.0712 -0.2772
19096TIP3    H178779   2.395   2.258   2.810  0.3709  0.3765  0.8328
19096TIP3    H278780   2.468   2.284   2.680  1.1503 -1.9433  0.7528
19097TIP3   OH278781   3.100   4.535   4.836 -0.0255  0.3278 -0.0576
19097TIP3    H178782   3.090   4.528   4.931  0.6233 -0.6483 -0.0553
19097TIP3    H278783   3.194   4.545   4.822  0.0080 -0.7823 -0.6637
19098TIP3   OH278784   4.745   0.163  11.390 -0.3653  0.0443 -0.0833
19098TIP3    H178785   4.811   0.213  11.438  0.8863 -0.0498 -1.6326
19098TIP3    H278786   4.708   0.103  11.455  2.1635 -0.9772  0.5042
19099TIP3   OH278787   0.159   1.574  14.082 -0.1446 -0.1001  0.4199
19099TIP3    H178788   0.130   1.634  14.150 -0.1512 -1.0865  1.3236
19099TIP3    H278789   0.109   1.494  14.098  0.2280 -0.5185 -0.4328
19100TIP3   OH278790   1.811   3.880  13.976 -0.2896 -0.0109  0.0121
19100TIP3    H178791   1.782   3.945  13.912 -1.4438 -1.2019 -0.7434
19100TIP3    H278792   1.792   3.795  13.934  0.3075 -0.8288  1.3303
19101TIP3   OH278793   4.675   4.166  17.214  0.1865 -0.2168 -0.2929
19101TIP3    H178794   4.708   4.077  17.230 -2.5216 -1.0907  0.9774
19101TIP3    H278795   4.666   4.171  17.119 -0.0888 -1.5015 -0.3544
19102TIP3   OH278796   1.417   4.924  16.602  0.1449 -0.0901  1.1418
19102TIP3    H178797   1.322   4.934  16.605  0.1729  0.3997  0.5912
19102TIP3    H278798   1.438   4.866  16.675 -0.6645 -0.9233  0.7272
19103TIP3   OH278799   4.648   6.478  16.578 -0.1751  0.8809 -0.2464
19103TIP3    H178800   4.711   6.450  16.511 -1.4797 -1.8427 -0.5147
19103TIP3    H278801   4.568   6.497  16.528 -0.5379  0.9630  0.3575
19104TIP3   OH278802   2.917   5.628  12.786  0.0392 -0.1494 -0.1078
19104TIP3    H178803   2.890   5.539  12.767  0.5964 -0.2560 -0.4289
19104TIP3    H278804   2.891   5.679  12.710  1.4682 -0.4121 -0.8117
19105TIP3   OH278805   0.110   6.071   1.940 -0.2407 -0.2267  0.1277
19105TIP3    H178806   0.165   6.000   1.908 -0.2415 -0.4091  0.5196
19105TIP3    H278807   0.027   6.061   1.894  0.3594  0.6201 -1.1782
19106TIP3   OH278808   6.433   1.295   2.328  0.2163  0.4842  0.0008
19106TIP3    H178809   6.472   1.221   2.282 -1.7438 -1.1149  0.7446
19106TIP3    H278810   6.459   1.284   2.419 -0.3610  0.4904  0.1738
19107TIP3   OH278811   3.012   1.889   3.139 -0.1509  0.2052  0.2889
19107TIP3    H178812   2.994   1.982   3.151 -0.2093 -0.0507  2.6894
19107TIP3    H278813   2.966   1.866   3.058  0.4903  2.3949 -0.7676
19108TIP3   OH278814   1.076   0.011  12.370 -0.0011 -0.3695  0.2161
19108TIP3    H178815   1.095  -0.007  12.278  0.1051 -0.2009  0.2046
19108TIP3    H278816   0.981   0.011  12.376 -0.0096 -0.2467  0.0811
19109TIP3   OH278817   0.023   1.255  15.466  0.2471 -0.0691 -0.3547
19109TIP3    H178818   0.071   1.331  15.500 -1.8328  0.2928  2.0122
19109TIP3    H278819  -0.030   1.291  15.395 -0.5000  0.6642  0.5539
19110TIP3   OH278820   6.643   2.051  13.619 -0.4757  0.0652 -0.3532
19110TIP3    H178821   6.625   2.095  13.702 -1.4628 -1.5841  0.3494
19110TIP3    H278822   6.651   1.959  13.642  0.9105 -0.2363 -1.8692
19111TIP3   OH278823   6.710   2.306  15.029 -0.0924  0.3799  0.1681
19111TIP3    H178824   6.797   2.337  15.003 -0.4761  2.7390  1.4989
19111TIP3    H278825   6.691   2.236  14.967  1.4234  1.9068 -2.1886
19112TIP3   OH278826   3.100   0.430   5.211  0.0151 -0.5463  0.1329
19112TIP3    H178827   3.057   0.419   5.127 -1.0196  0.1278  0.5620
19112TIP3    H278828   3.107   0.341   5.246 -0.3707 -0.7327 -0.2597
19113TIP3   OH278829   2.063   6.437   2.196 -0.0328 -0.0852 -0.2548
19113TIP3    H178830   1.968   6.436   2.190  0.0437 -0.1575 -2.2588
19113TIP3    H278831   2.091   6.355   2.154  0.9135  0.1963 -0.2076
19114TIP3   OH278832   2.225   2.366  13.356 -0.0406 -0.3415 -0.0315
19114TIP3    H178833   2.173   2.299  13.311 -0.2028  0.5900 -1.2919
19114TIP3    H278834   2.160   2.430  13.385  0.1585 -0.5045  0.8079
19115TIP3   OH278835   2.565   4.289   3.140 -0.3925  0.2656 -0.1186
19115TIP3    H178836   2.542   4.229   3.211 -0.4270  0.5614  0.1235
19115TIP3    H278837   2.638   4.340   3.174 -0.2707  0.2666 -0.3756
19116TIP3   OH278838   6.135   4.096  16.199 -0.1869  0.2631 -1.1430
19116TIP3    H178839   6.217   4.092  16.150 -0.6941 -1.3768 -1.9256
19116TIP3    H278840   6.161   4.122  16.288  1.1638 -0.1828 -1.3851
19117TIP3   OH278841   0.928   2.022   3.708 -0.1062 -0.0592  0.0543
19117TIP3    H178842   0.858   2.055   3.652 -0.4475 -1.4023 -0.3631
19117TIP3    H278843   0.915   1.927   3.708  1.2764 -0.2710  0.5725
19118TIP3   OH278844   5.910   0.242   3.306  0.5723 -0.1670  0.6016
19118TIP3    H178845   5.920   0.323   3.257 -0.6367  0.3983  1.2413
19118TIP3    H278846   5.915   0.172   3.241  0.4690  0.4804 -0.1013
19119TIP3   OH278847   6.550   2.147   3.657  0.1375 -0.1930  0.2735
19119TIP3    H178848   6.479   2.095   3.620 -0.2590 -0.0141  0.7719
19119TIP3    H278849   6.592   2.188   3.581 -0.5996  0.0959  0.0108
19120TIP3   OH278850   2.421   6.482   2.411 -0.5749  0.5757  0.2554
19120TIP3    H178851   2.440   6.411   2.472 -0.2196 -0.2428 -0.7803
19120TIP3    H278852   2.494   6.544   2.423 -0.5851  0.5019  0.7469
19121TIP3   OH278853   5.067   6.736  14.161 -0.2410 -0.8439  0.3063
19121TIP3    H178854   5.151   6.779  14.145 -0.6266 -0.1483  0.1105
19121TIP3    H278855   5.044   6.761  14.251 -0.6831 -0.2498  0.0354
19122TIP3   OH278856   2.147   0.829  15.192 -0.3455  0.5961 -0.4763
19122TIP3    H178857   2.156   0.826  15.288  2.4718 -1.0951 -0.6672
19122TIP3    H278858   2.107   0.745  15.169  1.8513 -0.4142 -0.8859
19123TIP3   OH278859   0.766   2.694   1.405 -0.4826  0.0063 -0.3585
19123TIP3    H178860   0.718   2.757   1.460 -0.4514 -1.6743  1.7382
19123TIP3    H278861   0.699   2.659   1.346 -1.4870 -0.9117  1.2375
19124TIP3   OH278862   1.851   0.132   5.166  0.1520  0.1735  0.2769
19124TIP3    H178863   1.812   0.061   5.115  1.5177 -1.6733  1.6296
19124TIP3    H278864   1.926   0.160   5.114  0.4322 -0.3874  0.3660
19125TIP3   OH278865   6.519   6.348   4.131  0.5910 -0.1863 -0.0168
19125TIP3    H178866   6.538   6.280   4.196 -0.6941 -1.0518 -0.5130
19125TIP3    H278867   6.439   6.390   4.162  0.3662 -0.1189 -0.6729
19126TIP3   OH278868   1.562   1.217   0.359  0.3911  0.0383  0.1396
19126TIP3    H178869   1.528   1.184   0.442  0.2889 -0.5007 -0.1103
19126TIP3    H278870   1.579   1.309   0.375 -0.2456  0.0904  0.5727
19127TIP3   OH278871   1.236   0.077   0.996 -0.1074 -0.2878 -0.0339
19127TIP3    H178872   1.167   0.018   1.027  0.6511 -0.9051  0.5246
19127TIP3    H278873   1.297   0.020   0.948  1.1918 -0.1854  1.4155
19128TIP3   OH278874   5.946   0.682  11.737 -0.2052 -0.3917  0.5962
19128TIP3    H178875   6.003   0.618  11.780  0.7584 -0.7474 -1.1287
19128TIP3    H278876   6.003   0.755  11.715 -0.3140 -0.8516 -1.3621
19129TIP3   OH278877   2.560   3.425  16.613 -0.2788 -0.0442  0.2618
19129TIP3    H178878   2.549   3.474  16.532  0.1643 -0.7266 -0.2159
19129TIP3    H278879   2.518   3.341  16.597  1.5943 -0.9816 -0.0265
19130TIP3   OH278880   3.027   5.176  15.260 -0.8156  0.1358  0.0286
19130TIP3    H178881   3.100   5.238  15.260  0.5713 -1.4416 -0.1594
19130TIP3    H278882   3.025   5.142  15.349 -0.3302 -0.9296 -0.3568
19131TIP3   OH278883   6.310   4.623   4.690 -0.1820 -0.2439  0.0632
19131TIP3    H178884   6.269   4.686   4.750  2.5368  1.5334  0.1973
19131TIP3    H278885   6.274   4.644   4.604 -1.5421 -0.5495  0.5332
19132TIP3   OH278886   5.571   4.508   0.302 -0.3925 -0.5647 -0.1986
19132TIP3    H178887   5.596   4.483   0.212 -1.4922 -0.9165 -0.4255
19132TIP3    H278888   5.486   4.550   0.292 -1.8781 -3.0713  0.9196
19133TIP3   OH278889   3.751   3.970  11.538 -0.1220 -0.2913  0.2213
19133TIP3    H178890   3.676   3.924  11.574 -0.8285 -0.0812 -0.9446
19133TIP3    H278891   3.803   3.902  11.495 -0.6152 -0.1676 -0.5806
19134TIP3   OH278892   3.046   4.286   0.073  1.0366 -0.0373  0.8123
19134TIP3    H178893   3.005   4.256  -0.008 -0.6217 -1.0579  1.9719
19134TIP3    H278894   3.003   4.235   0.142  3.1512  0.0010  2.2662
19135TIP3   OH278895   4.662   4.969  13.134  0.1950 -0.3446  0.2432
19135TIP3    H178896   4.608   5.029  13.082 -0.6552 -1.0037  0.3381
19135TIP3    H278897   4.736   5.022  13.163 -0.3194  0.5418 -0.0264
19136TIP3   OH278898   2.946   6.382   2.051  0.2807  0.6807 -0.1878
19136TIP3    H178899   2.853   6.377   2.074  0.4632  0.1312  0.4926
19136TIP3    H278900   2.947   6.401   1.958 -0.5163  0.9988 -0.1409
19137TIP3   OH278901   4.217   5.684  13.725  0.2413 -0.2576 -0.5689
19137TIP3    H178902   4.243   5.594  13.743  1.2083 -0.1216 -1.2179
19137TIP3    H278903   4.271   5.738  13.782 -0.3394 -0.0771 -0.1750
19138TIP3   OH278904   5.934   1.365  14.863 -0.0660 -0.3893  0.1584
19138TIP3    H178905   5.975   1.442  14.824  0.3423 -0.4126  0.5430
19138TIP3    H278906   5.962   1.292  14.807 -0.0202 -0.3340  0.1085
19139TIP3   OH278907   0.304   4.875   4.800  0.2338  0.3090 -0.2571
19139TIP3    H178908   0.366   4.905   4.734  0.8250 -0.3922 -0.0319
19139TIP3    H278909   0.276   4.789   4.769  2.2239 -1.0744  1.4772
19140TIP3   OH278910   5.461   5.402   5.095 -0.1197 -0.2649 -0.4447
19140TIP3    H178911   5.447   5.322   5.044 -0.7021  0.7412 -1.9479
19140TIP3    H278912   5.377   5.420   5.137 -0.0360 -0.3571 -0.2375
19141TIP3   OH278913   5.174   2.094   2.828  0.1189 -0.2023 -0.4719
19141TIP3    H178914   5.158   2.035   2.901  0.1521 -1.7139 -1.6322
19141TIP3    H278915   5.101   2.080   2.768 -0.1441  1.3335 -0.5579
19142TIP3   OH278916   4.930   4.553   3.072 -0.0154 -0.1923  0.0257
19142TIP3    H178917   4.872   4.478   3.065 -0.7108  0.3403 -0.1046
19142TIP3    H278918   4.877   4.620   3.116  1.3235 -0.5181  2.3371
19143TIP3   OH278919   4.549   3.740  16.919  0.1976  0.2119  0.0125
19143TIP3    H178920   4.626   3.794  16.938  1.4361 -1.6596  0.5636
19143TIP3    H278921   4.504   3.787  16.849  0.6538  2.4477  1.1104
19144TIP3   OH278922   3.106   4.797  16.220 -0.0033 -0.5524 -0.3397
19144TIP3    H178923   3.172   4.864  16.236 -0.2036  0.2567 -2.6063
19144TIP3    H278924   3.030   4.825  16.272  0.0934  0.7271 -0.8460
19145TIP3   OH278925   6.321   5.500   2.636 -0.5099 -0.5272  0.0060
19145TIP3    H178926   6.238   5.507   2.589  0.3223 -0.5597 -1.5338
19145TIP3    H278927   6.330   5.585   2.680  0.0950  0.7849 -2.4207
19146TIP3   OH278928   4.798   3.454  13.083  0.1988 -0.4090  0.0085
19146TIP3    H178929   4.763   3.543  13.087  0.5319 -0.3010  0.6951
19146TIP3    H278930   4.882   3.463  13.038 -0.1689 -0.5104 -0.7039
19147TIP3   OH278931   6.624   2.183   4.338  0.0130  0.4913 -0.5851
19147TIP3    H178932   6.631   2.157   4.246 -0.2406 -2.3457  0.0968
19147TIP3    H278933   6.547   2.240   4.340  0.6319  1.4878 -2.2442
19148TIP3   OH278934   6.754   4.002  16.080 -0.5348  0.2080  0.1497
19148TIP3    H178935   6.819   3.937  16.107  0.5851  1.1673 -0.1464
19148TIP3    H278936   6.806   4.075  16.045 -1.8098  0.5684 -1.0835
19149TIP3   OH278937   4.352   4.976   6.102  0.1902  0.8446 -0.2201
19149TIP3    H178938   4.310   5.062   6.103  0.5997  1.0386  0.3171
19149TIP3    H278939   4.328   4.936   6.185  1.9551  1.3960  0.5963
19150TIP3   OH278940   5.769   1.642   3.931 -0.2202 -0.0217  0.3843
19150TIP3    H178941   5.816   1.594   3.999  1.2775  0.3845 -0.3288
19150TIP3    H278942   5.734   1.720   3.975 -0.4467 -0.4589  0.9764
19151TIP3   OH278943   6.098   5.113   6.467  0.1939 -0.3779 -0.0381
19151TIP3    H178944   6.173   5.171   6.478  1.2481 -1.6724 -0.1589
19151TIP3    H278945   6.041   5.159   6.406 -0.0421  1.4833  1.4684
19152TIP3   OH278946   5.167   6.744   1.292 -0.3094 -0.2884  0.3182
19152TIP3    H178947   5.197   6.831   1.265 -0.0594 -0.7910 -1.0697
19152TIP3    H278948   5.215   6.683   1.236 -0.3327 -1.3486  1.3998
19153TIP3   OH278949   3.654   3.112  12.792 -0.0425  0.1082 -0.0716
19153TIP3    H178950   3.570   3.069  12.808  0.1370 -0.7844 -1.3499
19153TIP3    H278951   3.637   3.171  12.719 -0.1358  1.8385  1.2838
19154TIP3   OH278952   4.912   4.535  14.570 -0.5522 -0.2089  0.7515
19154TIP3    H178953   4.889   4.607  14.512  2.2995 -0.1355 -0.4567
19154TIP3    H278954   4.845   4.468  14.554 -1.4972  0.9716 -0.4065
19155TIP3   OH278955   1.001   4.419   1.575 -0.1225 -0.2881  0.4467
19155TIP3    H178956   0.990   4.473   1.653  1.4262  1.8778 -0.7340
19155TIP3    H278957   0.935   4.450   1.514  0.3256 -0.1914  0.0015
19156TIP3   OH278958   6.738   2.401  14.492 -0.7883 -0.1063 -0.4020
19156TIP3    H178959   6.705   2.470  14.548  0.4884  0.2823 -0.1005
19156TIP3    H278960   6.661   2.369  14.444 -1.6543  0.4293  0.6157
19157TIP3   OH278961   4.503   3.723  11.456  0.6254 -0.2252  0.1073
19157TIP3    H178962   4.524   3.718  11.363 -0.6444 -1.2426 -0.1436
19157TIP3    H278963   4.577   3.680  11.499  0.5323 -1.0479 -0.5338
19158TIP3   OH278964   5.745   2.741   2.288  0.6250 -0.1740  0.3477
19158TIP3    H178965   5.807   2.695   2.233  0.9128  0.2406  0.3268
19158TIP3    H278966   5.660   2.700   2.268  1.1837 -2.4535  2.1494
19159TIP3   OH278967   1.543   1.357   2.381  0.5129  0.0304 -0.0850
19159TIP3    H178968   1.596   1.370   2.302 -1.4813 -0.6301 -1.6055
19159TIP3    H278969   1.502   1.442   2.397  1.0109  0.1981  0.3509
19160TIP3   OH278970   1.273   2.022   0.522  0.7870 -0.1026  0.4267
19160TIP3    H178971   1.306   2.099   0.476  1.7107 -0.2669  0.7966
19160TIP3    H278972   1.310   1.948   0.475  1.9178 -0.2705  1.5172
19161TIP3   OH278973   2.506   4.886  11.359 -0.2648 -0.3546  0.1446
19161TIP3    H178974   2.469   4.817  11.305  0.4197 -0.2472 -0.4781
19161TIP3    H278975   2.597   4.895  11.328 -0.0395  0.1134  0.9068
19162TIP3   OH278976   0.672   0.377   3.187 -0.3896  0.7227 -0.5769
19162TIP3    H178977   0.602   0.404   3.127 -0.9655 -1.4651 -0.9843
19162TIP3    H278978   0.734   0.450   3.187 -2.3307  2.4652 -0.7085
19163TIP3   OH278979   4.568   0.729   6.025  0.2528 -0.0798 -0.1209
19163TIP3    H178980   4.490   0.676   6.037 -0.6872  1.4283  0.6905
19163TIP3    H278981   4.618   0.719   6.106 -0.2244  0.7055  0.2867
19164TIP3   OH278982   5.872   2.232  13.025  0.3407  0.0275  0.1026
19164TIP3    H178983   5.896   2.147  13.062  0.7108  0.1407  0.1194
19164TIP3    H278984   5.933   2.294  13.065 -0.9701  0.5624  1.3644
19165TIP3   OH278985   6.723   3.669   3.218  0.0911 -0.7501 -0.3979
19165TIP3    H178986   6.699   3.576   3.221 -0.5210 -0.5914 -0.2201
19165TIP3    H278987   6.736   3.693   3.309 -3.1633  0.1786 -0.0311
19166TIP3   OH278988   3.991   5.686   2.866 -0.1251 -0.4824  0.2508
19166TIP3    H178989   4.045   5.764   2.879 -1.1308  0.2048  0.3782
19166TIP3    H278990   3.991   5.642   2.950  2.4880 -2.0065 -0.4242
19167TIP3   OH278991   3.964   1.242   5.486 -0.4188  0.3014  0.6979
19167TIP3    H178992   3.958   1.151   5.456  0.4136  1.2753 -2.8698
19167TIP3    H278993   3.874   1.272   5.490 -0.6032  0.4832 -2.5277
19168TIP3   OH278994   3.567   3.798   6.282 -0.0025 -0.4098  0.1418
19168TIP3    H178995   3.610   3.882   6.298 -0.0214 -0.5245  0.8543
19168TIP3    H278996   3.510   3.786   6.358 -1.4162 -0.1939 -0.8605
19169TIP3   OH278997   1.301   0.372   4.897 -0.0612 -0.4978  1.0054
19169TIP3    H178998   1.333   0.337   4.814 -0.5902  0.8335  0.2086
19169TIP3    H278999   1.262   0.297   4.942  0.9211 -1.3938  0.4081
19170TIP3   OH279000   1.127   0.958  16.086  0.7913 -0.0103  0.5964
19170TIP3    H179001   1.064   0.925  16.150 -0.6230 -0.2626 -0.8783
19170TIP3    H279002   1.133   1.052  16.105 -0.2599  0.0710  0.5868
19171TIP3   OH279003   3.278   1.588  15.818  0.1245 -0.7240 -0.0738
19171TIP3    H179004   3.252   1.617  15.905  0.6298  0.5770 -0.3236
19171TIP3    H279005   3.227   1.643  15.758  1.3647 -0.0714 -0.5715
19172TIP3   OH279006   2.086   3.260   4.943  0.0567 -0.3554  0.0538
19172TIP3    H179007   2.109   3.224   5.029  1.3846 -1.8809 -0.8735
19172TIP3    H279008   2.004   3.217   4.920 -0.2370 -0.0384  0.4970
19173TIP3   OH279009   5.261   1.091  16.892  0.1863  0.0163 -0.0193
19173TIP3    H179010   5.272   1.168  16.948 -3.3004  0.2273  0.6383
19173TIP3    H279011   5.246   1.019  16.953 -0.5101 -0.3787 -0.6351
19174TIP3   OH279012   2.610   5.274   5.988  0.4724  0.0896  0.0612
19174TIP3    H179013   2.534   5.251   5.935  1.0461 -0.7793 -0.4095
19174TIP3    H279014   2.611   5.370   5.988  0.0928  0.1075 -0.9696
19175TIP3   OH279015   1.155   5.099   0.298  0.2234  0.4007  0.0934
19175TIP3    H179016   1.205   5.035   0.248 -0.0331  0.5942 -0.4231
19175TIP3    H279017   1.190   5.094   0.387 -1.1486 -1.8668  0.5639
19176TIP3   OH279018   2.082   5.005   2.910 -0.2021  0.2554 -0.1802
19176TIP3    H179019   2.027   5.027   2.985 -0.7970  1.0717 -0.8382
19176TIP3    H279020   2.156   5.065   2.916  0.3170 -0.4202  0.3529
19177TIP3   OH279021   3.990   3.924   1.982 -0.4336  0.4112  0.0342
19177TIP3    H179022   3.943   3.982   2.042 -2.2599 -0.2457 -0.7157
19177TIP3    H279023   3.983   3.837   2.022  0.7732  0.3970  0.2540
19178TIP3   OH279024   4.627   3.324   5.056  0.0982  0.2976  0.6841
19178TIP3    H179025   4.625   3.394   4.991 -0.3236 -0.6877 -0.3978
19178TIP3    H279026   4.720   3.304   5.067  0.1386 -1.5850 -1.9820
19179TIP3   OH279027   2.520   3.450   5.857  0.1681  0.1605 -0.6478
19179TIP3    H179028   2.472   3.441   5.940 -1.0940 -0.3640 -1.3935
19179TIP3    H279029   2.605   3.485   5.882 -1.0397  2.4165  0.6275
19180TIP3   OH279030   6.313   2.196  11.866 -0.3712  0.2435  0.3996
19180TIP3    H179031   6.229   2.241  11.876  0.2165  2.0193 -1.7082
19180TIP3    H279032   6.291   2.108  11.838 -1.5201  0.2683  1.1622
19181TIP3   OH279033   1.768   4.430  16.607 -0.2516  0.7371 -0.3064
19181TIP3    H179034   1.840   4.424  16.670 -0.3801  1.5306 -0.0663
19181TIP3    H279035   1.779   4.516  16.566 -0.1963  0.2458 -1.3513
19182TIP3   OH279036   0.847   0.049  15.142 -0.4140 -0.3709  0.4552
19182TIP3    H179037   0.931   0.069  15.183  0.5983  0.5141 -1.8908
19182TIP3    H279038   0.843  -0.047  15.141 -0.1108 -0.4176  1.8096
19183TIP3   OH279039   6.684   6.276  15.297  0.0870 -0.1294 -0.1651
19183TIP3    H179040   6.777   6.294  15.286  0.1804 -0.1369  0.5777
19183TIP3    H279041   6.640   6.354  15.263  0.4441  1.0449  1.9250
19184TIP3   OH279042   5.114   3.415   4.785 -0.3165  0.3244 -0.1679
19184TIP3    H179043   5.034   3.364   4.798 -0.8989  0.9951 -1.0270
19184TIP3    H279044   5.153   3.379   4.706  0.6144 -0.4521  0.6139
19185TIP3   OH279045   0.027   3.490  12.229 -0.8543 -0.2186  0.3046
19185TIP3    H179046  -0.027   3.426  12.183  1.3866 -3.0727  1.3424
19185TIP3    H279047   0.094   3.438  12.273  0.0212  2.7268  2.8271
19186TIP3   OH279048   4.304   2.277   2.573  0.1183 -0.2689 -0.3836
19186TIP3    H179049   4.216   2.313   2.560 -1.4064 -3.3424  0.3859
19186TIP3    H279050   4.314   2.213   2.502  1.1751 -0.8783  0.2819
19187TIP3   OH279051   4.780   0.743  14.956 -0.5885  0.2856 -0.1212
19187TIP3    H179052   4.874   0.729  14.948 -0.4976 -0.1571  1.3610
19187TIP3    H279053   4.752   0.771  14.869  1.1291  1.7770 -0.2433
19188TIP3   OH279054   3.679   3.482   3.819  0.3827  0.1078  0.4405
19188TIP3    H179055   3.715   3.416   3.879  0.2252  0.9574  1.5064
19188TIP3    H279056   3.756   3.529   3.787  0.3672  1.0686  1.7050
19189TIP3   OH279057   6.356   2.697  14.880  0.1838 -0.1618  0.0918
19189TIP3    H179058   6.377   2.755  14.954 -0.7209  0.5814 -0.2030
19189TIP3    H279059   6.379   2.610  14.910  0.2080  0.1809  1.1076
19190TIP3   OH279060   4.450   0.045  13.774  0.1769 -0.0976  0.2167
19190TIP3    H179061   4.415   0.071  13.859  0.8080  2.4718 -0.2516
19190TIP3    H279062   4.374   0.043  13.716  0.1372  0.9837  0.2177
19191TIP3   OH279063   2.848   0.242  11.482 -0.2436  0.6305  0.0499
19191TIP3    H179064   2.753   0.241  11.492 -0.8354  2.8641 -3.4619
19191TIP3    H279065   2.867   0.163  11.431 -0.6299  1.3242 -1.2265
19192TIP3   OH279066   4.027   2.977   2.141 -0.4824 -0.6948  0.2444
19192TIP3    H179067   4.007   3.068   2.121  1.0977 -0.2243  0.6190
19192TIP3    H279068   3.943   2.932   2.136 -1.3736  0.8604  0.5063
19193TIP3   OH279069   1.650   3.623   1.207  0.2879 -0.0057 -0.0031
19193TIP3    H179070   1.607   3.545   1.241  2.5948 -0.6103  1.8260
19193TIP3    H279071   1.590   3.695   1.227 -1.5205 -1.1605 -1.0113
19194TIP3   OH279072   4.819   6.769   3.624 -0.1200 -0.0298  0.7149
19194TIP3    H179073   4.904   6.733   3.648  0.5405  1.0138  0.0381
19194TIP3    H279074   4.756   6.700   3.646  1.1411 -1.9487 -1.2428
19195TIP3   OH279075   3.427   6.331   5.957 -0.0104  0.3756  0.3583
19195TIP3    H179076   3.356   6.362   6.013 -1.2633 -1.7248  0.0151
19195TIP3    H279077   3.501   6.388   5.980 -1.5981  2.2454  1.1531
19196TIP3   OH279078   6.330   1.031   0.046  0.1981 -0.3519 -0.1978
19196TIP3    H179079   6.375   1.021   0.130 -1.7364 -0.9862  0.8241
19196TIP3    H279080   6.313   0.941   0.017 -0.6218 -0.1315 -0.4225
19197TIP3   OH279081   5.414   4.081  12.923  0.0035 -0.4751  0.4494
19197TIP3    H179082   5.464   3.999  12.927 -1.2732 -1.3380 -0.1725
19197TIP3    H279083   5.466   4.139  12.868  0.9717 -0.8375  0.9711
19198TIP3   OH279084   4.600   0.831  12.259  0.8029  0.1365 -0.3092
19198TIP3    H179085   4.631   0.808  12.347  0.0972 -0.0835 -0.1151
19198TIP3    H279086   4.643   0.768  12.201  1.1608  0.1942 -0.1148
19199TIP3   OH279087   0.991   6.040  16.246  0.9953  0.4711 -0.2741
19199TIP3    H179088   0.928   5.971  16.227  0.0916  0.8239  1.3221
19199TIP3    H279089   0.939   6.120  16.254  1.7380  0.9262  0.2117
19200TIP3   OH279090   2.278   4.806   0.673 -0.1645  0.2775  0.4356
19200TIP3    H179091   2.357   4.754   0.687  0.0681  0.6065  0.3651
19200TIP3    H279092   2.267   4.810   0.578 -1.2254 -1.1802  0.4702
19201TIP3   OH279093   4.045   4.181   0.232  0.3933  0.0618 -0.4718
19201TIP3    H179094   3.987   4.241   0.280 -0.5412 -1.4052  0.3131
19201TIP3    H279095   4.133   4.202   0.264 -0.1302 -0.4070  1.4583
19202TIP3   OH279096   1.878   4.142  16.913  0.1744 -0.1400 -0.1064
19202TIP3    H179097   1.923   4.068  16.872 -1.2383 -0.4394 -1.2072
19202TIP3    H279098   1.798   4.154  16.860 -0.2342  1.3892  0.7859
19203TIP3   OH279099   1.195   3.803   5.660  0.0199  0.0898 -0.4421
19203TIP3    H179100   1.145   3.874   5.701 -0.5105  0.3591 -1.5136
19203TIP3    H279101   1.160   3.723   5.701 -0.3422  0.3594 -0.2134
19204TIP3   OH279102   5.748   2.166   1.058 -0.3940  0.0637  0.1315
19204TIP3    H179103   5.836   2.151   1.092 -0.2641  0.4305 -0.0475
19204TIP3    H279104   5.690   2.132   1.127 -0.1380  1.0433  0.8454
19205TIP3   OH279105   1.718   4.736   3.169  0.3831  0.3791  0.3418
19205TIP3    H179106   1.770   4.791   3.227 -0.3252  0.9704  0.4286
19205TIP3    H279107   1.631   4.776   3.169 -0.4216 -1.2994  1.1624
19206TIP3   OH279108   2.994   5.422   1.361 -0.3013  0.1563  0.4484
19206TIP3    H179109   2.902   5.437   1.338 -0.1449 -1.2623 -1.4037
19206TIP3    H279110   2.998   5.329   1.381  0.8966 -0.0523 -0.6193
19207TIP3   OH279111   4.146   2.462   6.210  0.0365 -0.2727 -0.0376
19207TIP3    H179112   4.065   2.462   6.261 -0.2077  1.2989 -0.3705
19207TIP3    H279113   4.160   2.554   6.187 -0.7508 -1.0058 -4.1892
19208TIP3   OH279114   5.819   6.025   4.212  0.3490  0.0598 -0.4657
19208TIP3    H179115   5.854   5.998   4.297 -1.1733 -0.2993  0.0873
19208TIP3    H279116   5.752   6.091   4.234 -1.1319 -1.1286 -1.2218
19209TIP3   OH279117   6.034   3.047   2.012  0.0106  0.1895 -0.5728
19209TIP3    H179118   6.036   3.000   2.096 -0.2675 -2.0087 -1.7320
19209TIP3    H279119   6.019   3.139   2.037  1.5088 -0.1265  1.8555
19210TIP3   OH279120   4.202   3.218  16.670 -0.2057  0.4689 -0.1359
19210TIP3    H179121   4.277   3.165  16.642 -0.4237  0.2834 -0.3721
19210TIP3    H279122   4.238   3.306  16.681  0.2637  0.1818  0.7202
19211TIP3   OH279123   2.450   5.370  11.664 -0.0170  0.4773 -0.4625
19211TIP3    H179124   2.417   5.296  11.614  2.3053 -1.7338  1.0144
19211TIP3    H279125   2.466   5.335  11.752  0.2353  3.0255  0.6049
19212TIP3   OH279126   3.806   5.444   3.715  0.1721 -0.3861 -0.3697
19212TIP3    H179127   3.796   5.388   3.792 -0.5207 -2.8068 -2.0897
19212TIP3    H279128   3.717   5.455   3.681  0.0833  2.9349  0.5394
19213TIP3   OH279129   4.866   0.870   5.780 -0.4060 -0.2533  0.0917
19213TIP3    H179130   4.937   0.924   5.744  0.4053 -2.6978 -2.3320
19213TIP3    H279131   4.805   0.933   5.818  1.6273  2.1505 -0.3672
19214TIP3   OH279132   4.932   3.166  13.762  0.1751  0.3251  0.3336
19214TIP3    H179133   4.896   3.191  13.847 -1.0434 -1.5183  0.4167
19214TIP3    H279134   4.973   3.081  13.777  3.3265  1.6021 -0.1264
19215TIP3   OH279135   5.305   1.560   5.762 -0.5420  0.4847 -0.5679
19215TIP3    H179136   5.340   1.564   5.673 -3.2616  0.5718 -1.7439
19215TIP3    H279137   5.343   1.636   5.806 -1.4682  2.2607 -2.6362
19216TIP3   OH279138   3.883   3.523  15.636 -1.0286 -1.2319  0.5822
19216TIP3    H179139   3.900   3.429  15.630  0.2623 -0.9497 -1.3419
19216TIP3    H279140   3.821   3.540  15.565  0.2524 -0.3961 -0.3969
19217TIP3   OH279141   2.621   6.049   4.313 -0.4644  0.0174 -0.4654
19217TIP3    H179142   2.717   6.052   4.311 -0.3193 -2.7727 -1.1726
19217TIP3    H279143   2.598   6.101   4.391  1.5784  0.7982 -0.2951
19218TIP3   OH279144   3.245   6.700  12.108  0.3982 -0.1755  0.5293
19218TIP3    H179145   3.262   6.787  12.074  0.2203  0.2615  1.5176
19218TIP3    H279146   3.307   6.690  12.180  0.9646 -1.1862 -0.0830
19219TIP3   OH279147   1.400   6.715   5.902  0.3799 -0.0526 -0.3678
19219TIP3    H179148   1.413   6.670   5.986 -1.1512 -0.4299 -0.3075
19219TIP3    H279149   1.378   6.644   5.841  0.9839  0.2816 -0.9827
19220TIP3   OH279150   2.191   0.653  14.443 -0.4710 -0.4046  0.0430
19220TIP3    H179151   2.220   0.694  14.524 -0.9585  0.2501 -0.1002
19220TIP3    H279152   2.154   0.725  14.392  1.4191 -0.4663 -1.5291
19221TIP3   OH279153   3.016   0.351   5.984 -0.7372  0.3926 -0.3917
19221TIP3    H179154   3.027   0.256   5.991  0.7399  0.4946 -0.9148
19221TIP3    H279155   3.024   0.382   6.075  1.8267  0.2479 -0.4942
19222TIP3   OH279156   0.735   4.761  17.058 -0.2091  0.4741 -0.4310
19222TIP3    H179157   0.813   4.708  17.040 -0.7721  0.0488 -1.7772
19222TIP3    H279158   0.663   4.698  17.057 -0.4286  0.5088  2.8551
19223TIP3   OH279159   0.836   6.105  15.634 -0.6802 -0.5621 -0.4922
19223TIP3    H179160   0.821   6.192  15.598 -0.5773 -0.3826 -0.1084
19223TIP3    H279161   0.931   6.094  15.631 -0.6726 -0.5590 -0.3172
19224TIP3   OH279162   1.074   5.397  11.188 -0.0273 -0.4455  0.0654
19224TIP3    H179163   1.124   5.336  11.134 -0.0440  0.0485 -0.5264
19224TIP3    H279164   0.991   5.407  11.142  0.7245  1.5789 -0.9877
19225TIP3   OH279165   2.115   6.008   0.385 -0.8822  0.7424 -0.6297
19225TIP3    H179166   2.063   6.035   0.310 -1.0045  0.9409 -0.4763
19225TIP3    H279167   2.060   5.945   0.432 -1.3218  1.5367 -0.0381
19226TIP3   OH279168   4.741   5.916  16.826  0.1365  0.1564  0.0972
19226TIP3    H179169   4.708   6.006  16.829  1.3128  0.5910  0.8297
19226TIP3    H279170   4.699   5.872  16.900 -1.1449 -0.1750 -0.7984
19227TIP3   OH279171   1.493   5.590  11.955  0.3956 -0.4144 -0.3140
19227TIP3    H179172   1.583   5.556  11.952  1.6141  2.2113  2.0605
19227TIP3    H279173   1.470   5.590  12.048 -1.1814  1.0541 -0.6564
19228TIP3   OH279174   5.505   3.379   2.368 -0.4422 -0.3430  0.2504
19228TIP3    H179175   5.543   3.406   2.452  0.0624  2.5153 -0.7742
19228TIP3    H279176   5.467   3.293   2.385  0.0288 -0.0581  3.2742
19229TIP3   OH279177   2.438   1.237   5.339  0.1173 -0.5063 -0.4633
19229TIP3    H179178   2.401   1.221   5.426 -1.2778 -0.2354 -0.9811
19229TIP3    H279179   2.373   1.202   5.279 -0.4004  1.9634 -1.4832
19230TIP3   OH279180   0.193   5.817   5.745 -0.2746  0.2634 -0.4493
19230TIP3    H179181   0.248   5.837   5.669 -0.2302  1.0348 -0.2185
19230TIP3    H279182   0.247   5.841   5.821 -0.4474 -0.1819 -0.1830
19231TIP3   OH279183   3.611   0.734  14.240  0.6078 -0.0023  0.1694
19231TIP3    H179184   3.545   0.786  14.195  1.1394 -0.3048 -1.0158
19231TIP3    H279185   3.583   0.732  14.331  0.2211  1.7981  0.1238
19232TIP3   OH279186   4.601   4.909  12.136  0.5343 -0.0018 -0.2573
19232TIP3    H179187   4.593   4.818  12.109  0.8748 -0.1267  0.0562
19232TIP3    H279188   4.695   4.923  12.147  0.5219  0.5227 -0.7652
19233TIP3   OH279189   1.846   3.592  12.178  0.8540 -0.1448  0.0105
19233TIP3    H179190   1.783   3.644  12.228  0.8394 -0.6550  0.5255
19233TIP3    H279191   1.808   3.585  12.091  0.3095 -0.2484  0.2543
19234TIP3   OH279192   5.275   5.461   2.373 -0.2515 -0.1207  0.2320
19234TIP3    H179193   5.285   5.367   2.391  0.6670  0.3627  2.6248
19234TIP3    H279194   5.291   5.503   2.458 -0.6683  2.2102 -0.7817
19235TIP3   OH279195   5.863   1.310  11.771  0.1925  0.0247 -0.0800
19235TIP3    H179196   5.908   1.340  11.850  2.2768 -1.0573 -0.7846
19235TIP3    H279197   5.779   1.356  11.773  0.6762  0.9648  2.1113
19236TIP3   OH279198   3.786   5.040  13.333 -0.4122 -0.1554 -0.5814
19236TIP3    H179199   3.737   5.118  13.361  0.5019 -0.2590  1.4814
19236TIP3    H279200   3.756   5.024  13.244 -1.5392  1.8281 -0.6225
19237TIP3   OH279201   2.652   2.563  11.858 -0.3216 -0.3137  0.1740
19237TIP3    H179202   2.617   2.555  11.769 -0.2288  0.1704  0.0933
19237TIP3    H279203   2.628   2.651  11.886 -0.9870 -0.7075  0.9064
19238TIP3   OH279204   0.599   3.722  11.952 -0.3281 -0.6826  0.7208
19238TIP3    H179205   0.563   3.641  11.916 -0.1498 -1.3943  2.1055
19238TIP3    H279206   0.691   3.722  11.923 -0.5693 -0.4775 -0.0820
19239TIP3   OH279207   2.862   2.311   6.272 -0.1881 -0.4164  0.6617
19239TIP3    H179208   2.788   2.254   6.248 -0.2386 -0.4695  0.9463
19239TIP3    H279209   2.859   2.382   6.207 -0.6334 -0.2908  0.8139
19240TIP3   OH279210   6.553   2.271  15.249 -0.3618  0.4217  0.1428
19240TIP3    H179211   6.627   2.257  15.190  2.3128  0.5591  3.1482
19240TIP3    H279212   6.511   2.185  15.256  1.0389 -0.2911  0.1768
19241TIP3   OH279213   6.218   5.686  10.851 -0.0159  0.2128  0.2695
19241TIP3    H179214   6.148   5.745  10.880  1.5377  2.0649  0.3945
19241TIP3    H279215   6.283   5.689  10.921 -0.0144 -1.9449  0.4261
19242TIP3   OH279216   0.817   0.428  13.863  0.6443  0.2559  0.2230
19242TIP3    H179217   0.879   0.390  13.925 -0.6162 -1.0773  0.7137
19242TIP3    H279218   0.798   0.515  13.899  1.6840  0.4095  0.4346
19243TIP3   OH279219   0.023   0.278  14.082  0.3107 -0.8147  0.3638
19243TIP3    H179220  -0.014   0.198  14.117 -0.6379 -0.2560  0.6860
19243TIP3    H279221  -0.002   0.346  14.145  2.5540 -0.5068  1.0047
19244TIP3   OH279222   2.439   2.103  11.948  0.2248  0.2178 -0.3759
19244TIP3    H179223   2.489   2.025  11.969 -0.1979  0.3579  1.2563
19244TIP3    H279224   2.500   2.157  11.897  0.5760 -1.0688 -1.3791
19245TIP3   OH279225   2.896   2.281   0.964  0.3060 -0.3243 -0.2523
19245TIP3    H179226   2.944   2.330   1.031  0.2354  1.8993 -1.7148
19245TIP3    H279227   2.964   2.252   0.903  0.1125 -0.0669 -0.5876
19246TIP3   OH279228   2.127   1.869  16.797 -0.1244  0.1010 -0.3767
19246TIP3    H179229   2.141   1.858  16.703  1.4441 -0.6248 -0.0779
19246TIP3    H279230   2.033   1.889  16.804 -0.2232  0.4652 -2.1023
19247TIP3   OH279231   0.333   3.527   2.465 -0.0565 -0.1510 -0.0623
19247TIP3    H179232   0.373   3.563   2.544 -0.8739  0.6155  0.0193
19247TIP3    H279233   0.304   3.439   2.489  0.1181 -0.0953  0.3495
19248TIP3   OH279234   6.248   6.250   0.565 -0.3640  0.4238  0.1467
19248TIP3    H179235   6.157   6.277   0.576 -0.6697 -0.9486  1.3490
19248TIP3    H279236   6.246   6.184   0.497 -0.1088  1.0784 -0.5050
19249TIP3   OH279237   6.161   3.238   0.971  0.3278 -0.2085  0.0034
19249TIP3    H179238   6.213   3.257   1.049 -0.9340  1.3560  0.5153
19249TIP3    H279239   6.215   3.268   0.898  0.6024  0.3790  0.4447
19250TIP3   OH279240   4.461   3.311   4.050  0.1712 -0.7379  0.4882
19250TIP3    H179241   4.519   3.383   4.072  0.3828 -0.9475  0.6221
19250TIP3    H279242   4.511   3.259   3.987  0.5031 -1.4199  1.2909
19251TIP3   OH279243   5.646   6.803  12.524  0.5645  0.2243 -0.8520
19251TIP3    H179244   5.678   6.879  12.573  1.2419 -0.0853 -0.8052
19251TIP3    H279245   5.587   6.839  12.458  1.0444  0.8095 -0.9641
19252TIP3   OH279246   0.324   5.590   3.849 -0.4706  0.0963  0.3091
19252TIP3    H179247   0.309   5.664   3.908 -0.2102 -0.7737  1.5056
19252TIP3    H279248   0.397   5.619   3.794 -0.1458  0.6137  0.9804
19253TIP3   OH279249   2.476   4.163  14.902 -0.5260  0.5388 -0.0352
19253TIP3    H179250   2.386   4.176  14.932 -1.2945 -1.4252 -1.3021
19253TIP3    H279251   2.508   4.091  14.955  0.1384  0.9043  0.0643
19254TIP3   OH279252   1.903   2.919   2.818  0.1805 -0.8155 -0.3667
19254TIP3    H179253   1.937   2.879   2.738  1.8611 -0.1022 -0.0548
19254TIP3    H279254   1.918   3.012   2.807 -0.9201 -0.5596  0.1790
19255TIP3   OH279255   0.332   3.408  14.199 -0.4634  0.2465  0.8510
19255TIP3    H179256   0.286   3.487  14.228 -1.8785 -0.8891  1.8576
19255TIP3    H279257   0.361   3.366  14.280 -1.0021 -1.0001  0.4152
19256TIP3   OH279258   5.039   1.168   3.774  0.1994 -0.5540 -0.3283
19256TIP3    H179259   4.990   1.144   3.853 -0.4388  0.6426 -0.3303
19256TIP3    H279260   5.116   1.214   3.806 -0.5329  0.7714 -0.3899
19257TIP3   OH279261   6.195   0.412   4.095  0.2892 -0.0956  0.0184
19257TIP3    H179262   6.217   0.409   4.188 -1.7765 -2.3454  0.5305
19257TIP3    H279263   6.244   0.339   4.056  0.9154  0.6530 -0.6386
19258TIP3   OH279264   4.046   6.257   4.672  0.1937 -0.7609 -0.1642
19258TIP3    H179265   4.069   6.262   4.765  0.4936 -2.6321 -0.1062
19258TIP3    H279266   4.064   6.345   4.639  1.4162 -0.4357  1.2482
19259TIP3   OH279267   2.213   0.071  16.348  0.1395 -0.3202 -0.2282
19259TIP3    H179268   2.172  -0.005  16.389 -0.6854 -0.3574 -1.0839
19259TIP3    H279269   2.271   0.106  16.415 -0.3644 -1.0109  0.5904
19260TIP3   OH279270   2.940   3.795  15.950 -0.1496  0.2918  0.1933
19260TIP3    H179271   2.914   3.857  16.018  0.8364  0.8268  0.1011
19260TIP3    H279272   2.920   3.839  15.868 -1.5046 -0.4260  0.1157
19261TIP3   OH279273   5.340   0.293   3.370 -0.1571 -0.0562  0.3463
19261TIP3    H179274   5.392   0.260   3.444  0.3632  1.5216  0.7138
19261TIP3    H279275   5.405   0.307   3.301 -0.6614 -1.6736 -0.5041
19262TIP3   OH279276   3.511   6.695  13.028  0.4860  0.3573  0.5642
19262TIP3    H179277   3.466   6.685  13.112 -0.6814 -0.6366 -0.1431
19262TIP3    H279278   3.495   6.786  13.003 -0.9184  0.1108  0.4743
19263TIP3   OH279279   2.114   2.815   4.980 -0.4720 -0.5928  0.2486
19263TIP3    H179280   2.128   2.899   5.024 -0.2771  0.9545 -2.5144
19263TIP3    H279281   2.201   2.776   4.974 -0.4591 -0.6757  0.9246
19264TIP3   OH279282   1.767   5.787  15.803 -0.7991  0.3895 -0.7036
19264TIP3    H179283   1.753   5.838  15.723 -0.8660  0.9594 -0.3303
19264TIP3    H279284   1.842   5.828  15.845  0.7687 -1.3579 -1.6378
19265TIP3   OH279285   3.534   5.723   3.289 -0.0657 -0.3576  0.0950
19265TIP3    H179286   3.452   5.767   3.266 -1.2823 -0.7400  3.1898
19265TIP3    H279287   3.528   5.638   3.246 -1.2485 -0.3330  0.1587
19266TIP3   OH279288   3.753   2.258   4.502  0.4391 -0.0862  0.7855
19266TIP3    H179289   3.741   2.163   4.501 -0.4008 -0.0041 -1.1029
19266TIP3    H279290   3.664   2.294   4.514  0.2919  0.4394 -1.4215
19267TIP3   OH279291   1.837   4.754  16.210  0.0386  0.0731 -0.3943
19267TIP3    H179292   1.796   4.723  16.130 -0.8742 -0.9515  0.4341
19267TIP3    H279293   1.867   4.675  16.255  1.0951  0.6667 -0.0016
19268TIP3   OH279294   4.075   1.432  10.947  0.0377  0.0113  0.1374
19268TIP3    H179295   3.996   1.390  10.980 -1.0944 -0.7182 -3.1215
19268TIP3    H279296   4.059   1.526  10.961 -0.9274 -0.1928  0.5203
19269TIP3   OH279297   3.745   5.217   1.142  0.1159 -0.3640 -0.2445
19269TIP3    H179298   3.693   5.292   1.113 -1.4125 -1.6885 -1.1213
19269TIP3    H279299   3.687   5.169   1.201  0.4704 -1.6582 -0.9148
19270TIP3   OH279300   5.195   5.188   0.695  0.2792  0.2168  0.0153
19270TIP3    H179301   5.170   5.110   0.645 -0.0664 -0.4562  1.2139
19270TIP3    H279302   5.231   5.248   0.629 -1.9717  0.1552 -1.3814
19271TIP3   OH279303   0.835   5.242  13.009 -1.4612  0.7172 -0.1374
19271TIP3    H179304   0.822   5.337  13.001 -0.9971  0.9045  1.1513
19271TIP3    H279305   0.893   5.232  13.084  0.6236 -0.4598 -1.7818
19272TIP3   OH279306   4.916   0.713  14.353 -0.8156 -0.2263 -0.5559
19272TIP3    H179307   4.947   0.804  14.359  2.5899 -1.2914  0.4063
19272TIP3    H279308   4.960   0.678  14.276 -0.9421 -1.4526 -0.0909
19273TIP3   OH279309   2.602   3.604  16.354  0.2275 -0.3592  0.1610
19273TIP3    H179310   2.689   3.643  16.351  0.6121 -1.2370 -1.0565
19273TIP3    H279311   2.594   3.558  16.270 -1.2260 -0.6741  0.4543
19274TIP3   OH279312   1.308   1.072  16.992 -0.3138  0.2578 -0.4748
19274TIP3    H179313   1.240   1.111  16.938 -0.8346 -0.2285 -0.1753
19274TIP3    H279314   1.387   1.122  16.971 -0.4869  0.0120 -1.7575
19275TIP3   OH279315   6.218   5.077  12.401 -0.2266 -0.6726  0.2048
19275TIP3    H179316   6.143   5.112  12.449  0.0863  0.5643 -0.1798
19275TIP3    H279317   6.250   5.005  12.455 -1.5760 -1.1043  0.4614
19276TIP3   OH279318   3.125   4.993   5.524 -0.2792  0.3513 -0.2699
19276TIP3    H179319   3.039   4.983   5.482  0.3295 -0.4106 -1.4123
19276TIP3    H279320   3.116   5.070   5.580 -1.3714  0.9669 -1.2456
19277TIP3   OH279321   6.741   4.309   4.666  0.1012  0.5837 -0.2727
19277TIP3    H179322   6.791   4.238   4.707 -0.8131  0.4105  0.5692
19277TIP3    H279323   6.800   4.344   4.599  1.0082 -0.1991  0.0954
19278TIP3   OH279324   3.466   4.389   5.239  0.1169 -0.0913 -0.3694
19278TIP3    H179325   3.428   4.440   5.168 -1.6943 -0.3249  0.3925
19278TIP3    H279326   3.391   4.357   5.290  1.3325 -0.3480  1.3646
19279TIP3   OH279327   3.523   0.613  14.542  0.0510 -0.1684 -0.4463
19279TIP3    H179328   3.483   0.530  14.516  0.0824 -0.1207 -0.6459
19279TIP3    H279329   3.450   0.673  14.551  0.0200 -0.2395 -0.2180
19280TIP3   OH279330   2.447   0.160   0.376 -0.0101  0.0331 -0.1209
19280TIP3    H179331   2.513   0.111   0.327  0.5701  0.7032 -0.0302
19280TIP3    H279332   2.397   0.207   0.309 -0.7199 -0.8413 -0.2261
19281TIP3   OH279333   5.162   3.492  14.618 -0.2196  0.3247 -0.0296
19281TIP3    H179334   5.079   3.523  14.654 -0.2391 -0.0300  0.2318
19281TIP3    H279335   5.229   3.539  14.667 -0.2615  0.4272 -0.0709
19282TIP3   OH279336   0.100   5.646  17.119  0.2610  0.0411  0.4423
19282TIP3    H179337   0.166   5.661  17.186 -0.6042 -1.2237  1.6358
19282TIP3    H279338   0.020   5.686  17.155  0.1304  0.7310 -0.5618
19283TIP3   OH279339   6.555   5.769   1.940  0.6091 -0.1642  0.2027
19283TIP3    H179340   6.595   5.838   1.886 -1.0450  0.5879 -0.1100
19283TIP3    H279341   6.597   5.689   1.909 -0.1465  0.2537 -2.1338
19284TIP3   OH279342   3.618   0.388   5.201 -0.5135  0.6406  0.0484
19284TIP3    H179343   3.711   0.365   5.195 -0.3341  0.7885  1.8363
19284TIP3    H279344   3.573   0.304   5.210 -0.5272  0.5971 -0.3849
19285TIP3   OH279345   0.972   2.629   4.107 -0.2758  0.3164 -0.2371
19285TIP3    H179346   1.062   2.597   4.107 -0.5740 -0.6264 -1.4715
19285TIP3    H279347   0.931   2.588   4.183  0.1502  0.1384 -0.1058
19286TIP3   OH279348   0.062   1.170  13.565  0.1977 -0.5481  0.4248
19286TIP3    H179349   0.008   1.212  13.633 -1.1707 -1.8794  0.2086
19286TIP3    H279350   0.060   1.232  13.492  2.7367  1.5150  1.9315
19287TIP3   OH279351   0.664   4.060   6.377 -0.2442  0.1758  0.7414
19287TIP3    H179352   0.593   3.996   6.381  1.0181 -1.2505  1.3341
19287TIP3    H279353   0.739   4.015   6.414  1.1736  1.3947 -0.5143
19288TIP3   OH279354   1.458   1.425   4.192  0.0158 -0.1405  0.4656
19288TIP3    H179355   1.442   1.471   4.109 -1.2038  0.2621  0.9143
19288TIP3    H279356   1.553   1.413   4.194  0.1246  0.3821 -0.7055
19289TIP3   OH279357   3.608   5.807  13.743  0.7168  0.2618  0.2154
19289TIP3    H179358   3.572   5.875  13.685 -0.9787  1.1078  2.0995
19289TIP3    H279359   3.558   5.729  13.722  1.9223 -0.1614 -1.2115
19290TIP3   OH279360   3.735   1.835   5.278  0.2665 -0.1946  0.0344
19290TIP3    H179361   3.702   1.848   5.367  0.8335 -1.6220  0.4745
19290TIP3    H279362   3.816   1.786   5.289 -0.8249 -2.4990 -1.3303
19291TIP3   OH279363   2.721   4.467   6.409  0.1985 -0.3589  0.7083
19291TIP3    H179364   2.799   4.451   6.461 -0.1914 -0.5089  1.2518
19291TIP3    H279365   2.648   4.441   6.465 -0.2866  0.4088  0.4534
19292TIP3   OH279366   5.215   0.134  17.239 -0.2391 -0.5558 -0.5884
19292TIP3    H179367   5.248   0.100  17.156 -1.6582 -1.5370 -0.7838
19292TIP3    H279368   5.127   0.165  17.219 -1.0042 -1.7308  0.7138
19293TIP3   OH279369   1.843   6.589   0.770  0.0149 -0.6822 -0.0523
19293TIP3    H179370   1.928   6.559   0.738 -0.1616 -1.1549 -0.0916
19293TIP3    H279371   1.782   6.519   0.745 -0.2344 -0.7648  0.7549
19294TIP3   OH279372   5.387   5.608  14.226 -0.0188  0.7367  0.6034
19294TIP3    H179373   5.463   5.570  14.271 -0.3011 -1.0076 -0.2811
19294TIP3    H279374   5.413   5.698  14.208  0.3547  1.3242  3.5876
19295TIP3   OH279375   5.890   5.761   0.314  0.2537  0.5441 -0.2131
19295TIP3    H179376   5.850   5.676   0.297  1.6417 -0.2296  0.2462
19295TIP3    H279377   5.934   5.784   0.232  2.6613 -0.7994  0.5797
19296TIP3   OH279378   3.953   1.305  15.709 -0.1424  0.1921  0.3816
19296TIP3    H179379   4.017   1.248  15.752 -0.4827  1.0168  2.0509
19296TIP3    H279380   3.871   1.256  15.712  0.4061 -1.0438 -2.1273
19297TIP3   OH279381   1.928   2.873  12.475  1.2652 -0.0086 -0.1070
19297TIP3    H179382   1.868   2.815  12.428  1.7860 -1.0865  0.5143
19297TIP3    H279383   1.965   2.929  12.408 -0.2413  0.5131 -0.5369
19298TIP3   OH279384   3.513   0.218  17.015  0.4937 -0.8098 -0.3834
19298TIP3    H179385   3.517   0.162  17.093 -0.0165  0.8702  0.9160
19298TIP3    H279386   3.420   0.221  16.993  0.0238  1.8328  1.4307
19299TIP3   OH279387   2.491   6.610   1.526  0.7339 -0.0671 -0.0282
19299TIP3    H179388   2.451   6.523   1.524 -0.2049  0.3404 -2.2861
19299TIP3    H279389   2.416   6.671   1.526  1.3613  0.7193 -0.0750
19300TIP3   OH279390   0.765   3.584   4.092 -0.3743 -0.0142  0.3474
19300TIP3    H179391   0.729   3.661   4.047  0.0770  0.5932  1.0147
19300TIP3    H279392   0.826   3.620   4.155 -1.5281 -0.8081  1.9825
19301TIP3   OH279393   2.439   3.862   0.831 -0.0793  0.1573 -0.5204
19301TIP3    H179394   2.381   3.934   0.806  0.4476  1.1796  1.0402
19301TIP3    H279395   2.527   3.896   0.815  0.1801 -0.0743  0.3796
19302TIP3   OH279396   6.441   1.080  15.095 -0.3611 -0.0170 -0.6704
19302TIP3    H179397   6.402   1.164  15.071  0.2143  0.4394 -0.0776
19302TIP3    H279398   6.533   1.088  15.070 -0.1478 -0.1980  0.0348
19303TIP3   OH279399   4.355   0.113   5.871 -0.2979  0.3179  0.3174
19303TIP3    H179400   4.334   0.032   5.918  0.6513  1.1265  2.2268
19303TIP3    H279401   4.402   0.083   5.793 -2.2857 -1.0824 -0.4436
19304TIP3   OH279402   5.880   3.635  16.137 -0.4040  0.1554 -0.0970
19304TIP3    H179403   5.869   3.616  16.230  1.0692  0.5956  0.1847
19304TIP3    H279404   5.882   3.731  16.133  1.5289  0.1506 -0.2884
19305TIP3   OH279405   0.043   3.455   2.727  0.8694  0.1072  0.2221
19305TIP3    H179406  -0.021   3.385   2.734  1.4346 -0.4732 -0.3779
19305TIP3    H279407  -0.005   3.528   2.687 -0.3471  0.8914  2.8573
19306TIP3   OH279408   3.444   3.836   0.406 -0.0020  0.7101 -0.2665
19306TIP3    H179409   3.489   3.869   0.328 -0.8732  0.4155 -0.9145
19306TIP3    H279410   3.483   3.749   0.421 -0.2445  0.5136 -0.7427
19307TIP3   OH279411   5.773   2.758   1.324  0.3019 -0.0559  0.0977
19307TIP3    H179412   5.694   2.712   1.355 -0.3867  0.1685 -1.2369
19307TIP3    H279413   5.771   2.842   1.368 -1.8230  1.1218 -1.9996
19308TIP3   OH279414   2.156   4.120  15.038  0.3636 -0.4710  0.0239
19308TIP3    H179415   2.069   4.144  15.070 -0.1617  0.6879 -2.0793
19308TIP3    H279416   2.214   4.187  15.073  0.2541 -0.6770  0.6092
19309TIP3   OH279417   4.094   4.768  16.443 -0.0421  0.0768  0.2955
19309TIP3    H179418   4.091   4.717  16.525 -0.6322 -1.8374 -0.8454
19309TIP3    H279419   4.187   4.784  16.429  0.0930  0.1035  1.1510
19310TIP3   OH279420   1.525   6.377  13.674  0.5149  0.1653 -0.3701
19310TIP3    H179421   1.549   6.333  13.593  0.3583  0.5212 -0.6125
19310TIP3    H279422   1.600   6.363  13.732  0.4286 -0.4849 -0.4135
19311TIP3   OH279423   0.742   5.617   5.939 -0.3186 -0.3686 -0.4981
19311TIP3    H179424   0.697   5.632   6.023  3.8651  2.0294  1.6846
19311TIP3    H279425   0.708   5.684   5.881 -0.3371  0.7578  0.7605
19312TIP3   OH279426   6.415   2.990  16.813  0.0357 -0.4042 -0.4620
19312TIP3    H179427   6.375   3.021  16.731  0.0124  0.0288 -0.2918
19312TIP3    H279428   6.341   2.975  16.872  0.1243  0.5930 -0.0818
19313TIP3   OH279429   4.783   4.597  14.801  0.5583 -0.0566 -0.0359
19313TIP3    H179430   4.797   4.692  14.797  2.4272 -0.3005 -0.0161
19313TIP3    H279431   4.821   4.563  14.720  2.2624 -1.0110  1.1064
19314TIP3   OH279432   4.015   0.747  15.746  0.3629  0.0740  0.3104
19314TIP3    H179433   3.959   0.779  15.816 -0.1155 -0.8255  0.3399
19314TIP3    H279434   4.103   0.780  15.769  0.4304 -1.1353  1.9322
19315TIP3   OH279435   4.606   2.366   0.300  0.2652  0.3785 -0.1071
19315TIP3    H179436   4.652   2.326   0.373 -0.5727 -0.1438  0.1475
19315TIP3    H279437   4.515   2.335   0.308 -0.4926  2.5298  0.2473
19316TIP3   OH279438   1.330   0.521  15.688  0.7710 -0.4063 -0.1424
19316TIP3    H179439   1.356   0.430  15.673  0.3963 -0.1474 -2.8166
19316TIP3    H279440   1.398   0.557  15.744  0.1899 -2.6589  2.2185
19317TIP3   OH279441   2.908   5.933   0.698  0.0284  0.0403 -0.7435
19317TIP3    H179442   2.819   5.914   0.730  0.1921  0.5396  0.0450
19317TIP3    H279443   2.896   6.006   0.637  0.0571  1.1731  0.5565
19318TIP3   OH279444   2.714   5.528   2.363 -0.6471 -0.2803  0.0865
19318TIP3    H179445   2.668   5.597   2.315 -2.1547 -0.6151  0.9801
19318TIP3    H279446   2.807   5.548   2.353 -1.0533  2.0257  0.5173
19319TIP3   OH279447   4.220   0.365   2.016  0.1136  0.5764 -0.3876
19319TIP3    H179448   4.266   0.298   1.966  0.5219 -0.2511  1.0318
19319TIP3    H279449   4.127   0.347   2.002  0.2239  0.1153 -0.5426
19320TIP3   OH279450   1.967   2.595   1.805 -0.0036 -0.7931  0.0272
19320TIP3    H179451   2.048   2.613   1.852  0.0973 -3.0380  0.8463
19320TIP3    H279452   1.929   2.519   1.850 -2.0562 -0.4276 -0.9568
19321TIP3   OH279453   6.741   0.086  12.286  0.2585  0.2944 -1.0087
19321TIP3    H179454   6.785   0.061  12.205  1.0951  0.8214 -0.7290
19321TIP3    H279455   6.674   0.148  12.259 -0.4688 -0.6679 -1.4634
19322TIP3   OH279456   5.330   1.447   4.626  0.1325  0.5083 -0.2255
19322TIP3    H179457   5.355   1.473   4.715  2.8083  0.7773 -0.9723
19322TIP3    H279458   5.348   1.353   4.622 -1.1059  0.2555 -0.1578
19323TIP3   OH279459   5.766   5.546   5.016  0.6822 -0.0228 -0.6156
19323TIP3    H179460   5.813   5.470   5.049 -0.3952 -0.3300  0.2557
19323TIP3    H279461   5.710   5.512   4.947 -0.1157 -0.1225  0.0606
19324TIP3   OH279462   1.140   3.589  15.642  0.3538  0.2139  0.0524
19324TIP3    H179463   1.187   3.541  15.574  0.1172 -1.0487  0.7486
19324TIP3    H279464   1.051   3.596  15.610  0.1639 -0.6815  0.3766
19325TIP3   OH279465   6.322   4.018  11.121  0.6042 -0.0508  0.0685
19325TIP3    H179466   6.373   3.937  11.129  0.2285 -0.2455  0.6104
19325TIP3    H279467   6.289   4.017  11.031 -0.1965 -0.9998  0.3503
19326TIP3   OH279468   2.015   4.391  11.723 -0.2606 -0.7239 -0.0156
19326TIP3    H179469   1.971   4.327  11.780 -0.3401  0.6120  1.5119
19326TIP3    H279470   1.961   4.469  11.729  0.7451  0.0326 -0.4699
19327TIP3   OH279471   5.303   6.506   3.651 -0.2614 -0.0385  0.3008
19327TIP3    H179472   5.308   6.600   3.631  1.7128 -0.7364 -3.1601
19327TIP3    H279473   5.381   6.489   3.703  0.6089 -0.0930 -0.9791
19328TIP3   OH279474   4.163   4.416   4.043 -0.1427 -0.3746 -0.1452
19328TIP3    H179475   4.109   4.407   3.965 -2.3099  0.0810  1.2137
19328TIP3    H279476   4.111   4.378   4.114  1.0244  0.6937  1.3734
19329TIP3   OH279477   5.717   5.629  16.110  0.1416  0.3990  0.2558
19329TIP3    H179478   5.681   5.541  16.119  2.7321 -1.6496 -5.0702
19329TIP3    H279479   5.645   5.681  16.075 -0.2743 -0.9020 -0.9078
19330TIP3   OH279480   5.136   3.249   6.972 -0.2332  0.1627  0.3872
19330TIP3    H179481   5.063   3.305   6.946 -0.0902  0.2342  0.1321
19330TIP3    H279482   5.214   3.300   6.949 -0.1005  0.2362  0.9704
19331TIP3   OH279483   0.932   6.057  11.564  0.3043 -0.0741  0.2111
19331TIP3    H179484   0.981   6.117  11.508 -0.5690 -0.4160 -0.9550
19331TIP3    H279485   0.972   6.067  11.650  0.5072  1.8220 -0.0468
19332TIP3   OH279486   2.785   5.560   3.555 -0.2773 -0.0190 -0.1943
19332TIP3    H179487   2.710   5.501   3.562 -0.8504  0.6832 -0.3460
19332TIP3    H279488   2.750   5.640   3.517  0.3262  0.7404  0.8019
19333TIP3   OH279489   6.528   0.210  12.084  0.0219 -0.2081 -0.3812
19333TIP3    H179490   6.443   0.252  12.094 -0.0829 -0.2884 -0.9235
19333TIP3    H279491   6.550   0.220  11.991  0.9443  0.4632 -0.1100
19334TIP3   OH279492   2.581   2.267   5.621  0.2311  0.1142 -0.4926
19334TIP3    H179493   2.635   2.193   5.650  0.6811  0.8190  0.5201
19334TIP3    H279494   2.491   2.234   5.624  0.3324 -0.0786  0.9712
19335TIP3   OH279495   1.018   4.568  14.314  0.2390 -0.3607  0.2075
19335TIP3    H179496   0.959   4.500  14.345  0.5968 -1.4242 -1.3277
19335TIP3    H279497   1.031   4.626  14.390 -0.9463 -1.3746  1.2131
19336TIP3   OH279498   5.212   3.042   3.912 -0.0770 -0.6690 -0.5659
19336TIP3    H179499   5.172   2.955   3.911  0.2800 -0.8751  1.1262
19336TIP3    H279500   5.149   3.097   3.866 -0.9484 -1.5530 -0.4740
19337TIP3   OH279501   4.909   0.662   1.625  0.4797  0.3569  0.0285
19337TIP3    H179502   4.850   0.598   1.663 -0.0143  0.8786  0.1518
19337TIP3    H279503   4.957   0.698   1.699 -0.6199  1.5119  0.2026
19338TIP3   OH279504   0.969   5.337  16.561  0.0620  0.1831 -0.0117
19338TIP3    H179505   0.911   5.413  16.554 -0.9059 -0.6312 -1.2270
19338TIP3    H279506   1.056   5.375  16.574 -0.5527  1.4601  0.5422
19339TIP3   OH279507   5.950   5.408   5.993  0.2559  0.8458  0.0733
19339TIP3    H179508   5.915   5.378   5.909 -0.9505  0.1572  0.8012
19339TIP3    H279509   6.028   5.354   6.007  1.1400  1.7701 -1.1377
19340TIP3   OH279510   2.967   1.396  13.778 -0.0141 -0.1158  0.2084
19340TIP3    H179511   2.995   1.423  13.866  2.0288 -1.0750 -0.0959
19340TIP3    H279512   3.010   1.312  13.763 -1.7273 -0.8356 -1.0653
19341TIP3   OH279513   6.054   0.780  12.118 -0.0787  0.0069 -0.3000
19341TIP3    H179514   6.137   0.761  12.075 -0.3216 -0.1808 -0.6967
19341TIP3    H279515   6.028   0.698  12.158 -0.5462 -0.2040 -1.0081
19342TIP3   OH279516   2.706   5.913  14.381 -0.1721 -0.0374  0.0148
19342TIP3    H179517   2.775   5.903  14.447 -0.9110 -0.1084  0.7990
19342TIP3    H279518   2.661   5.828  14.381 -0.3552  0.0613 -0.3749
19343TIP3   OH279519   6.086   0.192   3.837 -0.4941 -0.2336 -0.1834
19343TIP3    H179520   6.116   0.215   3.750 -0.1535 -0.7465 -0.2066
19343TIP3    H279521   5.996   0.160   3.824 -0.3977 -0.4330 -0.3653
19344TIP3   OH279522   3.772   4.747  13.817 -0.2509 -0.4616 -0.1213
19344TIP3    H179523   3.684   4.732  13.784 -0.1522 -1.4462  0.0335
19344TIP3    H279524   3.789   4.840  13.800 -1.3079 -0.2671 -0.1483
19345TIP3   OH279525   4.716   6.751   5.382  0.0173 -0.0931 -0.3146
19345TIP3    H179526   4.657   6.815   5.343 -1.2080 -0.4045  0.9566
19345TIP3    H279527   4.749   6.795   5.461 -1.6068 -1.3323  1.1171
19346TIP3   OH279528   6.653   4.494  15.324  0.0912 -0.2345 -0.1680
19346TIP3    H179529   6.742   4.514  15.297  0.0832  0.3068  0.1910
19346TIP3    H279530   6.664   4.445  15.406  0.0278  1.3439  0.8173
19347TIP3   OH279531   5.169   4.854   0.256  0.8323 -0.2316  0.4782
19347TIP3    H179532   5.179   4.922   0.189  2.2194  0.9541  1.8091
19347TIP3    H279533   5.100   4.797   0.222 -1.0245  2.3263 -0.2825
19348TIP3   OH279534   5.076   6.043   0.650  0.3883 -0.5366 -0.5423
19348TIP3    H179535   5.025   5.962   0.638  0.1027 -0.2648 -1.2571
19348TIP3    H279536   5.166   6.017   0.629  0.7402 -1.2484  1.6639
19349TIP3   OH279537   6.260   2.016   4.689  0.0801 -0.4738 -0.2556
19349TIP3    H179538   6.198   2.057   4.749  1.3701 -2.3992  2.6059
19349TIP3    H279539   6.323   2.084   4.668 -0.3023  0.1966  0.7271
19350TIP3   OH279540   2.835   3.636  16.859 -0.3356  0.0629  0.3251
19350TIP3    H179541   2.886   3.575  16.805 -0.8034 -0.1569  0.1251
19350TIP3    H279542   2.758   3.586  16.884 -0.2517  0.2576  0.9785
19351TIP3   OH279543   0.630   4.925  15.664  0.4099  0.1476  0.0352
19351TIP3    H179544   0.705   4.971  15.625 -0.8824  2.4102  0.0447
19351TIP3    H279545   0.555   4.983  15.647 -1.6206 -2.5964 -1.0942
19352TIP3   OH279546   0.796   1.187   5.707 -0.0171 -0.6780  0.3795
19352TIP3    H179547   0.811   1.217   5.797  0.5014 -0.5246  0.2471
19352TIP3    H279548   0.842   1.251   5.653  0.2990 -1.1881  0.0427
19353TIP3   OH279549   1.223   0.730  12.871 -0.0414  0.3026  0.2023
19353TIP3    H179550   1.185   0.704  12.955 -0.4112  2.4619  0.7780
19353TIP3    H279551   1.196   0.821  12.861  0.0305  0.1057 -2.2648
19354TIP3   OH279552   0.162   2.686   3.133  0.5043 -0.1428 -0.2520
19354TIP3    H179553   0.223   2.688   3.206  2.5668  0.1610 -1.8739
19354TIP3    H279554   0.190   2.610   3.081 -1.9025 -1.3259  0.0034
19355TIP3   OH279555   0.990   0.083   1.685 -0.6104  0.0105  0.1980
19355TIP3    H179556   1.052   0.012   1.703  1.1522  1.4277  0.0135
19355TIP3    H279557   0.907   0.052   1.721  0.1611 -2.0083  0.3753
19356TIP3   OH279558   2.850   5.154   1.639  0.2258  0.7728  0.0898
19356TIP3    H179559   2.849   5.062   1.668  0.5736 -0.4740 -3.4142
19356TIP3    H279560   2.770   5.164   1.588  0.6339  2.1740 -0.3186
19357TIP3   OH279561   6.110   3.850   3.808 -0.7217 -0.0491  0.9148
19357TIP3    H179562   6.123   3.771   3.754 -1.1214 -0.4342  1.3709
19357TIP3    H279563   6.020   3.842   3.840 -0.2662 -0.2089  2.2277
19358TIP3   OH279564   1.203   1.978   3.495 -0.3218  0.4503 -0.1003
19358TIP3    H179565   1.182   1.885   3.497 -0.0024  0.3751  1.6071
19358TIP3    H279566   1.256   1.989   3.417 -1.4898 -0.5227 -1.0716
19359TIP3   OH279567   6.678   4.511  11.258  0.6681  0.0765  0.1015
19359TIP3    H179568   6.621   4.502  11.182  0.6731 -0.8781  0.2053
19359TIP3    H279569   6.691   4.606  11.267  1.1736  0.1782 -1.4444
19360TIP3   OH279570   5.886   2.457   5.092  0.3994  0.1499 -0.2598
19360TIP3    H179571   5.792   2.455   5.080 -0.0586  1.6918  2.2088
19360TIP3    H279572   5.918   2.517   5.025 -0.5281  0.5189 -0.3850
19361TIP3   OH279573   6.542   5.626   6.290 -0.6756  0.1623 -0.4941
19361TIP3    H179574   6.559   5.569   6.365  0.2956  1.3903  0.2556
19361TIP3    H279575   6.621   5.621   6.237 -1.8915 -1.8392 -2.2770
19362TIP3   OH279576   1.391   4.016   5.419  0.7741  0.2686 -0.0786
19362TIP3    H179577   1.298   4.035   5.407  0.3292 -1.2978  0.6758
19362TIP3    H279578   1.397   3.976   5.506  1.5672 -2.9441 -1.4456
19363TIP3   OH279579   2.179   0.588   1.754  0.0524 -0.3247 -1.4583
19363TIP3    H179580   2.083   0.585   1.761 -0.0307  0.3860 -2.1987
19363TIP3    H279581   2.201   0.681   1.764  0.7274 -0.5560 -0.6539
19364TIP3   OH279582   3.876   0.955  11.703 -0.1483  0.0384 -0.0456
19364TIP3    H179583   3.893   0.964  11.797 -1.0363 -1.8639  0.3507
19364TIP3    H279584   3.878   1.045  11.670  2.3236  0.6032  1.3701
19365TIP3   OH279585   0.857   0.739   5.559 -0.5485  0.2462 -0.5718
19365TIP3    H179586   0.941   0.697   5.540  0.1366  1.4098 -0.2153
19365TIP3    H279587   0.796   0.699   5.497  0.2336 -0.7143 -0.7489
19366TIP3   OH279588   1.586   3.870   1.568  0.6139  0.4272  0.7536
19366TIP3    H179589   1.679   3.866   1.547  0.7238  1.2463  1.0495
19366TIP3    H279590   1.552   3.785   1.542  1.1949  0.5660 -0.5592
19367TIP3   OH279591   1.796   4.970   3.353  0.5598  0.8807  0.8251
19367TIP3    H179592   1.716   4.998   3.398  0.2128  1.0528  0.1158
19367TIP3    H279593   1.839   4.911   3.415 -0.6678 -0.0872  0.7844
19368TIP3   OH279594   4.503   0.288   2.448  0.4683 -0.4281 -0.2353
19368TIP3    H179595   4.443   0.226   2.490 -1.6901  0.5804 -1.5981
19368TIP3    H279596   4.495   0.368   2.500 -1.1908  0.4030 -1.6483
19369TIP3   OH279597   1.564   4.298  17.166 -0.7394 -0.3435 -0.3399
19369TIP3    H179598   1.656   4.316  17.186 -0.4801 -0.0494 -1.6925
19369TIP3    H279599   1.516   4.369  17.210 -0.3588 -0.6741  0.6298
19370TIP3   OH279600   6.791   1.714  16.526  0.6350  0.0898 -0.2199
19370TIP3    H179601   6.711   1.689  16.572 -0.2460 -0.9373 -2.2184
19370TIP3    H279602   6.857   1.653  16.561  0.3866  0.4016  0.8393
19371TIP3   OH279603   4.141   6.631  16.596 -0.4558  0.6448  0.1528
19371TIP3    H179604   4.117   6.722  16.580 -0.8603  0.5339  0.0990
19371TIP3    H279605   4.222   6.635  16.646 -0.9993  1.0531  1.0075
19372TIP3   OH279606   6.535   5.896   5.828 -0.2596  0.9222  0.2020
19372TIP3    H179607   6.617   5.903   5.878  1.4539  0.2866 -2.3135
19372TIP3    H279608   6.481   5.836   5.879  2.1975 -1.3313  0.4026
19373TIP3   OH279609   2.393   6.338   4.891  0.5444 -0.4545  0.1548
19373TIP3    H179610   2.315   6.283   4.876  0.7240 -0.8480  0.6414
19373TIP3    H279611   2.378   6.415   4.836  0.1854 -0.8901 -0.3828
19374TIP3   OH279612   4.995   2.873  11.219  0.2227  0.5007  0.2468
19374TIP3    H179613   4.954   2.877  11.132 -0.3000  2.7180  0.5293
19374TIP3    H279614   4.992   2.780  11.243  0.8227 -0.2576 -2.2823
19375TIP3   OH279615   1.734   4.480   2.670  0.4064 -0.2740 -0.6670
19375TIP3    H179616   1.819   4.523   2.660 -0.1934  0.6883 -1.8503
19375TIP3    H279617   1.672   4.553   2.681 -0.2172 -0.9756  0.7664
19376TIP3   OH279618   6.744   5.481  16.012  0.2702  0.2357 -0.0444
19376TIP3    H179619   6.760   5.419  15.941 -0.5048  1.8787 -1.7251
19376TIP3    H279620   6.764   5.567  15.974  2.3135  1.0339  2.4928
19377TIP3   OH279621   5.684   6.050  14.181 -0.1776  0.5030 -0.5882
19377TIP3    H179622   5.619   6.060  14.112 -0.9863 -0.5564 -0.0104
19377TIP3    H279623   5.723   5.964  14.165 -0.1834  0.3669  0.1079
19378TIP3   OH279624   4.151   3.253   4.190 -0.1140 -0.1505 -0.4209
19378TIP3    H179625   4.222   3.194   4.218 -1.0548 -1.5120 -0.8140
19378TIP3    H279626   4.102   3.271   4.270  1.2026  1.6194  0.0555
19379TIP3   OH279627   6.299   4.746   0.179 -0.4133 -0.0091 -0.0706
19379TIP3    H179628   6.246   4.769   0.103  1.2105 -0.3935 -1.3813
19379TIP3    H279629   6.331   4.658   0.161  2.0442  0.8292 -0.1943
19380TIP3   OH279630   3.635   0.564   4.460  0.2941 -0.1342  0.4093
19380TIP3    H179631   3.669   0.509   4.531 -0.5498 -0.5959  0.4690
19380TIP3    H279632   3.664   0.519   4.380  1.8351  0.7589  0.4416
19381TIP3   OH279633   1.305   0.100   3.371 -0.2980 -0.4945 -0.5408
19381TIP3    H179634   1.388   0.061   3.345 -0.2935 -1.3001  0.6233
19381TIP3    H279635   1.283   0.058   3.454  0.1911  2.6173  1.3565
19382TIP3   OH279636   6.706   4.705   0.943  0.2994 -0.0165 -0.3065
19382TIP3    H179637   6.668   4.695   0.856 -0.6439 -0.6714  0.1694
19382TIP3    H279638   6.637   4.745   0.996  1.3732  1.8306 -0.2031
19383TIP3   OH279639   6.620   2.319  13.407 -0.1293  0.3210 -0.1337
19383TIP3    H179640   6.630   2.225  13.424  1.9172  0.0338 -2.3920
19383TIP3    H279641   6.530   2.328  13.376 -0.8234 -0.5997  1.4396
19384TIP3   OH279642   2.394   4.692   6.021 -0.4140  0.1410 -0.1961
19384TIP3    H179643   2.412   4.786   6.013  0.0709  0.0569 -0.1114
19384TIP3    H279644   2.350   4.683   6.106 -1.4889  0.4393 -0.7148
19385TIP3   OH279645   0.225   1.377  11.979 -0.2382  0.3836 -0.1667
19385TIP3    H179646   0.293   1.408  11.920 -1.3372  1.4699 -0.9156
19385TIP3    H279647   0.272   1.351  12.059  1.0807  0.6292 -0.8422
19386TIP3   OH279648   6.522   5.556   0.688 -0.2521  0.9606  0.0017
19386TIP3    H179649   6.456   5.578   0.621 -0.2749 -0.2178 -0.3802
19386TIP3    H279650   6.589   5.508   0.641 -0.6930 -0.6659  0.9651
19387TIP3   OH279651   4.796   2.672   1.758 -0.0189 -0.1529 -0.0988
19387TIP3    H179652   4.770   2.602   1.698 -0.8427 -0.0133  0.0726
19387TIP3    H279653   4.713   2.700   1.797  0.3837  0.4957  0.2900
19388TIP3   OH279654   2.951   3.938   1.463  0.3695  0.2366  0.6788
19388TIP3    H179655   2.886   3.990   1.416  0.6946  0.7149  0.7584
19388TIP3    H279656   3.024   3.997   1.477  0.7172 -0.2225  0.8296
19389TIP3   OH279657   0.023   6.450   2.395  0.7978  0.0059  0.0321
19389TIP3    H179658  -0.064   6.415   2.415  0.6449  0.1532 -0.3747
19389TIP3    H279659   0.010   6.504   2.317  1.0698  0.7892  0.5175
19390TIP3   OH279660   4.734   4.058   2.706  0.8039 -0.5248  0.7797
19390TIP3    H179661   4.731   4.015   2.792 -0.0517 -1.4564  0.3025
19390TIP3    H279662   4.692   3.996   2.647  1.9085 -0.1464 -0.4375
19391TIP3   OH279663   5.456   2.101   4.152  0.3163 -0.7989  0.1891
19391TIP3    H179664   5.526   2.165   4.166 -0.1936 -0.2234  0.1330
19391TIP3    H279665   5.449   2.055   4.236 -1.2426  1.1550  1.1873
19392TIP3   OH279666   3.383   0.940   2.055 -0.3306 -0.4466  0.1976
19392TIP3    H179667   3.322   1.014   2.066 -0.4507 -0.2537 -1.4744
19392TIP3    H279668   3.456   0.977   2.005 -0.7572 -1.6093 -1.3603
19393TIP3   OH279669   1.906   0.543   1.716 -0.0421 -0.2401  0.2485
19393TIP3    H179670   1.885   0.636   1.722  0.0859 -0.2973  2.6197
19393TIP3    H279671   1.835   0.500   1.764  1.9253 -0.9894  2.6692
19394TIP3   OH279672   2.387   3.846   2.643 -0.4301  0.5877 -0.1788
19394TIP3    H179673   2.439   3.812   2.570 -0.4875  0.0145  0.0513
19394TIP3    H279674   2.444   3.912   2.684 -1.5845  3.4803 -2.7701
19395TIP3   OH279675   0.561   5.830   5.818  0.4523 -0.3076 -0.3717
19395TIP3    H179676   0.502   5.795   5.885  1.3143  0.9964  1.1437
19395TIP3    H279677   0.532   5.920   5.804  2.8186  0.8836  1.4861
19396TIP3   OH279678   2.519   1.686  12.061 -0.4969  0.1183  0.0641
19396TIP3    H179679   2.449   1.745  12.088 -0.8084  0.2808 -1.0472
19396TIP3    H279680   2.529   1.625  12.134  0.4911  2.0758  1.6614
19397TIP3   OH279681   2.452   5.106   4.144  0.1658 -0.6480 -0.0147
19397TIP3    H179682   2.443   5.030   4.202 -1.4296 -0.1673  0.3961
19397TIP3    H279683   2.367   5.115   4.102 -0.2763  1.9226  1.2214
19398TIP3   OH279684   5.253   6.257   4.449 -1.0362 -0.1097 -0.0898
19398TIP3    H179685   5.158   6.260   4.462 -0.9169  1.6781  0.6460
19398TIP3    H279686   5.290   6.250   4.537 -0.4587  1.1976 -0.2087
19399TIP3   OH279687   6.537   3.397  12.340  0.4996  0.3772 -0.0071
19399TIP3    H179688   6.469   3.367  12.280  0.7652  0.1885 -0.2169
19399TIP3    H279689   6.492   3.459  12.398  0.1143  0.1319 -0.0375
19400TIP3   OH279690   3.446   5.551   2.483 -0.5507  0.1954  0.4710
19400TIP3    H179691   3.481   5.595   2.560 -1.1394 -0.0405  0.8779
19400TIP3    H279692   3.523   5.511   2.441 -0.0462  1.3496  0.2536
19401TIP3   OH279693   3.911   5.970  13.532  0.7336  0.1154  0.3443
19401TIP3    H179694   3.942   6.037  13.471  1.7192  0.0070  0.6950
19401TIP3    H279695   3.914   6.012  13.618  0.6924 -0.1590  0.4817
19402TIP3   OH279696   0.630   0.820   5.300  0.7783 -0.1336  0.3010
19402TIP3    H179697   0.691   0.747   5.289  0.5165 -0.0862 -1.8347
19402TIP3    H279698   0.544   0.779   5.302  0.7184  0.0057  0.7662
19403TIP3   OH279699   5.124   4.792   1.700 -0.0551 -0.3926 -0.1675
19403TIP3    H179700   5.164   4.769   1.783  0.6078  2.0598  0.2473
19403TIP3    H279701   5.167   4.735   1.636  2.1914  0.3143  0.6453
19404TIP3   OH279702   0.434   4.486   1.996 -0.1695 -0.8270 -0.4852
19404TIP3    H179703   0.440   4.443   1.910  0.9157  0.6644 -1.1920
19404TIP3    H279704   0.524   4.506   2.019 -0.6136  0.8410 -0.0839
19405TIP3   OH279705   0.701   3.258   1.131 -0.4104  0.0490  0.0587
19405TIP3    H179706   0.734   3.205   1.059 -1.0653  0.1540 -0.3224
19405TIP3    H279707   0.745   3.343   1.121  0.1662 -0.2167  0.3047
19406TIP3   OH279708   3.443   1.718   4.164  0.0133  0.5491  0.2416
19406TIP3    H179709   3.430   1.778   4.237 -1.9860  0.2100  0.2097
19406TIP3    H279710   3.470   1.775   4.091  0.3072  1.1107  0.7781
19407TIP3   OH279711   2.498   5.720   1.172  0.1501 -0.0525 -0.6423
19407TIP3    H179712   2.460   5.675   1.247  0.3909  0.3820 -0.2525
19407TIP3    H279713   2.458   5.807   1.174  2.2909  0.9959  0.7291
19408TIP3   OH279714   2.570   4.544   4.027  0.4726 -0.0391 -0.1851
19408TIP3    H179715   2.534   4.478   3.968 -0.8443  0.6352 -0.1659
19408TIP3    H279716   2.615   4.607   3.970 -0.0086  0.1210 -0.3884
19409TIP3   OH279717   2.342   1.795   4.941  0.2842 -0.0472  0.1151
19409TIP3    H179718   2.381   1.780   5.028  2.0825 -1.0759 -0.8004
19409TIP3    H279719   2.284   1.720   4.928  0.6160 -0.3083  0.1179
19410TIP3   OH279720   6.520   4.609  12.836 -0.5499  0.2925  0.1007
19410TIP3    H179721   6.477   4.526  12.817  1.3716 -0.7755  0.2446
19410TIP3    H279722   6.578   4.624  12.762  0.1631  0.7845  0.7414
19411TIP3   OH279723   4.622   6.378   0.438  0.1370  0.0297 -0.1172
19411TIP3    H179724   4.662   6.303   0.394 -1.2920 -0.9305  0.1857
19411TIP3    H279725   4.600   6.347   0.526 -2.8380 -0.0663 -0.7922
19412TIP3   OH279726   3.800   1.667  14.948  0.4517  0.5185 -0.5244
19412TIP3    H179727   3.883   1.620  14.955  0.1023 -0.0300  0.0819
19412TIP3    H279728   3.740   1.604  14.907 -0.3425 -0.0593  1.3643
19413TIP3   OH279729   3.318   5.761   3.533  0.6719 -0.0813  0.0713
19413TIP3    H179730   3.412   5.775   3.545  0.2346  3.2706  0.5291
19413TIP3    H279731   3.284   5.750   3.621  0.6409 -2.0216 -0.1332
19414TIP3   OH279732   4.469   5.015   4.158  0.5412 -0.4105  0.5788
19414TIP3    H179733   4.465   5.110   4.164  0.0873 -0.4365  0.7705
19414TIP3    H279734   4.380   4.986   4.180  0.8664 -0.9178  1.2801
19415TIP3   OH279735   2.835   3.913  11.796 -0.0620 -0.0484 -0.0256
19415TIP3    H179736   2.817   3.837  11.851 -2.7059 -0.7515 -1.6805
19415TIP3    H279737   2.816   3.883  11.707 -0.0957  2.2322 -0.8477
19416TIP3   OH279738   4.779   2.716   2.854  0.0115  0.1390 -0.2043
19416TIP3    H179739   4.732   2.757   2.780 -0.5028 -0.3268 -0.1467
19416TIP3    H279740   4.871   2.730   2.834 -0.1058  3.2570  0.8955
19417TIP3   OH279741   2.921   3.968   4.388  0.6865 -0.3601 -0.4768
19417TIP3    H179742   2.885   3.926   4.310  1.3006  0.5952 -1.3082
19417TIP3    H279743   2.900   3.908   4.460 -1.2802 -0.5007 -1.1242
19418TIP3   OH279744   4.184   0.381  11.426  0.0818 -0.2408  0.1717
19418TIP3    H179745   4.180   0.389  11.330 -1.1083 -1.1863  0.1264
19418TIP3    H279746   4.093   0.379  11.454  0.4203  0.0111  1.3438
19419TIP3   OH279747   4.548   2.176   3.288 -0.6948 -0.1493 -0.4997
19419TIP3    H179748   4.583   2.245   3.232 -0.0521  0.1518  0.2622
19419TIP3    H279749   4.586   2.095   3.254  2.3864  0.3123  1.4531
19420TIP3   OH279750   4.768   0.742   0.967 -0.1084  0.1608  0.2008
19420TIP3    H179751   4.693   0.689   0.942 -2.3274  2.5015  1.4685
19420TIP3    H279752   4.836   0.718   0.904 -1.4496 -2.9458 -0.2505
19421TIP3   OH279753   0.484   0.774   0.871  0.2388  0.0547  0.2162
19421TIP3    H179754   0.433   0.848   0.838  0.7355 -0.6774 -2.5203
19421TIP3    H279755   0.446   0.698   0.826  0.7762 -1.1565  1.7116
19422TIP3   OH279756   6.016   4.818  13.140  0.5154 -0.7854  0.6051
19422TIP3    H179757   5.921   4.822  13.128  0.4599  1.3776  1.3425
19422TIP3    H279758   6.048   4.776  13.061 -1.0582 -1.6187  0.3710
19423TIP3   OH279759   3.196   5.703  12.805  0.3880  0.6226 -0.3404
19423TIP3    H179760   3.100   5.699  12.803  0.3834 -0.2707  0.8119
19423TIP3    H279761   3.219   5.681  12.895  1.7315 -0.5578 -0.9306
19424TIP3   OH279762   1.486   3.363  11.493 -0.6124  0.2556 -0.4084
19424TIP3    H179763   1.541   3.427  11.447  0.3974  1.4658  2.3071
19424TIP3    H279764   1.540   3.285  11.500 -1.1495 -0.3108 -2.0595
19425TIP3   OH279765   4.710   5.429  13.993  0.2992 -0.6222  0.0064
19425TIP3    H179766   4.749   5.411  14.078 -2.2980 -1.8161  1.0344
19425TIP3    H279767   4.620   5.454  14.012 -0.1224 -0.0803 -2.3577
19426TIP3   OH279768   3.321   3.737   6.468 -0.6170 -0.4582 -0.2037
19426TIP3    H179769   3.271   3.793   6.527 -0.7754 -0.4551 -0.3417
19426TIP3    H279770   3.294   3.763   6.380 -0.7669 -0.8217 -0.2675
19427TIP3   OH279771   3.733   0.756   4.140  0.3547  0.4938  0.1113
19427TIP3    H179772   3.769   0.692   4.200 -0.8761 -0.5641 -0.2395
19427TIP3    H279773   3.725   0.836   4.192 -1.3258 -0.5749  1.6234
19428TIP3   OH279774   3.121   5.469   5.165  0.0532  0.1788 -0.3912
19428TIP3    H179775   3.091   5.542   5.219  0.9512  0.3103 -0.0449
19428TIP3    H279776   3.072   5.394   5.197 -0.0437  0.4199  0.0450
19429TIP3   OH279777   5.748   1.855   3.048 -0.6029 -0.2560 -0.0802
19429TIP3    H179778   5.731   1.888   3.136 -0.9702 -1.2550  0.2405
19429TIP3    H279779   5.696   1.775   3.042  2.6828 -2.5937  0.3253
19430TIP3   OH279780   0.526   3.648  15.296  0.0869 -0.0469 -0.7500
19430TIP3    H179781   0.515   3.571  15.241  1.4698 -0.8581  0.0469
19430TIP3    H279782   0.576   3.709  15.242 -2.0777  0.8623 -1.8430
19431TIP3   OH279783   3.452   3.976  16.050 -0.8330 -0.3232  0.2298
19431TIP3    H179784   3.494   3.891  16.033 -0.3015 -0.2199  1.0040
19431TIP3    H279785   3.367   3.953  16.087 -1.2116 -0.5230 -0.7201
19432TIP3   OH279786   1.584   1.363  14.802  0.0909  0.6255  0.9259
19432TIP3    H179787   1.507   1.410  14.835 -0.2748  1.1600 -0.5637
19432TIP3    H279788   1.623   1.424  14.739  0.1094 -0.7028 -0.4210
19433TIP3   OH279789   3.842   5.100  14.154  0.0469 -0.7324 -0.3275
19433TIP3    H179790   3.909   5.097  14.222 -1.1641  1.0298  1.0234
19433TIP3    H279791   3.879   5.157  14.086  0.3286 -0.5647 -0.0360
19434TIP3   OH279792   0.939   4.512   1.849  0.2767  0.2807  0.0189
19434TIP3    H179793   0.853   4.549   1.870 -0.6770 -1.2660 -0.9686
19434TIP3    H279794   0.945   4.433   1.903  1.4102  0.7273  0.5971
19435TIP3   OH279795   3.681   3.430   6.165  0.3922  0.5265  0.2543
19435TIP3    H179796   3.624   3.441   6.241 -0.9219 -0.2137 -0.5830
19435TIP3    H279797   3.732   3.352   6.185 -0.9018 -0.4562 -0.1636
19436TIP3   OH279798   5.056   3.341   2.195  0.3032  0.2496 -0.0485
19436TIP3    H179799   4.961   3.340   2.188  0.3222  1.0529 -0.5942
19436TIP3    H279800   5.073   3.383   2.279  0.1797 -0.2573  0.2360
19437TIP3   OH279801   5.131   3.443  17.052  0.2268  0.3697 -0.0500
19437TIP3    H179802   5.112   3.411  16.964 -3.1279  0.0552  0.6439
19437TIP3    H279803   5.129   3.538  17.044  0.3055  0.3447 -0.3683
19438TIP3   OH279804   1.708   5.704  11.198  0.6734 -0.0599 -0.3218
19438TIP3    H179805   1.739   5.765  11.131  0.2338  1.2683  0.6628
19438TIP3    H279806   1.643   5.753  11.248 -2.1601 -2.2889 -1.4773
19439TIP3   OH279807   5.919   0.425  13.367 -0.6679 -0.1847 -0.0845
19439TIP3    H179808   5.887   0.339  13.394  1.5618 -1.0145  0.0942
19439TIP3    H279809   5.871   0.487  13.422 -2.0167 -1.2990  0.0712
19440TIP3   OH279810   1.445   4.905  16.081  0.1016 -0.5899 -0.1678
19440TIP3    H179811   1.373   4.865  16.128 -0.6336  0.2932 -0.4996
19440TIP3    H279812   1.454   4.992  16.121  1.5880 -1.0101  0.4781
19441TIP3   OH279813   2.019   1.753   2.012  0.5119 -0.0559  0.1711
19441TIP3    H179814   2.042   1.790   1.927  1.7242 -0.2736  0.3838
19441TIP3    H279815   2.053   1.664   2.010  0.8432  0.0439  0.9986
19442TIP3   OH279816   5.452   6.300   5.757  0.2896  0.5307 -0.1491
19442TIP3    H179817   5.532   6.310   5.706 -0.4395 -0.4777 -1.5739
19442TIP3    H279818   5.482   6.274   5.845  1.5425  1.2381 -0.3479
19443TIP3   OH279819   1.258   5.168   6.375  0.1173  0.1717  0.1962
19443TIP3    H179820   1.194   5.218   6.425  0.0985 -0.6389  1.0004
19443TIP3    H279821   1.291   5.103   6.437  0.0908 -0.8583 -0.8425
19444TIP3   OH279822   2.324   2.947   1.053 -0.2181  0.1604  0.6668
19444TIP3    H179823   2.343   2.854   1.037 -0.7090  0.1191  0.3009
19444TIP3    H279824   2.242   2.963   1.005 -0.2626  0.7215  0.9279
19445TIP3   OH279825   1.228   0.107   4.996 -0.3664 -0.0571 -0.2708
19445TIP3    H179826   1.255   0.070   5.080  1.6462  0.4091 -0.6741
19445TIP3    H279827   1.243   0.038   4.932 -2.1996 -0.5260 -0.2641
19446TIP3   OH279828   2.506   5.376   0.817 -0.0342 -0.2960  0.1223
19446TIP3    H179829   2.487   5.337   0.903 -1.2437 -0.5356 -0.2346
19446TIP3    H279830   2.571   5.444   0.836 -1.2604  0.5926  1.4679
19447TIP3   OH279831   3.435   3.593  16.909 -0.0040  1.2121 -0.3842
19447TIP3    H179832   3.501   3.538  16.951 -1.3079  0.6605  1.0871
19447TIP3    H279833   3.471   3.614  16.824  0.7506 -1.6274 -0.8773
19448TIP3   OH279834   6.604   0.404  15.454  0.0967 -0.1829  0.0466
19448TIP3    H179835   6.574   0.494  15.447 -0.6787 -0.0520  3.5082
19448TIP3    H279836   6.540   0.353  15.404 -0.9753  0.9397  0.2280
19449TIP3   OH279837   3.241   0.217   0.029  0.3177 -0.1725 -0.5943
19449TIP3    H179838   3.172   0.172  -0.020  1.5185 -0.0461 -2.4768
19449TIP3    H279839   3.321   0.201  -0.021  1.5103  0.5487  0.9751
19450TIP3   OH279840   1.262   5.479  15.894 -0.7998 -0.9189  0.0163
19450TIP3    H179841   1.338   5.531  15.868  0.0766 -2.5074 -0.7208
19450TIP3    H279842   1.290   5.434  15.974 -1.3855 -0.6332  0.3881
19451TIP3   OH279843   6.538   4.872  13.113 -0.0375 -0.1224 -0.1211
19451TIP3    H179844   6.562   4.961  13.139 -2.4223  0.6695 -0.3587
19451TIP3    H279845   6.472   4.845  13.176 -0.4679 -1.1080 -0.9534
19452TIP3   OH279846   6.204   5.350  16.705  0.0932  0.5292 -0.1385
19452TIP3    H179847   6.227   5.441  16.687 -0.5522  0.5777 -0.7508
19452TIP3    H279848   6.120   5.354  16.751 -0.6665  0.2006 -1.4436
19453TIP3   OH279849   2.709   4.729   2.639 -0.1646  0.0232 -0.1975
19453TIP3    H179850   2.689   4.823   2.648 -2.2512 -0.4435  0.7483
19453TIP3    H279851   2.706   4.713   2.544  1.4685  1.1253 -0.4671
19454TIP3   OH279852   3.093   2.564   5.177  0.0353  0.3153  0.5241
19454TIP3    H179853   3.105   2.554   5.272  1.8783  1.3536  0.4573
19454TIP3    H279854   3.141   2.491   5.139 -2.4807 -1.3731  0.3557
19455TIP3   OH279855   2.098   0.197  15.360  0.4073  0.0761  0.2057
19455TIP3    H179856   2.172   0.138  15.374  1.1456  0.7907 -0.5770
19455TIP3    H279857   2.088   0.243  15.443  0.0019 -0.9383  0.7306
19456TIP3   OH279858   1.504   2.276  12.893 -0.2106  0.5471  0.1629
19456TIP3    H179859   1.593   2.279  12.859 -0.2555  0.3519  0.0248
19456TIP3    H279860   1.448   2.280  12.815 -0.3309  1.0201  0.2671
19457TIP3   OH279861   0.617   4.639   1.258 -0.1126 -0.4857  0.1409
19457TIP3    H179862   0.546   4.694   1.225 -0.2391 -1.2927 -1.0100
19457TIP3    H279863   0.577   4.553   1.270 -0.5208  0.0767  4.1473
19458TIP3   OH279864   3.262   2.031  14.777  0.3299 -0.0067  0.9831
19458TIP3    H179865   3.222   2.034  14.864  0.4671  3.2988  1.0514
19458TIP3    H279866   3.203   2.080  14.722  2.2398  1.5026  0.1663
19459TIP3   OH279867   3.106   0.260   1.619 -0.0861 -0.0169  0.3853
19459TIP3    H179868   3.196   0.237   1.640 -0.3765 -1.4099  0.1601
19459TIP3    H279869   3.111   0.305   1.535  0.2292 -1.6507 -0.4927
19460TIP3   OH279870   6.175   0.059  14.684  0.6624 -0.0100 -0.3159
19460TIP3    H179871   6.137   0.126  14.741 -0.6174  0.9884 -2.2496
19460TIP3    H279872   6.255   0.100  14.650 -1.2943  1.6683 -3.3489
19461TIP3   OH279873   1.239   0.919  13.346 -0.5157 -0.1062 -0.3894
19461TIP3    H179874   1.326   0.910  13.308  0.1666  0.0536  1.0482
19461TIP3    H279875   1.231   1.013  13.363 -0.4614 -0.2590  0.5561
19462TIP3   OH279876   0.187   3.473   2.941  0.3653 -0.0972  0.1374
19462TIP3    H179877   0.269   3.518   2.920 -0.7486  2.4234  0.7652
19462TIP3    H279878   0.134   3.482   2.862  0.1810 -0.4156  0.2251
19463TIP3   OH279879   6.475   4.737  13.408  0.0767 -0.4603 -0.3477
19463TIP3    H179880   6.385   4.716  13.385  0.0056 -0.6369  0.0792
19463TIP3    H279881   6.470   4.823  13.451  0.0984 -0.5033 -0.2570
19464TIP3   OH279882   2.294   3.292  15.711 -0.1616 -0.1597  0.0139
19464TIP3    H179883   2.343   3.210  15.719  0.7200  0.4213  0.8757
19464TIP3    H279884   2.203   3.268  15.723 -0.0061 -1.1415 -0.6690
19465TIP3   OH279885   0.859   2.757  11.469  0.2380  0.3943  0.0058
19465TIP3    H179886   0.937   2.789  11.424 -0.0819  0.5586 -0.4414
19465TIP3    H279887   0.816   2.837  11.501  1.3645  0.2249  2.1843
19466TIP3   OH279888   5.598   2.795   5.787  0.0932  0.1497 -1.0359
19466TIP3    H179889   5.507   2.819   5.770  0.6556  1.2174 -2.8008
19466TIP3    H279890   5.623   2.740   5.713  1.3971  1.3888 -1.5723
19467TIP3   OH279891   5.662   0.325   1.301  0.1422 -0.1233  0.5652
19467TIP3    H179892   5.710   0.356   1.378  2.0907 -0.3128 -0.4983
19467TIP3    H279893   5.716   0.354   1.227 -1.2763 -0.6196 -0.7010
19468TIP3   OH279894   6.291   5.196   1.293 -0.0773  0.3230  0.2885
19468TIP3    H179895   6.328   5.222   1.209  0.1489 -0.6358  0.0754
19468TIP3    H279896   6.197   5.190   1.277  0.0341 -0.5330 -0.0961
19469TIP3   OH279897   0.927   1.562   4.387 -0.8516 -0.1059  0.1091
19469TIP3    H179898   0.937   1.467   4.387 -3.0141 -0.5005 -3.5340
19469TIP3    H279899   0.833   1.576   4.398 -0.7029  1.5444 -0.4925
19470TIP3   OH279900   4.027   5.064  11.767 -0.1256 -0.2771  0.1684
19470TIP3    H179901   4.020   5.033  11.857 -0.6292 -1.7069 -0.3413
19470TIP3    H279902   3.979   5.000  11.715  0.7775  0.1155 -1.2113
19471TIP3   OH279903   4.166   5.797   5.830 -0.0788  0.0536  0.1019
19471TIP3    H179904   4.133   5.731   5.769 -2.3178  0.7367  0.5048
19471TIP3    H279905   4.232   5.845   5.780 -1.9157  0.6471 -1.8554
19472TIP3   OH279906   0.944   5.717   1.818 -0.3712 -0.4677  0.2218
19472TIP3    H179907   1.015   5.653   1.821 -0.8182 -0.9454  1.5984
19472TIP3    H279908   0.868   5.669   1.850 -1.6488 -0.3287 -2.3417
19473TIP3   OH279909   1.207   1.496   1.527  0.3209 -0.2118  0.0243
19473TIP3    H179910   1.273   1.525   1.589  1.6355 -0.0320 -1.3814
19473TIP3    H279911   1.156   1.574   1.507  0.8103  0.0571 -0.1881
19474TIP3   OH279912   5.881   3.238  11.099 -0.3214 -0.4103  0.3553
19474TIP3    H179913   5.824   3.185  11.155 -1.8580  1.2103  0.4059
19474TIP3    H279914   5.830   3.317  11.079  1.0046  0.0444 -1.5814
19475TIP3   OH279915   3.994   5.312   5.470 -0.6735  0.5570  0.1532
19475TIP3    H179916   4.034   5.268   5.395 -0.2639  1.1127  0.0347
19475TIP3    H279917   4.069   5.341   5.522 -0.9541  0.2248  0.7460
19476TIP3   OH279918   4.582   6.543   1.086 -0.0896 -0.9151 -0.1915
19476TIP3    H179919   4.585   6.606   1.014 -2.5765 -0.0291  0.3861
19476TIP3    H279920   4.667   6.498   1.082  0.0320 -0.6141 -3.3685
19477TIP3   OH279921   1.669   3.822  11.904  0.2236 -0.1366  0.5848
19477TIP3    H179922   1.707   3.815  11.817 -1.6071  0.4923 -0.3226
19477TIP3    H279923   1.726   3.884  11.951  0.5226  0.5133 -0.5975
19478TIP3   OH279924   4.889   3.676   3.850  0.0587  0.2151 -0.1943
19478TIP3    H179925   4.884   3.766   3.883 -0.3690 -0.3720  1.3777
19478TIP3    H279926   4.798   3.653   3.830 -0.1446 -0.6495  1.6044
19479TIP3   OH279927   0.325   2.091   2.648 -0.0670  0.3281  0.1049
19479TIP3    H179928   0.301   2.182   2.631 -2.2463 -0.3313 -0.6156
19479TIP3    H279929   0.395   2.073   2.585 -1.1439  0.8784 -1.2885
19480TIP3   OH279930   3.337   6.785   1.628 -0.2703  0.2675  0.4498
19480TIP3    H179931   3.303   6.772   1.716 -0.5351  2.3843  0.7123
19480TIP3    H279932   3.391   6.864   1.634  0.0981  0.1898 -1.1824
19481TIP3   OH279933   1.212   3.346   3.564  0.2039  0.1747 -0.5161
19481TIP3    H179934   1.153   3.271   3.555  0.0453  0.4643 -2.2773
19481TIP3    H279935   1.159   3.414   3.605  0.3939 -0.6764  1.2574
19482TIP3   OH279936   1.631   1.986  12.792 -0.0891  0.1039 -0.0264
19482TIP3    H179937   1.616   2.038  12.713  0.6936 -0.3101 -0.4522
19482TIP3    H279938   1.711   1.937  12.774 -1.4844 -2.2886 -0.2124
19483TIP3   OH279939   4.049   6.433  15.196 -0.6411  0.1089  0.0426
19483TIP3    H179940   4.129   6.469  15.158 -1.2291  1.1607 -0.2601
19483TIP3    H279941   4.049   6.466  15.286 -0.2761 -0.6652  0.3311
19484TIP3   OH279942   0.521   4.503  16.368 -0.2694 -0.4807 -0.7366
19484TIP3    H179943   0.487   4.511  16.279 -1.3189  0.2368 -0.3016
19484TIP3    H279944   0.497   4.586  16.409  1.5510 -0.1676 -0.2177
19485TIP3   OH279945   3.276   1.370   0.083 -0.1269  0.0578 -0.3428
19485TIP3    H179946   3.311   1.282   0.097 -0.6564 -0.0323  0.4765
19485TIP3    H279947   3.211   1.359   0.013 -1.1275 -0.4612  0.6373
19486TIP3   OH279948   3.590   4.671   0.965  0.2266  0.1395 -0.1595
19486TIP3    H179949   3.658   4.675   1.032  0.9971 -1.1971 -0.8099
19486TIP3    H279950   3.530   4.602   0.995  1.4455 -1.6130 -1.5498
19487TIP3   OH279951   5.522   0.965   2.540 -0.6439  0.0836  0.3836
19487TIP3    H179952   5.574   0.986   2.463  0.7765  0.3313  1.3571
19487TIP3    H279953   5.552   0.879   2.568 -1.4626 -0.2036  0.4119
19488TIP3   OH279954   3.618   1.512   2.477 -0.5304  0.2067  0.2442
19488TIP3    H179955   3.677   1.503   2.552 -1.5800  2.3114  1.4228
19488TIP3    H279956   3.655   1.584   2.426 -1.6692  1.1276  0.6654
19489TIP3   OH279957   5.175   1.998   3.736  0.5806 -0.0353  0.0648
19489TIP3    H179958   5.126   2.076   3.709  1.5252  0.6301  0.2158
19489TIP3    H279959   5.119   1.925   3.711  1.1347  0.5244 -3.3307
19490TIP3   OH279960   3.171   2.140  15.953 -0.3143  0.7375  0.2256
19490TIP3    H179961   3.102   2.104  15.896  1.6851  1.2415 -2.7253
19490TIP3    H279962   3.242   2.077  15.947  0.1320  1.0636  1.8371
19491TIP3   OH279963   1.441   0.483  15.369  0.3103 -0.4729 -0.2911
19491TIP3    H179964   1.528   0.450  15.390  1.3429  1.7285 -0.8736
19491TIP3    H279965   1.410   0.523  15.450 -0.1154 -1.0820 -0.1397
19492TIP3   OH279966   6.132   2.976   1.764  0.4823 -0.2491 -0.3412
19492TIP3    H179967   6.151   2.882   1.769 -2.9562 -1.2485 -2.7056
19492TIP3    H279968   6.098   2.999   1.850  0.9317 -1.2482  0.1175
19493TIP3   OH279969   2.207   1.229  13.210 -0.5605 -0.0965 -0.1606
19493TIP3    H179970   2.214   1.267  13.122 -1.3942  0.0378 -0.1783
19493TIP3    H279971   2.133   1.169  13.205 -0.1316 -0.6703  0.2510
19494TIP3   OH279972   3.628   6.222  16.658  0.8392 -0.2050 -0.2646
19494TIP3    H179973   3.718   6.253  16.662  0.2626  1.4218  0.8363
19494TIP3    H279974   3.635   6.127  16.668  2.5547 -0.3878 -2.4532
19495TIP3   OH279975   6.267   0.761  10.999 -0.2245 -0.6608  0.5346
19495TIP3    H179976   6.265   0.723  10.911 -0.3696 -0.7415  0.5732
19495TIP3    H279977   6.354   0.737  11.033 -0.4662 -1.2991  0.7124
19496TIP3   OH279978   1.636   4.016  13.482  0.3788  0.0674  0.1383
19496TIP3    H179979   1.728   4.024  13.507  0.3899 -1.1639  0.5495
19496TIP3    H279980   1.624   3.923  13.462 -0.0343  0.6450 -2.8923
19497TIP3   OH279981   0.280   1.098  11.136 -0.0738 -0.2229  0.2060
19497TIP3    H179982   0.319   1.158  11.072  1.1140 -2.5296 -1.3844
19497TIP3    H279983   0.283   1.145  11.218  1.0714  1.7826 -0.9107
19498TIP3   OH279984   5.901   5.553  12.129 -0.2958 -0.0893  0.3295
19498TIP3    H179985   5.934   5.619  12.191  1.7223 -1.3057  0.6333
19498TIP3    H279986   5.860   5.487  12.185  0.5207 -0.6398  0.2787
19499TIP3   OH279987   0.084   1.634   4.772  0.1481 -0.4657 -0.0010
19499TIP3    H179988   0.093   1.713   4.719  0.9423 -0.5895 -0.0546
19499TIP3    H279989   0.058   1.667   4.859 -3.9640 -0.3890 -1.0504
19500TIP3   OH279990   2.660   4.944  15.234 -0.0146 -0.0778  0.0376
19500TIP3    H179991   2.701   5.025  15.264  1.9982 -1.6504  1.8133
19500TIP3    H279992   2.720   4.908  15.169 -0.8494 -0.2254 -0.6805
19501TIP3   OH279993   4.371   3.634  15.995 -0.0925 -0.3266  0.6386
19501TIP3    H179994   4.282   3.616  15.964 -0.3848 -0.5803  1.5793
19501TIP3    H279995   4.419   3.552  15.979  0.3953  0.2540 -1.1906
19502TIP3   OH279996   0.349   2.593   0.969  0.6368  0.1391  0.0385
19502TIP3    H179997   0.380   2.567   0.883  0.3979  0.1538 -0.0534
19502TIP3    H279998   0.393   2.533   1.030 -1.2045 -1.6654 -0.2954
19503TIP3   OH279999   0.276   0.929   3.116 -0.5354  0.0255 -0.1005
19503TIP3    H180000   0.235   0.904   3.198  0.9814 -3.6112 -0.2495
19503TIP3    H280001   0.370   0.919   3.132 -0.1957 -0.7906 -2.1835
19504TIP3   OH280002   6.109   0.493  13.188  0.0559 -0.0398 -0.3433
19504TIP3    H180003   6.043   0.463  13.250 -1.3103 -1.1424 -2.2480
19504TIP3    H280004   6.186   0.512  13.242 -1.4633  0.3040  1.8046
19505TIP3   OH280005   2.324   3.246  10.954  0.2769 -0.5742  0.0390
19505TIP3    H180006   2.308   3.257  10.860  0.1214 -0.0289  0.1258
19505TIP3    H280007   2.313   3.152  10.969  0.8724 -0.7537 -0.5889
19506TIP3   OH280008   3.478   3.669  13.711 -0.0329 -0.8508 -0.7375
19506TIP3    H180009   3.457   3.622  13.792  1.5225 -0.0161  0.2107
19506TIP3    H280010   3.560   3.629  13.681 -0.0319 -0.4302 -1.2969
19507TIP3   OH280011   0.205   1.046  16.440  0.2011 -0.2380  0.0456
19507TIP3    H180012   0.265   1.008  16.375  1.0928  0.4342  0.4652
19507TIP3    H280013   0.118   1.038  16.400  0.5675 -1.1763 -0.5919
19508TIP3   OH280014   5.410   3.240   6.074 -0.0307 -0.2742  0.3732
19508TIP3    H180015   5.459   3.276   6.147  2.2318 -1.6910 -0.3392
19508TIP3    H280016   5.342   3.185   6.114 -0.0127  0.4319  1.3877
19509TIP3   OH280017   1.939   4.354   1.728  0.4315 -0.1418  0.3661
19509TIP3    H180018   2.033   4.371   1.730  0.4290 -0.1768  1.0292
19509TIP3    H280019   1.932   4.258   1.730  0.3763 -0.1299  1.0453
19510TIP3   OH280020   3.874   2.168  11.425  0.3425  0.3026 -0.3919
19510TIP3    H180021   3.927   2.241  11.392  1.6068 -0.0544  0.7412
19510TIP3    H280022   3.894   2.165  11.519  0.2393 -1.4230 -0.3960
19511TIP3   OH280023   0.172   6.380  13.715 -0.1576  0.9987  0.4583
19511TIP3    H180024   0.248   6.407  13.664 -1.1941  1.2551 -1.0058
19511TIP3    H280025   0.130   6.462  13.743 -0.1171  0.8646  0.9230
19512TIP3   OH280026   4.385   2.521   2.323 -0.0881 -0.4643 -0.3543
19512TIP3    H180027   4.408   2.586   2.256 -1.7703 -0.2986 -0.8046
19512TIP3    H280028   4.327   2.568   2.383 -0.0993 -1.1397  0.1795
19513TIP3   OH280029   1.855   3.659   0.879  0.3376 -0.0934  0.2501
19513TIP3    H180030   1.801   3.644   0.801 -2.2229  3.1807  1.1256
19513TIP3    H280031   1.793   3.692   0.944  2.8126 -0.1464  2.8292
19514TIP3   OH280032   3.339   3.699   3.007  0.9054  0.3304 -0.5545
19514TIP3    H180033   3.322   3.763   3.076  1.9128 -1.3268  1.3483
19514TIP3    H280034   3.425   3.722   2.973  1.6958 -0.5240  0.7964
19515TIP3   OH280035   1.030   1.954   6.481 -0.6821 -0.1416  0.0233
19515TIP3    H180036   0.953   2.011   6.478 -0.2692  0.5951  1.9390
19515TIP3    H280037   1.059   1.957   6.572  1.6055 -0.4270 -0.6210
19516TIP3   OH280038   3.190   1.909   5.177  0.5695 -0.4540  0.2371
19516TIP3    H180039   3.192   2.002   5.199  0.4286  0.3445 -2.7104
19516TIP3    H280040   3.263   1.898   5.117 -1.8039 -1.2417 -2.7312
19517TIP3   OH280041   4.120   4.223   1.728  0.3844  0.2149  0.0273
19517TIP3    H180042   4.163   4.205   1.812  0.4629 -1.9243 -0.4156
19517TIP3    H280043   4.192   4.241   1.667  0.4359  0.0590  0.0419
19518TIP3   OH280044   5.612   3.391   0.810 -0.3179 -0.2060 -0.1049
19518TIP3    H180045   5.627   3.472   0.858 -1.1396 -0.2148  0.1826
19518TIP3    H280046   5.606   3.419   0.718  0.3203 -0.0691 -0.1087
19519TIP3   OH280047   1.471   3.335  14.427 -0.1441 -0.0264 -0.2518
19519TIP3    H180048   1.457   3.420  14.469  1.4517 -0.6062  1.5735
19519TIP3    H280049   1.534   3.354  14.357  0.4283  0.2691  0.3328
19520TIP3   OH280050   0.293   1.905  12.760 -0.3191  0.0820 -0.1669
19520TIP3    H180051   0.355   1.964  12.803 -0.3015 -2.0066  2.9617
19520TIP3    H280052   0.341   1.822  12.753 -2.1307 -1.0998  0.7671
19521TIP3   OH280053   5.243   3.507   3.089  0.1013 -0.0546 -0.1507
19521TIP3    H180054   5.211   3.417   3.081 -0.8988  0.3481 -0.9047
19521TIP3    H280055   5.305   3.517   3.017 -0.5035  0.1433 -0.6503
19522TIP3   OH280056   1.750   6.184  12.601 -0.1270 -0.0326  0.5219
19522TIP3    H180057   1.678   6.129  12.633 -0.4330 -0.3770 -0.7118
19522TIP3    H280058   1.789   6.133  12.530  2.3077 -0.5360  2.0927
19523TIP3   OH280059   0.324   0.697  10.657 -0.3663 -0.0472 -0.1068
19523TIP3    H180060   0.318   0.661  10.569  4.0182 -0.2130 -0.5634
19523TIP3    H280061   0.355   0.624  10.711 -1.8990  0.3386  1.3862
19524TIP3   OH280062   5.775   4.114  17.103 -0.2991 -0.2249 -0.4037
19524TIP3    H180063   5.832   4.148  17.172  0.9729 -2.2846 -0.3647
19524TIP3    H280064   5.789   4.174  17.030  3.1398 -1.4077 -0.9037
19525TIP3   OH280065   5.470   5.453  10.961 -0.4879  0.7398 -0.5168
19525TIP3    H180066   5.552   5.405  10.971  0.3494  2.3062  0.4398
19525TIP3    H280067   5.492   5.528  10.906 -1.8697 -0.0841 -2.3305
19526TIP3   OH280068   5.698   1.272  13.571  0.1041 -0.0441 -0.0895
19526TIP3    H180069   5.648   1.351  13.591 -0.8647 -0.7741  0.4519
19526TIP3    H280070   5.631   1.207  13.548  0.8100 -1.0249  0.5719
19527TIP3   OH280071   3.370   1.854   3.476 -0.9923 -0.0921  0.3190
19527TIP3    H180072   3.428   1.902   3.418  1.8032 -0.8881  2.2400
19527TIP3    H280073   3.346   1.775   3.428  1.3189 -0.7743  0.1571
19528TIP3   OH280074   5.372   1.448   3.241  0.0803 -0.2236  0.0372
19528TIP3    H180075   5.372   1.397   3.322  0.7188 -1.1430 -0.5239
19528TIP3    H280076   5.310   1.403   3.184  0.9794 -0.6535 -0.6248
19529TIP3   OH280077   4.322   6.414  10.616  0.0775  0.1540  0.3151
19529TIP3    H180078   4.305   6.471  10.541  1.4976  0.1639 -0.0350
19529TIP3    H280079   4.362   6.472  10.681 -1.1020  0.1340  1.0873
19530TIP3   OH280080   5.707   2.584  12.529 -0.2039  0.0229 -0.2004
19530TIP3    H180081   5.728   2.647  12.598 -0.3789 -0.8208  0.6417
19530TIP3    H280082   5.780   2.591  12.467 -0.2434  1.0707 -0.1487
19531TIP3   OH280083   0.228   3.396   5.151 -0.0771  0.5529  0.7143
19531TIP3    H180084   0.303   3.356   5.107  0.0243  0.7424  0.7141
19531TIP3    H280085   0.253   3.396   5.244  0.4328  1.6898  0.5978
19532TIP3   OH280086   3.027   1.580   3.981 -0.4850  0.1174 -0.1021
19532TIP3    H180087   3.064   1.662   3.948 -1.6002  1.2750  1.3887
19532TIP3    H280088   2.951   1.563   3.925 -1.1172  0.9200  0.4932
19533TIP3   OH280089   2.356   5.618   0.763  0.1512 -0.1888 -0.4021
19533TIP3    H180090   2.405   5.698   0.778 -0.8955  0.4040 -0.0295
19533TIP3    H280091   2.415   5.548   0.792  1.5461  0.3218 -1.8447
19534TIP3   OH280092   1.198   3.928   2.747  0.4488  0.7790  0.6603
19534TIP3    H180093   1.143   4.006   2.746 -0.9477 -0.1546 -0.6697
19534TIP3    H280094   1.273   3.951   2.692 -0.5949  0.7862 -0.8044
19535TIP3   OH280095   4.797   4.789  14.388  0.2464  0.4403 -0.0489
19535TIP3    H180096   4.714   4.769  14.433 -0.2772 -0.3683 -1.3159
19535TIP3    H280097   4.818   4.709  14.341  0.7261  1.2772 -1.3047
19536TIP3   OH280098   1.970   2.435   1.268  0.0615 -0.4105 -0.2216
19536TIP3    H180099   1.890   2.468   1.228  1.0502  2.1008 -0.3373
19536TIP3    H280100   1.965   2.463   1.360  0.1673 -1.5182  0.1365
19537TIP3   OH280101   1.442   4.578  13.177 -0.2136 -0.2623  0.4718
19537TIP3    H180102   1.518   4.542  13.223 -1.3164 -0.6001  2.0719
19537TIP3    H280103   1.428   4.518  13.104  0.3725 -0.8319  0.8218
19538TIP3   OH280104   0.938   5.866   5.080 -0.0667  0.5088  0.6995
19538TIP3    H180105   0.996   5.927   5.036 -0.0873 -0.4336 -0.7062
19538TIP3    H280106   0.978   5.852   5.166  1.5508  0.2464 -0.0518
19539TIP3   OH280107   3.514   0.344  15.497  0.0129  0.1067 -0.4866
19539TIP3    H180108   3.524   0.249  15.489 -0.4156  0.1080 -1.1021
19539TIP3    H280109   3.603   0.378  15.498  0.1532 -0.2193 -1.3731
19540TIP3   OH280110   3.821   4.154   5.846  0.2027 -0.1530  0.3412
19540TIP3    H180111   3.741   4.187   5.887 -0.3989 -0.2117 -0.7715
19540TIP3    H280112   3.853   4.226   5.793  0.5295 -0.3561  0.2607
19541TIP3   OH280113   3.764   0.543   2.684  0.0668  0.2652  0.3722
19541TIP3    H180114   3.756   0.457   2.725  1.6821  0.4494  1.1580
19541TIP3    H280115   3.704   0.540   2.609 -0.8389 -1.0790  1.1163
19542TIP3   OH280116   0.416   1.897   2.823  0.1708 -0.1134 -0.0020
19542TIP3    H180117   0.381   1.974   2.777  0.0063 -0.2725 -0.1449
19542TIP3    H280118   0.501   1.881   2.781 -0.0355 -0.3343 -0.3364
19543TIP3   OH280119   5.927   5.484  15.212 -0.1680  0.6268 -0.1945
19543TIP3    H180120   5.842   5.514  15.179 -0.9216  2.1905  2.7910
19543TIP3    H280121   5.972   5.450  15.135 -3.0936  0.6608 -2.0749
19544TIP3   OH280122   4.462   1.325  13.901  0.2803 -0.3628 -0.0210
19544TIP3    H180123   4.545   1.292  13.935 -0.4177  0.0085  2.2101
19544TIP3    H280124   4.399   1.310  13.972 -1.2041  0.8783 -1.0038
19545TIP3   OH280125   4.937   5.740  13.694  0.0164  0.2758  0.2252
19545TIP3    H180126   4.968   5.800  13.762 -0.7045 -1.5405  2.2769
19545TIP3    H280127   4.929   5.794  13.616  0.7512  2.5087  1.6064
19546TIP3   OH280128   5.076   3.119  14.522 -0.2429 -0.0929 -0.4774
19546TIP3    H180129   5.058   3.055  14.591 -0.0962  1.3540  0.9361
19546TIP3    H280130   4.990   3.147  14.492 -0.3066 -0.7643 -0.9546
19547TIP3   OH280131   0.165   5.510  13.529  0.4466  0.3420 -0.2020
19547TIP3    H180132   0.175   5.561  13.610  2.1306  0.8130 -0.6680
19547TIP3    H280133   0.195   5.423  13.553 -0.3873  0.1017  0.0223
19548TIP3   OH280134   0.352   3.136  14.092  0.1155 -0.2212 -0.0576
19548TIP3    H180135   0.343   3.208  14.155  1.0623 -1.3178  1.4205
19548TIP3    H280136   0.264   3.102  14.081  0.0766 -0.7862  1.6963
19549TIP3   OH280137   5.665   6.213   3.583 -0.5457  0.6467 -0.1204
19549TIP3    H180138   5.698   6.278   3.520 -0.9098  0.4078 -0.5616
19549TIP3    H280139   5.577   6.193   3.553 -0.3285 -0.2812 -0.1699
19550TIP3   OH280140   2.974   6.650   0.304 -0.3130 -0.0984 -0.1630
19550TIP3    H180141   2.935   6.737   0.314 -2.8209 -1.1876  0.3126
19550TIP3    H280142   2.913   6.603   0.247  1.1972 -1.4487 -0.7460
19551TIP3   OH280143   2.904   2.888   3.313  0.1363  0.2579 -0.0056
19551TIP3    H180144   2.939   2.863   3.228  0.8114  0.2554  0.2685
19551TIP3    H280145   2.942   2.974   3.330 -1.8404  1.3598 -0.7627
19552TIP3   OH280146   1.100   5.217   3.887 -0.1546 -0.0333  0.1405
19552TIP3    H180147   1.022   5.214   3.942 -0.0234 -1.9395  0.2976
19552TIP3    H280148   1.168   5.253   3.945 -0.9173  1.8932 -0.0802
19553TIP3   OH280149   1.378   3.717   2.261  0.7042  0.6157  0.1440
19553TIP3    H180150   1.368   3.624   2.282 -0.3449  0.5067 -0.7659
19553TIP3    H280151   1.310   3.760   2.313  2.7470  1.2255  2.5188
19554TIP3   OH280152   0.381   2.618   2.715 -0.2194 -0.6991  0.3259
19554TIP3    H180153   0.359   2.705   2.683 -0.8453 -0.7109  0.7076
19554TIP3    H280154   0.397   2.630   2.808  0.5504 -0.8477  0.2217
19555TIP3   OH280155   0.077   1.732  10.870  0.1634  0.2404 -0.1738
19555TIP3    H180156   0.146   1.759  10.808 -0.9399  1.0702 -1.0802
19555TIP3    H280157   0.109   1.761  10.955  0.7374  1.0323 -0.6450
19556TIP3   OH280158   4.460   1.982  12.957 -0.4042  0.1907  0.1493
19556TIP3    H180159   4.369   1.993  12.929 -0.0899  1.8041 -0.3830
19556TIP3    H280160   4.455   1.969  13.052 -1.1787  0.6980  0.1865
19557TIP3   OH280161   2.972   6.525  16.968  0.2259  0.1228  0.1365
19557TIP3    H180162   2.973   6.553  17.059 -0.7342 -0.0715  0.2091
19557TIP3    H280163   3.031   6.450  16.965  1.8519  1.3292  0.1846
19558TIP3   OH280164   2.029   6.214  14.351  0.5508  0.0737  0.0994
19558TIP3    H180165   2.104   6.221  14.410  0.4642  2.3051  0.0019
19558TIP3    H280166   1.956   6.188  14.408  0.6956  1.1833  0.8215
19559TIP3   OH280167   0.126   4.389   2.143  0.0567  0.4546 -0.2022
19559TIP3    H180168   0.167   4.361   2.061 -0.1408  1.7442 -0.7624
19559TIP3    H280169   0.135   4.313   2.201  1.3166 -0.0446 -1.0004
19560TIP3   OH280170   1.931   4.156   5.062  0.1114 -0.5048 -0.5733
19560TIP3    H180171   1.865   4.222   5.084  0.4969 -0.3098  0.0070
19560TIP3    H280172   1.927   4.151   4.966 -0.7588 -0.5174 -0.5475
19561TIP3   OH280173   1.554   4.893  17.043  0.4623 -0.2410 -0.0123
19561TIP3    H180174   1.476   4.879  17.096 -0.0702  1.2654 -0.3559
19561TIP3    H280175   1.532   4.855  16.958  0.9331 -1.7324  0.4993
19562TIP3   OH280176   2.186   4.767   2.884 -0.1206 -0.2655 -0.2325
19562TIP3    H180177   2.149   4.855   2.881  0.1931 -0.1165  0.1896
19562TIP3    H280178   2.126   4.717   2.941 -1.1201 -0.7266 -1.6440
19563TIP3   OH280179   2.786   5.108   0.628 -0.1017 -0.2162  0.8774
19563TIP3    H180180   2.842   5.129   0.703 -0.1206  0.2739  0.7572
19563TIP3    H280181   2.847   5.085   0.558 -0.0970 -1.3423  1.2270
19564TIP3   OH280182   0.690   4.941  10.448  0.2046 -0.1024  0.5606
19564TIP3    H180183   0.669   4.865  10.503 -0.2010 -0.2975  0.1366
19564TIP3    H280184   0.648   4.923  10.364  2.8985 -1.0065 -0.7024
19565TIP3   OH280185   2.568   2.928   1.207  0.1228 -0.4260 -0.6255
19565TIP3    H180186   2.614   3.011   1.190  0.8441 -0.8177 -0.6160
19565TIP3    H280187   2.501   2.924   1.139 -0.3444  0.4745 -0.2368
19566TIP3   OH280188   4.167   0.715   2.092  0.0600 -0.2741  0.4144
19566TIP3    H180189   4.172   0.718   1.996 -0.3116  2.3181  0.3992
19566TIP3    H280190   4.246   0.669   2.119  0.8776  0.1568 -1.1215
19567TIP3   OH280191   2.462   2.067   1.177  0.0268 -0.1663 -0.2448
19567TIP3    H180192   2.486   2.032   1.262  1.5391 -1.9693 -1.3419
19567TIP3    H280193   2.511   2.149   1.169  0.6862 -0.5128  0.1985
19568TIP3   OH280194   6.673   3.300  11.503 -0.3448  0.1592 -0.0794
19568TIP3    H180195   6.746   3.289  11.564 -1.4639 -0.7584  1.1598
19568TIP3    H280196   6.648   3.211  11.479 -0.6461  0.4841 -1.0229
19569TIP3   OH280197   6.589   5.484  12.749  0.3738  0.2442 -0.6315
19569TIP3    H180198   6.555   5.570  12.773 -1.8467 -0.4704 -0.9309
19569TIP3    H280199   6.635   5.453  12.828 -2.0832  0.1781  0.8813
19570TIP3   OH280200   5.375   1.505  14.505 -0.1316 -0.4831  0.0163
19570TIP3    H180201   5.295   1.498  14.454 -1.5077 -0.0200  2.0028
19570TIP3    H280202   5.416   1.585  14.474 -0.2030 -0.9305 -1.2929
19571TIP3   OH280203   0.915   3.948  12.040 -0.6817 -0.0289 -0.7359
19571TIP3    H180204   0.825   3.934  12.069 -0.6218  0.4344 -0.3182
19571TIP3    H280205   0.927   3.885  11.968 -0.9269 -0.9719  0.0287
19572TIP3   OH280206   3.762   2.967   2.522  0.8803  0.2321 -0.0775
19572TIP3    H180207   3.815   2.963   2.602  0.5907  1.0107  0.1694
19572TIP3    H280208   3.678   2.930   2.547  1.0745 -0.3468 -0.2727
19573TIP3   OH280209   4.388   4.155  15.795  0.7241 -0.7987  0.6856
19573TIP3    H180210   4.322   4.134  15.729  0.9522 -0.4956  0.3590
19573TIP3    H280211   4.458   4.092  15.780  0.3786 -1.3142  1.2267
19574TIP3   OH280212   6.382   6.748  15.214 -0.0191 -0.2095 -0.1102
19574TIP3    H180213   6.330   6.704  15.147 -3.0316  1.0445  1.2664
19574TIP3    H280214   6.354   6.709  15.297  1.7895  0.0350  0.6719
19575TIP3   OH280215   3.094   2.645   0.419 -0.1584  0.5442  0.6703
19575TIP3    H180216   3.020   2.703   0.432  0.8144  1.6115  1.6451
19575TIP3    H280217   3.165   2.702   0.388  0.5257 -0.2941  0.6450
19576TIP3   OH280218   2.888   0.244  16.339 -0.6868 -0.4279  0.1963
19576TIP3    H180219   2.978   0.247  16.372 -0.9501 -0.6583  0.9532
19576TIP3    H280220   2.854   0.160  16.370 -1.6337  0.2939  1.1900
19577TIP3   OH280221   0.982   5.617   3.384  0.0496  0.3478 -0.7126
19577TIP3    H180222   0.972   5.691   3.325 -0.7140  1.7021  1.0206
19577TIP3    H280223   0.932   5.546   3.342  0.1079  1.0402 -1.9990
19578TIP3   OH280224   3.922   3.569   3.701 -0.7067  0.5394 -0.6115
19578TIP3    H180225   4.003   3.538   3.742 -0.5114 -0.2897 -1.5961
19578TIP3    H280226   3.950   3.609   3.619 -1.0692  2.4409  0.1246
19579TIP3   OH280227   2.901   0.563  12.796  0.0108  0.3470 -0.4932
19579TIP3    H180228   2.920   0.508  12.872 -0.4860 -1.0306 -1.3330
19579TIP3    H280229   2.812   0.596  12.812  0.1647  0.6093 -0.1672
19580TIP3   OH280230   2.847   0.113  16.021  0.3494 -0.3307  0.1475
19580TIP3    H180231   2.907   0.185  15.999  0.5078  0.0389  1.6289
19580TIP3    H280232   2.869   0.092  16.112  0.3503 -2.3180 -0.2826
19581TIP3   OH280233   4.538   0.484  13.881  0.1559  0.0078 -0.0981
19581TIP3    H180234   4.506   0.504  13.793 -3.5343 -0.1605  1.0176
19581TIP3    H280235   4.541   0.570  13.925  3.4132  0.2990 -0.6615
19582TIP3   OH280236   2.974   5.608   2.383 -0.2785 -0.3564 -0.0415
19582TIP3    H180237   3.051   5.559   2.409  0.2025  0.1515 -0.4903
19582TIP3    H280238   3.006   5.697   2.368 -0.9136 -0.1885 -0.4235
19583TIP3   OH280239   0.664   1.455  13.214  1.0085 -0.4537  0.0767
19583TIP3    H180240   0.719   1.500  13.278  1.7847  0.7862 -1.4020
19583TIP3    H280241   0.648   1.520  13.145 -1.3050 -1.1566 -0.1609
19584TIP3   OH280242   2.633   4.441  13.059 -0.3033 -0.5536  0.3282
19584TIP3    H180243   2.711   4.386  13.071 -0.5103 -0.9486 -0.1143
19584TIP3    H280244   2.560   4.385  13.082 -0.4508 -0.1184  0.9356
19585TIP3   OH280245   1.092   0.339   1.806 -0.0300  0.5413  0.2562
19585TIP3    H180246   1.153   0.379   1.744  0.8473 -0.4840  0.4292
19585TIP3    H280247   1.040   0.279   1.752 -0.0647  0.5102  0.3248
19586TIP3   OH280248   2.494   3.448   6.353 -0.0089 -0.4053 -0.2069
19586TIP3    H180249   2.502   3.353   6.338  2.0509 -0.1523 -0.9904
19586TIP3    H280250   2.477   3.455   6.447  1.6932 -1.5277  0.2389
19587TIP3   OH280251   2.235   6.615   2.975 -0.1761  0.3544 -0.3502
19587TIP3    H180252   2.291   6.658   3.040  0.5939  0.2568 -0.9494
19587TIP3    H280253   2.146   6.638   3.003  0.2035  2.4894 -0.7425
19588TIP3   OH280254   4.155   0.006  13.044 -0.1661 -0.0130 -0.2516
19588TIP3    H180255   4.232   0.060  13.061 -0.9070  1.2828 -0.8816
19588TIP3    H280256   4.151   0.000  12.948 -1.7245  1.2875 -0.3086
19589TIP3   OH280257   0.367   2.701   6.420  0.4898  0.5028  0.4082
19589TIP3    H180258   0.289   2.727   6.470  0.7729  1.1463  0.5334
19589TIP3    H280259   0.391   2.616   6.456  0.3657  0.7108  1.0033
19590TIP3   OH280260   5.078   6.569   4.647 -1.1093 -0.5690 -0.0751
19590TIP3    H180261   5.165   6.609   4.651 -1.8205  0.9574  1.2443
19590TIP3    H280262   5.090   6.482   4.686 -0.2076 -0.2902  0.2933
19591TIP3   OH280263   3.655   1.916  14.693  0.7381  0.0001 -0.2114
19591TIP3    H180264   3.723   1.939  14.756  1.5251  0.6298 -1.2642
19591TIP3    H280265   3.575   1.907  14.745  1.5167 -0.2431  0.9683
19592TIP3   OH280266   0.157   0.073  16.177 -0.1499  0.2007  0.2292
19592TIP3    H180267   0.221   0.015  16.217  0.7347  0.9187 -0.0966
19592TIP3    H280268   0.199   0.159  16.178 -1.4090  0.8332  0.6757
19593TIP3   OH280269   5.531   4.029   3.997  0.1066 -0.0004 -0.3519
19593TIP3    H180270   5.496   4.089   4.063  1.6332  0.9944 -0.3995
19593TIP3    H280271   5.518   4.075   3.914 -2.8506 -1.7218 -0.9878
19594TIP3   OH280272   4.091   5.799  15.512  0.0560 -0.3871  0.0150
19594TIP3    H180273   4.047   5.781  15.594 -0.8615 -0.7636 -0.5503
19594TIP3    H280274   4.179   5.829  15.538 -0.7616  1.1406  1.1734
19595TIP3   OH280275   6.556   0.945  15.939 -0.3837  0.3656  0.0798
19595TIP3    H180276   6.646   0.956  15.970  0.0375  2.7348 -1.7258
19595TIP3    H280277   6.532   1.030  15.903 -3.2147 -0.3423  0.0545
19596TIP3   OH280278   6.537   2.284  16.184  0.5017  0.6542 -0.0410
19596TIP3    H180279   6.605   2.303  16.120  0.6295 -0.7889 -0.3705
19596TIP3    H280280   6.565   2.202  16.225 -0.0736  1.0484  1.1771
19597TIP3   OH280281   3.305   5.862   3.194 -0.1651 -0.4739  0.5254
19597TIP3    H180282   3.219   5.869   3.153 -1.0035 -0.9164  2.1339
19597TIP3    H280283   3.348   5.945   3.174 -1.6424  0.4887  1.1255
19598TIP3   OH280284   3.172   0.855   5.687  1.0198 -0.0718 -0.4669
19598TIP3    H180285   3.159   0.760   5.690 -0.1093  0.0754  1.2559
19598TIP3    H280286   3.170   0.882   5.779 -1.1943  1.8895 -0.9889
19599TIP3   OH280287   6.093   5.011   2.385 -0.4460  0.0551  0.6772
19599TIP3    H180288   6.030   5.077   2.414 -1.2563 -0.8447  1.0119
19599TIP3    H280289   6.172   5.060   2.367 -2.0411  1.7174 -2.6925
19600TIP3   OH280290   0.426   2.790  14.188 -0.3216 -0.1724 -0.5626
19600TIP3    H180291   0.444   2.748  14.272 -0.1932  1.3990  0.2291
19600TIP3    H280292   0.411   2.717  14.128  0.7732 -1.3592  0.5382
19601TIP3   OH280293   2.135   3.736   5.467 -0.4169  0.3565  0.1559
19601TIP3    H180294   2.204   3.789   5.507  0.2950  0.2386 -0.8619
19601TIP3    H280295   2.093   3.795   5.404 -0.6110  0.1519  0.0932
19602TIP3   OH280296   4.492   4.303  16.188 -0.2497  0.2509 -0.2672
19602TIP3    H180297   4.463   4.366  16.254 -1.5569 -1.0807  0.5032
19602TIP3    H280298   4.504   4.221  16.237  3.3337  0.2514 -0.8445
19603TIP3   OH280299   0.476   4.556  13.861 -0.2049  0.2223  0.4295
19603TIP3    H180300   0.444   4.484  13.915 -2.4064 -0.1589 -1.2487
19603TIP3    H280301   0.567   4.533  13.841 -0.9996 -2.4403 -0.4989
19604TIP3   OH280302   5.295   1.568  13.424 -0.2152  0.5254 -1.0288
19604TIP3    H180303   5.278   1.658  13.454  0.3693 -0.4162  2.5052
19604TIP3    H280304   5.381   1.572  13.383 -0.6322  1.7168 -1.8515
19605TIP3   OH280305   6.801   6.607  11.592 -0.2717  0.9330  0.0123
19605TIP3    H180306   6.850   6.575  11.668 -1.6460  2.4748  1.6204
19605TIP3    H280307   6.733   6.541  11.579  0.8766 -0.1171 -0.8877
19606TIP3   OH280308   5.846   0.307  16.644  0.1441  0.4499 -0.6812
19606TIP3    H180309   5.755   0.317  16.617  0.4117  2.5822 -0.9920
19606TIP3    H280310   5.843   0.303  16.739 -0.2749  0.4053 -0.6967
19607TIP3   OH280311   1.162   2.905   1.195  0.5378  0.0910  0.7928
19607TIP3    H180312   1.180   2.967   1.265  1.1681  0.3525  0.4119
19607TIP3    H280313   1.136   2.825   1.240  1.7970 -0.0207  1.3741
19608TIP3   OH280314   3.066   1.399  16.846 -0.1974  0.1715  0.2982
19608TIP3    H180315   2.991   1.434  16.798 -0.1675 -0.5334 -0.2750
19608TIP3    H280316   3.031   1.327  16.898  0.4259 -1.7260 -1.7449
19609TIP3   OH280317   6.448   5.182  11.340  0.0236  0.0159 -0.3712
19609TIP3    H180318   6.380   5.227  11.390 -0.0092  0.3918 -0.7437
19609TIP3    H280319   6.434   5.089  11.358  3.0587  0.1617  4.3548
19610TIP3   OH280320   3.921   2.547  15.666 -0.0126  0.3351 -0.2054
19610TIP3    H180321   3.869   2.537  15.746  0.7034  2.0092  0.5310
19610TIP3    H280322   3.857   2.544  15.595 -0.8853  0.5627  0.5504
19611TIP3   OH280323   0.373   0.402  10.940 -0.1790 -0.2338 -0.2590
19611TIP3    H180324   0.386   0.311  10.912 -0.1972 -0.3808  0.1957
19611TIP3    H280325   0.427   0.453  10.880  1.9500 -0.7584  1.1104
19612TIP3   OH280326   1.397   2.749   5.130 -0.2672  0.1709  0.0136
19612TIP3    H180327   1.314   2.762   5.086 -1.3023  1.3750  2.1487
19612TIP3    H280328   1.416   2.833   5.171 -0.4882 -1.2685  3.5022
19613TIP3   OH280329   6.421   1.784   6.016  0.3602  0.6913  0.3259
19613TIP3    H180330   6.364   1.719   6.056  0.2072 -0.1163 -1.1366
19613TIP3    H280331   6.479   1.812   6.086  0.5782 -1.1844  0.9410
19614TIP3   OH280332   5.603   2.486  14.799  0.1463 -0.1897 -0.0441
19614TIP3    H180333   5.533   2.547  14.823  0.7063  0.4418  0.0211
19614TIP3    H280334   5.642   2.459  14.883  1.4034  1.1822 -0.1429
19615TIP3   OH280335   6.448   6.105  11.816 -0.3542 -0.6421  0.0656
19615TIP3    H180336   6.374   6.089  11.757 -0.9763  3.5526 -0.6315
19615TIP3    H280337   6.525   6.075  11.767 -1.1779 -0.2590 -1.5377
19616TIP3   OH280338   4.523   3.244  10.788  0.1766 -0.1887 -0.0004
19616TIP3    H180339   4.451   3.300  10.818  0.7208  2.1431 -2.6080
19616TIP3    H280340   4.482   3.186  10.724  0.3045  0.0900 -0.3416
19617TIP3   OH280341   2.791   4.672   4.914  0.6640 -0.5656 -0.1714
19617TIP3    H180342   2.763   4.742   4.973  0.2405 -1.3013  0.5218
19617TIP3    H280343   2.843   4.613   4.968  2.1923 -0.1013 -1.0665
19618TIP3   OH280344   1.825   4.846  13.903  0.5164  0.1298 -0.1091
19618TIP3    H180345   1.892   4.838  13.972  1.1522 -0.0457 -0.7400
19618TIP3    H280346   1.747   4.875  13.950  1.1526  0.7809  0.5762
19619TIP3   OH280347   4.362   3.565  17.007  0.1784 -0.3785 -0.1833
19619TIP3    H180348   4.441   3.601  16.966  0.6371 -1.5143 -0.3225
19619TIP3    H280349   4.394   3.500  17.068 -0.6837 -2.0812 -1.4690
19620TIP3   OH280350   0.718   4.883  16.468 -0.4169  0.8473 -0.3320
19620TIP3    H180351   0.790   4.945  16.465 -0.8767  1.3548 -1.8708
19620TIP3    H280352   0.722   4.845  16.556  1.4104  1.2046 -0.2328
19621TIP3   OH280353   5.075   0.795   4.784 -0.1937  0.0865  0.2261
19621TIP3    H180354   5.129   0.835   4.853 -1.2157  2.9077 -0.4733
19621TIP3    H280355   4.990   0.782   4.825 -0.9550  2.2539 -0.5638
19622TIP3   OH280356   1.340   2.872  12.282 -0.5520  0.3687 -0.0891
19622TIP3    H180357   1.372   2.938  12.220  2.8297 -0.2349  0.7923
19622TIP3    H280358   1.390   2.793  12.261 -0.4544 -0.2973  2.3374
19623TIP3   OH280359   3.431   4.508  15.472  0.5221  0.3518  0.9208
19623TIP3    H180360   3.353   4.558  15.497 -0.3392  0.7728 -2.1828
19623TIP3    H280361   3.489   4.573  15.433  0.8899 -0.4996  0.0107
19624TIP3   OH280362   4.197   3.259   0.927  0.2028 -0.2754 -0.0352
19624TIP3    H180363   4.158   3.171   0.919 -3.0038  0.7936  1.7058
19624TIP3    H280364   4.251   3.254   1.006  0.3587 -0.8124 -0.1747
19625TIP3   OH280365   0.237   1.783   0.903 -0.5995 -0.0422 -0.1107
19625TIP3    H180366   0.186   1.733   0.967 -0.0521  0.1421  0.4852
19625TIP3    H280367   0.181   1.857   0.881 -1.3902 -0.8681 -0.9547
19626TIP3   OH280368   4.198   3.479   4.079  0.0250 -0.3181  0.7670
19626TIP3    H180369   4.172   3.395   4.118 -1.4597  0.3065  1.1755
19626TIP3    H280370   4.293   3.472   4.069  0.1102 -1.5135  2.0849
19627TIP3   OH280371   5.142   3.964  17.160 -0.3202 -0.5544 -0.3870
19627TIP3    H180372   5.220   4.008  17.126  0.1775  0.7771  2.2515
19627TIP3    H280373   5.168   3.932  17.246 -2.9009  0.7709  0.9971
19628TIP3   OH280374   3.087   2.397   4.390  0.8693 -0.0170  0.3823
19628TIP3    H180375   3.153   2.417   4.323  1.6777 -0.0264  1.1580
19628TIP3    H280376   3.100   2.464   4.457  0.1615 -0.0901  0.6007
19629TIP3   OH280377   0.270   3.290  16.321  0.2997  0.1136  0.0072
19629TIP3    H180378   0.356   3.250  16.330  1.1403  1.4029 -1.6716
19629TIP3    H280379   0.234   3.251  16.241 -0.3475  0.1465  0.2789
19630TIP3   OH280380   1.615   1.852  12.244 -0.0366  0.0206  0.1484
19630TIP3    H180381   1.600   1.781  12.306 -0.0226  1.0318  1.3421
19630TIP3    H280382   1.705   1.880  12.260 -0.0959  0.4185 -0.1887
19631TIP3   OH280383   4.297   1.269  15.171  0.2442  0.6172 -0.0085
19631TIP3    H180384   4.345   1.253  15.252  0.7950 -1.3421 -0.6782
19631TIP3    H280385   4.333   1.206  15.108 -2.0489  0.1952 -1.0070
19632TIP3   OH280386   6.209   2.056  16.544 -0.5550  0.3494 -0.4556
19632TIP3    H180387   6.268   2.069  16.470  0.1254 -0.7501 -0.1288
19632TIP3    H280388   6.125   2.093  16.515  0.3365  2.2147 -0.8118
19633TIP3   OH280389   1.015   3.100   1.481  0.2139 -0.0332 -0.1500
19633TIP3    H180390   0.977   3.166   1.423  0.9444  0.6685  0.1465
19633TIP3    H280391   1.108   3.097   1.457  0.3572 -0.3538  0.4070
19634TIP3   OH280392   5.518   1.891  12.011 -0.7145  0.2446 -0.0211
19634TIP3    H180393   5.540   1.916  11.921  0.2687 -1.4241 -0.2789
19634TIP3    H280394   5.423   1.881  12.011 -0.8737  1.5417 -0.5053
19635TIP3   OH280395   1.932   1.973   5.873  0.3143  0.0710  0.3106
19635TIP3    H180396   1.929   1.886   5.912  0.7912  0.7703  2.0280
19635TIP3    H280397   1.877   2.027   5.930 -0.4658  0.7707 -1.0784
19636TIP3   OH280398   3.530   3.941  14.175  0.6955 -0.6264 -0.0086
19636TIP3    H180399   3.435   3.950  14.161  1.0249  0.7608 -1.6775
19636TIP3    H280400   3.557   3.873  14.114  0.7137 -1.4853  0.9254
19637TIP3   OH280401   3.402   3.636   6.720 -0.0936  0.0765 -0.6888
19637TIP3    H180402   3.490   3.604   6.703  0.3609  1.2242 -0.5824
19637TIP3    H280403   3.368   3.661   6.634 -0.4719 -0.7169 -0.7805
19638TIP3   OH280404   4.547   4.828  16.927 -0.5519 -0.5041  0.0292
19638TIP3    H180405   4.497   4.880  16.864  1.9769  0.6975 -1.1241
19638TIP3    H280406   4.561   4.886  17.001 -0.6989 -0.7798  0.2765
19639TIP3   OH280407   3.764   5.307  14.816  0.0495 -0.5790 -0.9011
19639TIP3    H180408   3.825   5.364  14.861  0.7103  0.1046 -2.6129
19639TIP3    H280409   3.686   5.306  14.872  0.2536  1.4909 -0.5330
19640TIP3   OH280410   4.706   3.031  16.327 -0.8068  0.6847 -0.4230
19640TIP3    H180411   4.719   3.121  16.297 -1.6333  0.6440 -0.9637
19640TIP3    H280412   4.697   2.981  16.246  0.6709 -0.0669 -0.1477
19641TIP3   OH280413   2.742   4.565  13.317 -0.5633 -0.0553  0.1097
19641TIP3    H180414   2.714   4.526  13.235 -1.3861 -0.2424  0.4698
19641TIP3    H280415   2.692   4.519  13.384  0.3443 -0.1405  0.7528
19642TIP3   OH280416   5.987   6.313   1.402  0.1281 -0.2840 -0.0136
19642TIP3    H180417   5.956   6.395   1.442  0.9082  2.3423 -4.1107
19642TIP3    H280418   5.907   6.265   1.381 -0.4189 -0.0102  1.3504
19643TIP3   OH280419   1.624   5.952   3.230  0.2075 -0.8916 -0.5419
19643TIP3    H180420   1.539   5.993   3.239  1.3204  2.7180 -3.7202
19643TIP3    H280421   1.613   5.889   3.158  0.2481 -0.2190 -1.1453
19644TIP3   OH280422   5.886   5.046  14.222  0.2658  0.2017 -0.5426
19644TIP3    H180423   5.891   4.996  14.304  0.3250  0.8224 -0.1589
19644TIP3    H280424   5.799   5.084  14.222  0.8993  1.7652  0.1890
19645TIP3   OH280425   5.645   5.809  14.948  0.1858  0.0039 -0.0205
19645TIP3    H180426   5.655   5.879  14.883  2.0728  0.2231  0.4508
19645TIP3    H280427   5.598   5.851  15.020 -0.6394  0.1627 -0.6361
19646TIP3   OH280428   6.648   3.516   5.072  0.0879  0.8946  0.0171
19646TIP3    H180429   6.568   3.562   5.097  1.8044  3.0077  1.9810
19646TIP3    H280430   6.685   3.486   5.155  0.8608 -0.9972 -0.9463
19647TIP3   OH280431   4.967   4.154  13.868  0.1298  0.5369  0.0706
19647TIP3    H180432   4.959   4.066  13.831 -2.9166  0.6780  0.0705
19647TIP3    H280433   4.988   4.209  13.792 -0.4799  0.1012 -0.4324
19648TIP3   OH280434   0.096   2.160   2.901  0.3512 -0.1204  0.2640
19648TIP3    H180435   0.072   2.177   2.810 -0.1780 -0.2748  0.3687
19648TIP3    H280436   0.140   2.240   2.930  0.5251 -0.0714 -0.1274
19649TIP3   OH280437   1.226   2.910   5.922  0.3681 -0.7023 -0.4802
19649TIP3    H180438   1.230   2.907   6.018 -0.1481  0.1558 -0.4202
19649TIP3    H280439   1.253   2.999   5.900  2.5040 -1.4874 -1.2723
19650TIP3   OH280440   3.238   6.307   4.686 -0.3117 -0.0989 -0.2014
19650TIP3    H180441   3.276   6.381   4.638  0.5806 -0.2840  0.1839
19650TIP3    H280442   3.147   6.304   4.659 -0.0704  0.4289 -1.1000
19651TIP3   OH280443   4.591   4.385   2.513 -0.1992 -0.2537  0.3632
19651TIP3    H180444   4.647   4.317   2.552 -0.6156 -0.6425  0.2955
19651TIP3    H280445   4.653   4.446   2.472  0.1645 -2.4527 -2.7085
19652TIP3   OH280446   3.727   6.198  11.561 -0.1323 -0.3680 -0.0293
19652TIP3    H180447   3.802   6.157  11.605  0.3323 -0.7435 -1.1321
19652TIP3    H280448   3.743   6.292  11.570 -0.2796 -0.4260  0.9781
19653TIP3   OH280449   0.426   6.452  14.784 -0.0330  0.1027  0.6512
19653TIP3    H180450   0.455   6.428  14.696 -0.5753 -0.5502  0.6485
19653TIP3    H280451   0.484   6.524  14.809 -0.1287  0.5619 -0.4007
19654TIP3   OH280452   2.471   5.875   6.369  0.0737 -0.0644  0.2152
19654TIP3    H180453   2.501   5.966   6.372  1.0224 -0.3794  0.6250
19654TIP3    H280454   2.413   5.872   6.293 -0.5449  1.0502  0.6208
19655TIP3   OH280455   5.256   6.103   5.573 -0.0928  0.1336  0.0780
19655TIP3    H180456   5.224   6.177   5.625 -0.0261  0.8799 -0.9025
19655TIP3    H280457   5.288   6.143   5.492  1.4165 -0.8093  0.1704
19656TIP3   OH280458   6.021   2.229  11.803 -0.3923 -0.1722  0.0208
19656TIP3    H180459   5.939   2.202  11.762 -0.5841 -1.6173  1.2767
19656TIP3    H280460   6.003   2.225  11.897  0.6967  0.9259  0.3023
19657TIP3   OH280461   3.745   4.589   5.890 -0.3697 -0.1452  0.1989
19657TIP3    H180462   3.752   4.524   5.820 -1.0019  0.3494 -0.3348
19657TIP3    H280463   3.818   4.648   5.876 -1.3043  0.7873 -0.9370
19658TIP3   OH280464   0.633   6.657   3.131  0.3293  0.2040  0.5307
19658TIP3    H180465   0.674   6.609   3.059 -1.5806  0.1179 -0.5811
19658TIP3    H280466   0.649   6.749   3.110  0.1432  0.1659  0.2071
19659TIP3   OH280467   1.741   3.795  13.066 -0.4005  0.3262  0.1354
19659TIP3    H180468   1.693   3.832  13.140 -1.0432  2.7762 -1.3804
19659TIP3    H280469   1.800   3.866  13.038  2.5835 -1.8081  0.5521
19660TIP3   OH280470   4.598   3.175   1.542 -0.2808  0.0773  0.1034
19660TIP3    H180471   4.605   3.261   1.583 -0.5485 -0.1945  0.7491
19660TIP3    H280472   4.669   3.124   1.581 -0.1628 -0.0096 -0.2282
19661TIP3   OH280473   2.279   3.260   5.392 -0.4985 -0.1506 -0.1910
19661TIP3    H180474   2.284   3.312   5.312 -1.4184  1.4423  0.7352
19661TIP3    H280475   2.367   3.267   5.430 -1.0571  2.4159  0.8648
19662TIP3   OH280476   0.316   5.398  11.349 -0.4317 -0.1497 -0.4528
19662TIP3    H180477   0.225   5.391  11.379  0.5760 -0.3163  3.0100
19662TIP3    H280478   0.326   5.491  11.326 -1.4385 -0.1100 -0.8000
19663TIP3   OH280479   6.322   3.427   0.741  0.1555 -0.4360  0.1758
19663TIP3    H180480   6.402   3.432   0.690  0.0346  0.8141  0.0816
19663TIP3    H280481   6.345   3.462   0.827 -0.3680  0.3300  0.0212
19664TIP3   OH280482   5.815   4.216  16.864  0.2190 -0.2035  0.3085
19664TIP3    H180483   5.725   4.247  16.861  0.6219  1.1684  1.2306
19664TIP3    H280484   5.812   4.129  16.826 -1.5816 -0.4030  0.8164
19665TIP3   OH280485   1.594   4.996   6.409 -0.0011  0.9260 -0.3148
19665TIP3    H180486   1.521   4.986   6.470  0.9457 -0.2647  0.6892
19665TIP3    H280487   1.617   4.906   6.384  0.7191  1.3084 -1.0903
19666TIP3   OH280488   0.345   5.729  11.037 -0.5271  0.4290 -0.4543
19666TIP3    H180489   0.420   5.759  11.089 -1.1284 -0.8613  1.2619
19666TIP3    H280490   0.287   5.804  11.033  0.1136  0.9418 -0.3581
19667TIP3   OH280491   3.223   6.183  15.327 -0.5924  0.2529 -0.2326
19667TIP3    H180492   3.135   6.151  15.347 -1.0215  2.5014  1.9439
19667TIP3    H280493   3.236   6.160  15.235 -1.3873 -4.5610  0.5920
19668TIP3   OH280494   6.561   3.076  11.324 -0.2513 -0.6824 -0.4405
19668TIP3    H180495   6.601   3.026  11.252  0.4970  1.3608 -1.5192
19668TIP3    H280496   6.549   3.164  11.288 -0.7590  0.1542  1.6484
19669TIP3   OH280497   1.402   2.239   0.343 -0.2911  0.0958  0.1481
19669TIP3    H180498   1.387   2.318   0.290 -1.0067  0.5121  0.9453
19669TIP3    H280499   1.401   2.270   0.433  0.6829 -0.6449  0.4327
19670TIP3   OH280500   5.221   2.302   4.196 -0.0439  0.1789  0.1114
19670TIP3    H180501   5.239   2.376   4.137 -1.1633 -0.4237 -1.0401
19670TIP3    H280502   5.192   2.232   4.137 -1.0986 -0.4819  1.3902
19671TIP3   OH280503   0.154   1.709  12.376  0.3936 -0.6065  0.4315
19671TIP3    H180504   0.077   1.656  12.397 -0.6222 -0.0696 -1.7121
19671TIP3    H280505   0.226   1.646  12.373  0.2673 -1.0201  3.1422
19672TIP3   OH280506   3.963   2.532   3.765  0.4802 -0.3565 -0.3906
19672TIP3    H180507   3.888   2.591   3.754 -0.7404 -1.3117  2.0318
19672TIP3    H280508   3.984   2.503   3.677 -0.9885  1.1590 -1.2977
19673TIP3   OH280509   3.189   5.270   4.533 -0.6188 -0.0647 -0.8724
19673TIP3    H180510   3.164   5.178   4.520 -0.6662 -0.4582  1.4885
19673TIP3    H280511   3.170   5.287   4.626 -1.8428  2.7433 -1.5331
19674TIP3   OH280512   3.159   5.885  14.423  0.0695 -0.2387 -0.2768
19674TIP3    H180513   3.217   5.914  14.494 -0.5695 -0.3104  0.2819
19674TIP3    H280514   3.218   5.871  14.348  0.6281  0.8114 -0.0639
19675TIP3   OH280515   5.411   6.114   2.155 -0.5567 -0.5988 -0.2001
19675TIP3    H180516   5.329   6.162   2.143 -1.4751 -2.1614 -0.5077
19675TIP3    H280517   5.421   6.107   2.250 -0.5801 -0.0763 -0.1592
19676TIP3   OH280518   2.299   4.130   3.748  0.3414  0.2055  0.0125
19676TIP3    H180519   2.298   4.223   3.771  0.8042 -0.0732  1.2500
19676TIP3    H280520   2.363   4.124   3.677  0.4955  0.7875  0.0951
19677TIP3   OH280521   5.929   2.607  12.210  0.2021 -0.4029 -0.6029
19677TIP3    H180522   5.911   2.624  12.117  2.2304 -1.1374 -1.1831
19677TIP3    H280523   5.869   2.665  12.257 -0.2824  0.6149 -2.3786
19678TIP3   OH280524   5.369   4.044   6.529  0.3093  0.0327  0.2029
19678TIP3    H180525   5.450   4.086   6.556  0.5313 -0.2637  0.0090
19678TIP3    H280526   5.304   4.115   6.528  1.5297  1.4253 -4.2228
19679TIP3   OH280527   1.191   3.087  15.859 -0.6017  0.3071 -0.0822
19679TIP3    H180528   1.099   3.080  15.834 -0.5305  1.4911 -0.7710
19679TIP3    H280529   1.203   3.022  15.928 -1.8227 -0.2226 -0.3539
19680TIP3   OH280530   5.062   3.340   6.412 -0.0145  0.2531 -0.8633
19680TIP3    H180531   5.142   3.380   6.445 -0.6027  0.9565 -0.2516
19680TIP3    H280532   5.042   3.270   6.474 -0.1447  0.4018 -0.7381
19681TIP3   OH280533   5.976   4.308   0.611 -0.5319  0.0977  0.5493
19681TIP3    H180534   5.907   4.251   0.576 -0.0907 -1.0028  1.4114
19681TIP3    H280535   6.057   4.272   0.577 -0.2736  0.4640  0.7716
19682TIP3   OH280536   6.413   5.416   4.993  0.0694  0.4713 -0.4659
19682TIP3    H180537   6.405   5.332   4.946  0.5653 -0.0886  0.4327
19682TIP3    H280538   6.494   5.454   4.961 -0.0473  0.5154 -0.7153
19683TIP3   OH280539   5.580   0.350   1.619  0.6769 -0.0821  0.3262
19683TIP3    H180540   5.555   0.417   1.556  1.0938  0.1396  0.3862
19683TIP3    H280541   5.555   0.267   1.579  0.8905  0.0600 -0.1080
19684TIP3   OH280542   3.623   2.885  12.288 -0.1071  0.0015  0.2748
19684TIP3    H180543   3.605   2.972  12.251 -0.2903 -0.0408  0.2629
19684TIP3    H280544   3.545   2.864  12.339 -0.5611 -0.6461 -0.6506
19685TIP3   OH280545   0.733   6.143   6.468 -0.0188 -0.0841  0.3681
19685TIP3    H180546   0.643   6.112   6.454 -0.0050 -0.0482  0.2055
19685TIP3    H280547   0.728   6.238   6.458 -0.1095 -0.0002  1.1102
19686TIP3   OH280548   5.876   6.028   5.144 -0.0824  0.1876  0.4359
19686TIP3    H180549   5.885   5.937   5.171 -1.6274  0.0887  0.6873
19686TIP3    H280550   5.792   6.032   5.098  0.6257  1.1952 -0.8697
19687TIP3   OH280551   2.386   4.940  12.412  0.3508  0.4246  0.3360
19687TIP3    H180552   2.327   4.868  12.436  0.8694 -0.0037  0.3320
19687TIP3    H280553   2.368   5.007  12.478  0.5022 -0.0550  0.8826
19688TIP3   OH280554   2.604   0.342  14.064  0.0621  0.0077  0.3305
19688TIP3    H180555   2.674   0.399  14.032  0.6275 -1.2919 -0.8249
19688TIP3    H280556   2.620   0.334  14.158  1.7193 -0.5813  0.0255
19689TIP3   OH280557   6.024   2.555  12.845  0.2100  0.1313  0.0101
19689TIP3    H180558   6.059   2.471  12.874 -0.4995 -0.7811 -1.6424
19689TIP3    H280559   6.002   2.601  12.926  0.0924 -1.5016  0.9432
19690TIP3   OH280560   5.794   6.651   0.657 -0.3465 -0.0099  0.4638
19690TIP3    H180561   5.731   6.723   0.660 -0.3130  0.3364 -2.9542
19690TIP3    H280562   5.872   6.684   0.701 -1.1387  1.1288  1.0446
19691TIP3   OH280563   4.441   2.525   2.925  0.3151 -0.4413  0.0636
19691TIP3    H180564   4.398   2.443   2.950 -0.6399 -0.2680 -0.9246
19691TIP3    H280565   4.438   2.526   2.829  0.9029  0.4439  0.0383
19692TIP3   OH280566   3.825   4.536  12.476 -0.3823 -0.0495 -0.4571
19692TIP3    H180567   3.824   4.442  12.458  3.8177 -0.3127 -0.2640
19692TIP3    H280568   3.829   4.542  12.571  1.2869  0.1561 -0.5092
19693TIP3   OH280569   5.642   4.553   4.784 -0.0275 -0.1418  0.0667
19693TIP3    H180570   5.548   4.551   4.765 -0.2354  0.2458  1.0124
19693TIP3    H280571   5.674   4.630   4.738 -0.6943  1.3112  1.9102
19694TIP3   OH280572   5.632   4.651   5.031 -0.5947 -0.2729 -0.4614
19694TIP3    H180573   5.635   4.622   4.940 -0.6331 -1.3171 -0.1388
19694TIP3    H280574   5.637   4.571   5.082  2.2629  0.3887  0.5063
19695TIP3   OH280575   2.812   4.014  16.558 -0.1494  0.0842  0.2942
19695TIP3    H180576   2.728   3.982  16.591  0.0402  0.1950  0.9024
19695TIP3    H280577   2.837   4.082  16.620  0.9833 -0.8061  0.8493
19696TIP3   OH280578   3.382   0.547   4.647 -0.7295 -0.2301  0.5856
19696TIP3    H180579   3.373   0.497   4.566  2.3757 -2.6981  1.5726
19696TIP3    H280580   3.377   0.482   4.717  2.9102  0.7423  1.9747
19697TIP3   OH280581   4.964   4.584  13.766 -0.1230 -0.0632 -0.2536
19697TIP3    H180582   4.959   4.497  13.806  0.7782 -0.0135 -0.0044
19697TIP3    H280583   5.011   4.569  13.683 -0.5872  0.0802 -0.5462
19698TIP3   OH280584   0.663   2.199   2.713  0.3659 -0.1605 -0.1892
19698TIP3    H180585   0.663   2.161   2.625  2.7619 -1.1791  0.1917
19698TIP3    H280586   0.755   2.203   2.738 -0.2680 -0.2922  2.4491
19699TIP3   OH280587   6.086   1.482  16.360  0.3792 -0.0388  0.6097
19699TIP3    H180588   6.015   1.431  16.319 -0.4309  0.2218  1.6436
19699TIP3    H280589   6.146   1.500  16.288 -0.9571  0.3277 -0.4639
19700TIP3   OH280590   3.608   6.814   2.944  0.4063 -0.5443 -0.1704
19700TIP3    H180591   3.679   6.775   2.995  0.0641  0.6960  1.3299
19700TIP3    H280592   3.605   6.905   2.974 -1.8824 -0.5920 -0.1090
19701TIP3   OH280593   1.419   2.983   5.278  0.6960 -0.3564  0.3890
19701TIP3    H180594   1.493   3.003   5.335  0.1728  0.2811  0.8501
19701TIP3    H280595   1.415   3.057   5.217  0.5948 -0.5176  0.1987
19702TIP3   OH280596   6.821   1.270   5.266  0.7460  0.6564  1.0981
19702TIP3    H180597   6.899   1.300   5.220 -0.0375  0.0746 -0.7211
19702TIP3    H280598   6.854   1.229   5.345  2.1597  1.7649  1.1286
19703TIP3   OH280599   4.851   5.599   5.839 -0.2659  0.4943 -0.5625
19703TIP3    H180600   4.783   5.602   5.906  0.3891 -2.7655  0.3961
19703TIP3    H280601   4.920   5.657   5.873 -0.2063 -0.6129  1.3675
19704TIP3   OH280602   0.180   1.948  16.559  0.2838  0.1116  0.2726
19704TIP3    H180603   0.216   2.007  16.625 -0.4268  0.4982  0.3300
19704TIP3    H280604   0.198   1.860  16.593  2.3733  0.2497 -0.3733
19705TIP3   OH280605   3.486   1.402   2.074 -0.1121 -0.3550  0.2336
19705TIP3    H180606   3.483   1.483   2.023  2.1368  0.8630  1.8556
19705TIP3    H280607   3.558   1.353   2.036  0.1260 -0.4476  0.7883
19706TIP3   OH280608   6.017   6.807  14.456 -0.8039 -0.4143  0.0186
19706TIP3    H180609   6.056   6.730  14.496  0.2123  0.2453  0.3292
19706TIP3    H280610   6.074   6.880  14.481 -2.4646  0.6770  0.8961
19707TIP3   OH280611   3.545   4.317  13.992  0.2184 -0.1845 -0.7810
19707TIP3    H180612   3.456   4.334  13.961 -0.4165 -0.2185  0.9292
19707TIP3    H280613   3.535   4.299  14.086  2.0674  0.1179 -0.4913
19708TIP3   OH280614   4.105   5.506   2.469  0.3203 -0.1113  0.4673
19708TIP3    H180615   4.023   5.457   2.459  0.4186 -0.3383  0.7290
19708TIP3    H280616   4.078   5.593   2.497  0.1832 -0.3537  1.1340
19709TIP3   OH280617   1.959   5.621  16.383 -0.4956  0.3379 -0.0968
19709TIP3    H180618   2.003   5.537  16.371  0.9983  1.2241 -1.3396
19709TIP3    H280619   1.969   5.640  16.477  1.5570  0.3115 -0.2512
19710TIP3   OH280620   4.050   6.550  14.477  0.0893  0.1954 -0.5891
19710TIP3    H180621   4.010   6.463  14.467 -2.1124  1.2213 -1.3815
19710TIP3    H280622   4.057   6.562  14.572 -0.8929 -0.3094 -0.4340
19711TIP3   OH280623   0.918   2.937  15.104 -0.1689 -0.7955  0.6094
19711TIP3    H180624   0.927   2.995  15.180 -2.5455 -1.2625  1.3408
19711TIP3    H280625   0.851   2.874  15.130 -0.7071 -1.2760 -1.6910
19712TIP3   OH280626   1.978   3.278  14.173  0.1933  0.5185  0.0309
19712TIP3    H180627   1.978   3.211  14.241 -1.7390 -0.0459 -0.4655
19712TIP3    H280628   2.022   3.353  14.213  0.7978 -0.4250  1.2107
19713TIP3   OH280629   4.305   5.157  12.688  0.0731  0.1865  0.0569
19713TIP3    H180630   4.287   5.078  12.637 -2.7305  0.6374  0.2035
19713TIP3    H280631   4.358   5.211  12.629 -1.1945 -0.2520 -1.5775
19714TIP3   OH280632   1.887   6.647   2.006 -0.6069  0.2844 -0.2494
19714TIP3    H180633   1.830   6.714   2.043 -0.1036  1.0727 -0.8855
19714TIP3    H280634   1.855   6.565   2.044  0.0436  1.0572  2.1300
19715TIP3   OH280635   4.662   3.272   1.289  0.7723  0.2032 -0.1279
19715TIP3    H180636   4.646   3.357   1.331  0.2377  0.5705 -1.0453
19715TIP3    H280637   4.619   3.209   1.346  2.1237  0.3933  1.1710
19716TIP3   OH280638   6.412   6.750  16.690  0.0325 -0.2189  0.2008
19716TIP3    H180639   6.326   6.712  16.709 -1.5110  2.9054  0.0202
19716TIP3    H280640   6.445   6.778  16.775  0.8062 -1.1905  0.2372
19717TIP3   OH280641   3.203   2.432   2.654 -0.6203  0.1068 -0.0674
19717TIP3    H180642   3.239   2.415   2.568 -3.0431 -0.2607 -1.0878
19717TIP3    H280643   3.163   2.519   2.647  3.1949  2.3184  2.1933
19718TIP3   OH280644   1.473   4.868   2.115 -0.4721 -0.1663  0.6994
19718TIP3    H180645   1.455   4.953   2.075 -0.0425 -0.2913  0.2271
19718TIP3    H280646   1.471   4.806   2.041 -0.2321 -0.4836  0.9565
19719TIP3   OH280647   5.848   5.793   2.237  0.0310  0.7689  0.1804
19719TIP3    H180648   5.863   5.887   2.222  0.1853  0.4731 -1.8322
19719TIP3    H280649   5.903   5.750   2.171 -0.5366 -0.7280  0.6512
19720TIP3   OH280650   0.883   6.512   4.355 -0.4908  0.2114 -0.1049
19720TIP3    H180651   0.857   6.574   4.423 -0.2738 -0.7820  0.9328
19720TIP3    H280652   0.859   6.554   4.273 -1.0295  1.3290  0.5981
19721TIP3   OH280653   0.296   2.407   2.926 -0.0424 -0.2147 -0.3576
19721TIP3    H180654   0.349   2.456   2.989 -0.5674  2.6957 -1.9924
19721TIP3    H280655   0.307   2.454   2.843 -4.7803  0.4346 -0.9326
19722TIP3   OH280656   4.624   1.519   0.151 -0.4489  0.0654 -0.1410
19722TIP3    H180657   4.536   1.482   0.145 -0.0411 -1.0188  0.2876
19722TIP3    H280658   4.660   1.511   0.063 -0.2386 -0.9171  0.0225
19723TIP3   OH280659   1.487   5.534   3.650  0.4956  0.1933 -0.4781
19723TIP3    H180660   1.450   5.461   3.600  0.5138  0.2720 -0.6062
19723TIP3    H280661   1.500   5.498   3.738 -0.0696  0.2244 -0.3754
19724TIP3   OH280662   2.681   2.154  10.595  0.0030  0.0392  0.1341
19724TIP3    H180663   2.740   2.229  10.583 -0.8033  0.6476 -0.0718
19724TIP3    H280664   2.703   2.095  10.522 -0.6355  0.9268 -0.8010
19725TIP3   OH280665   0.651   3.151   5.187 -0.5672 -0.0295 -0.2826
19725TIP3    H180666   0.659   3.142   5.092  0.4374 -2.6107 -0.0381
19725TIP3    H280667   0.677   3.241   5.205  0.7929  0.0430 -2.3314
19726TIP3   OH280668   1.584   0.346   1.166  0.0269 -0.4857  0.4762
19726TIP3    H180669   1.638   0.289   1.111 -0.5722 -0.3086 -0.3045
19726TIP3    H280670   1.637   0.425   1.176 -0.4104  0.0178 -0.9787
19727TIP3   OH280671   4.928   2.035   1.675 -0.2660 -0.1413 -0.4538
19727TIP3    H180672   4.839   2.071   1.676 -0.1029  0.2616  0.1987
19727TIP3    H280673   4.941   2.003   1.764  0.1091 -0.5505 -0.6525
19728TIP3   OH280674   1.223   6.797  14.134  0.8115  0.3436 -0.2332
19728TIP3    H180675   1.208   6.784  14.228  0.5611  0.8586 -0.2010
19728TIP3    H280676   1.260   6.885  14.127  2.6527 -0.4138 -0.4453
19729TIP3   OH280677   0.158   0.712  11.588  0.5302  0.5583 -0.9306
19729TIP3    H180678   0.142   0.631  11.540 -0.1910  0.2250 -0.1582
19729TIP3    H280679   0.193   0.682  11.673 -1.2296  0.9461 -0.0276
19730TIP3   OH280680   2.116   3.094   1.781 -0.4427 -0.5007 -0.2978
19730TIP3    H180681   2.077   3.120   1.864 -0.2215 -0.1049 -0.3172
19730TIP3    H280682   2.060   3.133   1.715 -1.2071 -1.6479 -0.3616
19731TIP3   OH280683   2.923   1.404   6.537  0.0258 -0.2345  0.5111
19731TIP3    H180684   2.939   1.498   6.542 -0.8231 -0.0631  0.1934
19731TIP3    H280685   2.850   1.396   6.476  1.3317 -1.2403 -1.0278
19732TIP3   OH280686   2.907   6.695   1.368 -0.0196 -0.2546  0.1292
19732TIP3    H180687   2.816   6.668   1.356  0.7670 -2.9759 -0.2834
19732TIP3    H280688   2.925   6.751   1.292 -0.7800 -1.3279 -0.8811
19733TIP3   OH280689   2.565   3.875   4.423 -0.0107 -0.2373 -0.2439
19733TIP3    H180690   2.480   3.916   4.410 -0.0948 -0.4063 -0.2199
19733TIP3    H280691   2.616   3.901   4.346  0.5479  1.4706  0.6475
19734TIP3   OH280692   1.469   3.589  12.625 -0.7703 -0.2850  0.0403
19734TIP3    H180693   1.387   3.567  12.667 -0.3569  1.6416  2.0733
19734TIP3    H280694   1.450   3.670  12.577  0.0778  0.6019  1.1569
19735TIP3   OH280695   5.843   4.348   2.508 -0.2206  0.2777 -0.0968
19735TIP3    H180696   5.903   4.352   2.582  1.1689 -0.4474 -1.1297
19735TIP3    H280697   5.873   4.418   2.449  0.8143 -1.2355 -1.4451
19736TIP3   OH280698   0.118   4.301  15.197 -0.8816  0.7299 -0.1755
19736TIP3    H180699   0.177   4.332  15.128  1.1233 -1.5179  0.4020
19736TIP3    H280700   0.174   4.293  15.274 -2.1007 -0.7664  0.6033
19737TIP3   OH280701   6.001   3.289  12.791  0.4501  0.1081  0.1709
19737TIP3    H180702   5.977   3.198  12.775  1.4233 -0.3600  1.1997
19737TIP3    H280703   5.947   3.340  12.730  1.1312 -1.2501 -1.6283
19738TIP3   OH280704   4.570   3.207   3.840  0.1033 -0.3617 -0.2238
19738TIP3    H180705   4.617   3.222   3.759  0.2161  1.3695  0.1220
19738TIP3    H280706   4.638   3.187   3.904  0.1630 -0.2108 -0.2384
19739TIP3   OH280707   3.862   3.528  12.773 -0.6882 -0.4851 -0.8684
19739TIP3    H180708   3.862   3.544  12.867 -0.2784 -0.4738 -0.8693
19739TIP3    H280709   3.860   3.432  12.765  0.9228 -0.5361 -0.8314
19740TIP3   OH280710   1.553   4.969  11.899  0.5887  0.6143 -0.6510
19740TIP3    H180711   1.505   4.915  11.837 -1.2588  2.3176 -0.8076
19740TIP3    H280712   1.538   5.059  11.869  4.6857  1.3018 -1.2524
19741TIP3   OH280713   1.210   6.065   1.811 -0.2616  0.2083  0.0487
19741TIP3    H180714   1.243   6.078   1.723  1.0230  0.2158  0.5134
19741TIP3    H280715   1.115   6.072   1.802 -0.2597 -1.2098 -1.5586
19742TIP3   OH280716   1.320   4.704   0.187 -0.2450  0.1996  0.2546
19742TIP3    H180717   1.353   4.792   0.167 -1.5910  0.5642 -0.5058
19742TIP3    H280718   1.225   4.712   0.181 -0.3735 -1.4426 -0.4175
19743TIP3   OH280719   3.318   1.226   1.910  0.1020  0.4455  0.6191
19743TIP3    H180720   3.304   1.238   2.004 -2.0900 -1.9089  0.7384
19743TIP3    H280721   3.405   1.187   1.904  0.4575  1.0400  1.6263
19744TIP3   OH280722   6.092   3.138   4.625 -0.1055 -0.5219  0.0131
19744TIP3    H180723   5.996   3.138   4.625 -0.1246 -1.3056  1.0445
19744TIP3    H280724   6.116   3.048   4.648  0.9006 -0.6412 -1.3742
19745TIP3   OH280725   5.475   2.115  13.967  0.0612 -0.3051  0.0631
19745TIP3    H180726   5.447   2.108  13.876  1.6552  1.1668 -0.5933
19745TIP3    H280727   5.493   2.208  13.980 -0.6261 -0.4175  2.0526
19746TIP3   OH280728   0.829   1.870   2.459 -0.0756 -0.0607 -0.5382
19746TIP3    H180729   0.892   1.863   2.531  0.3596 -1.9940 -1.0329
19746TIP3    H280730   0.831   1.962   2.434 -0.1519  0.6392  1.8143
19747TIP3   OH280731   5.724   0.533  17.201  0.0046  0.3164  0.2449
19747TIP3    H180732   5.731   0.449  17.246 -1.0820 -1.9595 -3.3547
19747TIP3    H280733   5.641   0.570  17.231 -0.0604 -0.4589  1.0595
19748TIP3   OH280734   1.798   3.833  16.606  0.3820 -0.4707 -0.9635
19748TIP3    H180735   1.748   3.771  16.661  0.3279 -0.0629 -0.5463
19748TIP3    H280736   1.733   3.897  16.578  0.4435 -0.5885 -1.3813
19749TIP3   OH280737   5.426   3.989   4.999  0.0481 -0.4062  0.0817
19749TIP3    H180738   5.373   4.058   5.038 -0.4400  0.1494 -1.5131
19749TIP3    H280739   5.397   3.909   5.042 -0.4876  0.1779  0.8251
19750TIP3   OH280740   0.036   0.614   4.439 -0.0834 -0.0630 -0.1782
19750TIP3    H180741   0.031   0.570   4.525  0.9136  1.7933  0.9016
19750TIP3    H280742   0.117   0.580   4.400 -0.5837 -0.9783 -0.4546
19751TIP3   OH280743   5.219   5.750  11.059  0.2240  0.0046  0.1674
19751TIP3    H180744   5.288   5.779  11.118 -0.6155  1.1228  0.6339
19751TIP3    H280745   5.185   5.831  11.020  0.6693 -0.6862 -1.7838
19752TIP3   OH280746   6.173   1.409  13.325 -0.6755 -0.0218  0.5230
19752TIP3    H180747   6.114   1.463  13.272 -1.0780 -1.7457 -0.8855
19752TIP3    H280748   6.210   1.346  13.263 -0.2892 -1.4162  2.0826
19753TIP3   OH280749   1.118   5.052  16.284 -0.5209 -0.1691  0.3080
19753TIP3    H180750   1.024   5.037  16.294 -0.4835 -0.2121  0.6303
19753TIP3    H280751   1.153   4.968  16.255 -0.6101 -0.0950 -0.0163
19754TIP3   OH280752   5.540   0.642   6.001 -0.5410  0.1762  0.1252
19754TIP3    H180753   5.482   0.718   6.008 -1.2324 -0.2049 -1.1542
19754TIP3    H280754   5.482   0.569   5.979  0.3672 -0.2618 -0.9439
19755TIP3   OH280755   3.528   6.689   6.075 -0.1613 -0.3691 -0.0019
19755TIP3    H180756   3.577   6.635   6.013  1.0207  0.3178  0.3010
19755TIP3    H280757   3.439   6.655   6.071 -0.0797 -0.4572 -1.9228
19756TIP3   OH280758   4.342   2.293  12.406 -0.6027 -0.1858 -0.3268
19756TIP3    H180759   4.398   2.354  12.359 -0.0991  0.6785  1.3106
19756TIP3    H280760   4.253   2.315  12.377 -0.5931  2.4978  1.3965
19757TIP3   OH280761   3.325   6.436   1.309  0.2965 -0.4446 -0.0308
19757TIP3    H180762   3.320   6.526   1.342 -0.7696 -0.8352  0.9567
19757TIP3    H280763   3.352   6.445   1.218 -1.2511  0.9918 -0.4116
19758TIP3   OH280764   6.753   0.683  15.971 -0.5693 -0.7568  0.0048
19758TIP3    H180765   6.716   0.758  15.924  0.9796  0.1531  0.1806
19758TIP3    H280766   6.726   0.607  15.918 -1.3807 -0.0206 -0.6902
19759TIP3   OH280767   4.132   1.645   2.553 -0.3117 -1.1044 -0.3118
19759TIP3    H180768   4.202   1.710   2.551  0.0140 -1.4224  0.4589
19759TIP3    H280769   4.096   1.646   2.465 -0.0405 -0.1729 -0.4264
19760TIP3   OH280770   1.927   5.054   3.126  0.8271 -0.7026 -0.4051
19760TIP3    H180771   1.948   5.136   3.169  0.7871 -1.1787  0.5396
19760TIP3    H280772   1.862   5.013   3.183 -0.8807 -0.3699 -2.0158
19761TIP3   OH280773   0.437   6.156  12.530 -0.4980 -0.0797  0.0423
19761TIP3    H180774   0.359   6.151  12.475  0.0666 -0.6627 -0.7237
19761TIP3    H280775   0.428   6.083  12.592  0.1196 -1.0567 -0.9814
19762TIP3   OH280776   5.779   1.692   4.966  0.3803  0.7524  0.1181
19762TIP3    H180777   5.706   1.742   5.003  0.5971  0.9193  0.3284
19762TIP3    H280778   5.799   1.627   5.033 -0.0187  0.2655 -0.2336
19763TIP3   OH280779   0.596   5.523   5.381 -0.6553  0.1211  0.4241
19763TIP3    H180780   0.509   5.492   5.357 -0.5787 -0.5965  1.0654
19763TIP3    H280781   0.581   5.583   5.454 -0.6275  0.1666  0.3927
19764TIP3   OH280782   1.991   2.215   1.648 -0.4762 -0.1774 -0.0559
19764TIP3    H180783   1.934   2.280   1.606 -0.2894 -1.0409 -1.7289
19764TIP3    H280784   1.985   2.236   1.742 -2.2857  0.7379 -0.3143
19765TIP3   OH280785   4.259   5.597  16.711 -0.2878  0.0326  0.3164
19765TIP3    H180786   4.305   5.663  16.658  0.0223 -1.1085 -0.8974
19765TIP3    H280787   4.319   5.579  16.784 -0.2338  0.8391  0.4878
19766TIP3   OH280788   4.484   3.297  14.480  0.1790 -0.7180 -0.3777
19766TIP3    H180789   4.549   3.259  14.420 -1.5764 -0.4751 -2.5924
19766TIP3    H280790   4.426   3.224  14.502  0.8367 -0.8152  1.1406
19767TIP3   OH280791   5.788   6.234  12.153 -0.1551  0.4224 -0.3687
19767TIP3    H180792   5.870   6.186  12.146 -1.1110 -1.7025  1.6089
19767TIP3    H280793   5.749   6.230  12.066 -0.6173 -3.3976 -0.1488
19768TIP3   OH280794   2.017   6.173  12.802  0.3200 -0.2203 -0.4175
19768TIP3    H180795   1.979   6.187  12.715  0.9749 -1.5549 -0.9478
19768TIP3    H280796   2.098   6.225  12.801 -0.6016  1.3055  0.1240
19769TIP3   OH280797   3.070   6.000   1.653  0.0249  0.4531  0.1775
19769TIP3    H180798   3.111   6.084   1.673 -1.3898  0.9594  1.1266
19769TIP3    H280799   3.140   5.947   1.616  0.5694  2.6240 -2.1948
19770TIP3   OH280800   3.029   1.329  12.593  0.1589  0.1675 -0.1220
19770TIP3    H180801   2.974   1.357  12.520 -0.6004  0.5959  0.5998
19770TIP3    H280802   2.987   1.250  12.626  0.1600  0.3111  0.2253
19771TIP3   OH280803   0.551   1.820  14.364  0.0292  0.1155  0.2626
19771TIP3    H180804   0.646   1.813  14.358 -0.0962 -0.5888 -1.2076
19771TIP3    H280805   0.536   1.912  14.386  1.0276  0.3075  0.1976
19772TIP3   OH280806   3.579   3.214   1.695 -0.3057  0.3551  0.2229
19772TIP3    H180807   3.647   3.224   1.629 -0.8735 -0.9211 -0.5983
19772TIP3    H280808   3.625   3.186   1.773  0.1465 -0.3770 -0.2901
19773TIP3   OH280809   5.773   3.918   0.593 -0.2039  0.2516  0.5123
19773TIP3    H180810   5.721   3.859   0.538  0.6510  1.3557 -1.6197
19773TIP3    H280811   5.776   4.000   0.543  0.3236  1.4766  2.4296
19774TIP3   OH280812   3.694   6.069  12.274 -0.2891 -0.0874  0.0493
19774TIP3    H180813   3.628   6.139  12.273  0.1496  0.3267 -0.5010
19774TIP3    H280814   3.735   6.074  12.188  0.4631 -0.3466  0.3892
19775TIP3   OH280815   4.054   2.803  11.937  0.5972 -0.4952 -0.4530
19775TIP3    H180816   4.034   2.711  11.921 -1.4169 -0.1691 -0.0989
19775TIP3    H280817   4.014   2.822  12.022  1.2621  0.6358 -0.3701
19776TIP3   OH280818   2.307   2.071  13.069  0.1469  0.5730 -0.3504
19776TIP3    H180819   2.360   2.151  13.066  0.5470  0.4904  2.3803
19776TIP3    H280820   2.370   2.002  13.091 -0.2573 -0.4872 -2.3186
19777TIP3   OH280821   6.624   2.144  12.387  0.2621 -0.0962  0.2232
19777TIP3    H180822   6.532   2.145  12.361  0.4478 -0.1581 -0.4492
19777TIP3    H280823   6.629   2.077  12.456 -0.0335 -0.7264 -0.3586
19778TIP3   OH280824   5.201   0.980  11.985  0.1376 -0.2919 -0.6811
19778TIP3    H180825   5.230   0.958  12.074 -2.1472 -1.5824 -0.1756
19778TIP3    H280826   5.120   1.028  11.997 -0.2610 -0.5680 -2.0746
19779TIP3   OH280827   4.631   5.990   2.093  0.5006  0.1952  0.0326
19779TIP3    H180828   4.675   6.068   2.060  0.7640  0.1403  0.2529
19779TIP3    H280829   4.598   6.016   2.179 -0.6946  0.5229 -0.5050
19780TIP3   OH280830   5.016   0.307  14.845  0.8671  0.1155  0.0917
19780TIP3    H180831   5.033   0.237  14.782  1.0456  0.0515  0.2107
19780TIP3    H280832   5.047   0.386  14.802 -0.5470  0.3304 -0.5979
19781TIP3   OH280833   1.986   0.018   1.061 -0.1880 -1.0143 -0.0163
19781TIP3    H180834   1.938   0.024   1.143 -0.1111  0.1047 -0.0338
19781TIP3    H280835   2.010   0.108   1.041  0.8383 -1.4100 -0.6493
19782TIP3   OH280836   6.393   0.256  11.298  0.1974 -0.0252 -0.4175
19782TIP3    H180837   6.332   0.317  11.256 -1.1271 -0.7891  0.3279
19782TIP3    H280838   6.418   0.300  11.380 -0.0966 -0.1199 -0.2772
19783TIP3   OH280839   3.624   3.716  14.025 -0.0965  0.4992  0.1212
19783TIP3    H180840   3.662   3.736  13.940  0.7500 -0.1967  0.3202
19783TIP3    H280841   3.561   3.646  14.007 -1.1834  1.5329 -0.1813
19784TIP3   OH280842   0.673   0.908  16.941 -0.3691  0.2535  0.0580
19784TIP3    H180843   0.724   0.826  16.939  2.3608  1.8279 -0.1759
19784TIP3    H280844   0.653   0.926  16.849 -0.5885  0.0838  0.0698
19785TIP3   OH280845   5.172   0.909  16.466  0.1123  0.4536  0.5457
19785TIP3    H180846   5.179   0.928  16.559  1.0304  1.8342  0.2294
19785TIP3    H280847   5.150   0.994  16.426  3.1971  0.7523 -0.8375
19786TIP3   OH280848   3.935   4.154  11.605 -0.5188 -0.4348 -0.0280
19786TIP3    H180849   3.890   4.091  11.549  0.6182 -1.7701  0.4933
19786TIP3    H280850   3.953   4.106  11.686  1.1851  0.2516  0.0422
19787TIP3   OH280851   6.057   1.641  11.880  0.0186 -0.0056 -0.2242
19787TIP3    H180852   6.002   1.571  11.914 -2.7372  2.7860  1.6764
19787TIP3    H280853   6.112   1.666  11.954 -1.4593  1.9197  0.3235
19788TIP3   OH280854   6.569   6.814   0.144  0.3260 -0.2987  0.7179
19788TIP3    H180855   6.643   6.759   0.117 -0.0390 -2.3327  3.3609
19788TIP3    H280856   6.579   6.821   0.239 -1.7858  1.0783  0.8976
19789TIP3   OH280857   4.460   1.097   3.045 -0.0174  0.8323  0.2411
19789TIP3    H180858   4.521   1.107   2.972 -1.1139  0.0331 -0.8236
19789TIP3    H280859   4.376   1.077   3.004 -0.7627  0.7841  1.7117
19790TIP3   OH280860   3.466   5.890   4.842 -0.6733 -0.5310  0.0601
19790TIP3    H180861   3.450   5.984   4.845 -0.2828 -0.4675  0.1550
19790TIP3    H280862   3.518   5.876   4.763 -3.5746 -1.1073 -1.9180
19791TIP3   OH280863   2.880   2.394   1.749 -0.2579 -0.3348  0.8110
19791TIP3    H180864   2.931   2.360   1.675  1.0564  1.3127  0.9090
19791TIP3    H280865   2.935   2.376   1.825 -0.8949 -0.6037  1.2147
19792TIP3   OH280866   1.153   3.890   1.950 -0.3595  0.4388 -0.3416
19792TIP3    H180867   1.119   3.831   2.017 -0.6687  0.8619 -0.1183
19792TIP3    H280868   1.116   3.975   1.973 -0.3300  0.6188 -0.9573
19793TIP3   OH280869   4.751   4.118  16.387  0.0073 -0.1247  0.5121
19793TIP3    H180870   4.659   4.097  16.400  0.4663 -2.3507  0.5462
19793TIP3    H280871   4.755   4.158  16.300 -1.0869  1.0078  0.9473
19794TIP3   OH280872   5.836   5.061  16.226 -0.1606  0.1070 -0.1199
19794TIP3    H180873   5.841   5.046  16.321  0.0326  0.5252 -0.0632
19794TIP3    H280874   5.812   4.976  16.190  2.0047 -0.6622  0.0906
19795TIP3   OH280875   1.261   3.297  14.901 -0.5953 -0.5106  0.1354
19795TIP3    H180876   1.337   3.318  14.956 -0.2927 -2.5007  0.5518
19795TIP3    H280877   1.235   3.381  14.863  0.6034  0.5442  1.5225
19796TIP3   OH280878   3.710   0.552   3.162 -0.1428 -0.5612 -0.0907
19796TIP3    H180879   3.746   0.471   3.126 -0.2847 -0.7843  0.2667
19796TIP3    H280880   3.666   0.526   3.243 -0.6523 -0.2073 -0.2475
19797TIP3   OH280881   1.422   6.543   3.889  0.0596  0.4970  0.0242
19797TIP3    H180882   1.463   6.611   3.942  1.8317  0.4156 -1.1455
19797TIP3    H280883   1.491   6.478   3.876 -0.7336 -0.1286 -1.2409
19798TIP3   OH280884   6.734   6.433  16.031  0.0849 -0.5107  0.2374
19798TIP3    H180885   6.752   6.517  15.990  0.5363  0.1691  1.7712
19798TIP3    H280886   6.787   6.433  16.111 -1.0355 -1.6391  1.0133
19799TIP3   OH280887   4.209   4.725   3.964  0.0429 -0.2988 -0.2473
19799TIP3    H180888   4.184   4.707   3.873  0.4279  0.5602 -0.5398
19799TIP3    H280889   4.279   4.662   3.982 -0.8623 -1.2921 -0.1270
19800TIP3   OH280890   2.876   5.645   3.811  0.7190 -0.1320  0.4158
19800TIP3    H180891   2.836   5.615   3.729  0.6832  1.2977 -0.1231
19800TIP3    H280892   2.886   5.565   3.863 -2.5282 -0.6494  0.4669
19801TIP3   OH280893   3.037   0.538  16.941 -0.1194 -0.1955  0.5404
19801TIP3    H180894   3.060   0.448  16.918 -0.3094 -0.6863  2.1589
19801TIP3    H280895   2.951   0.531  16.982 -0.7826  0.9219 -0.5839
19802TIP3   OH280896   2.753   3.115  16.604 -0.1377 -0.0612  0.3777
19802TIP3    H180897   2.846   3.112  16.582 -0.4608 -1.4870 -0.9339
19802TIP3    H280898   2.730   3.025  16.623 -1.2303  0.3010  0.8294
19803TIP3   OH280899   3.127   6.606   5.638 -0.4550 -0.5386  0.3008
19803TIP3    H180900   3.179   6.543   5.588  0.8565  0.2849  0.5504
19803TIP3    H280901   3.089   6.555   5.709 -0.7923 -1.3598 -0.4608
19804TIP3   OH280902   2.400   3.636  12.349  0.0210 -0.1942  0.3073
19804TIP3    H180903   2.362   3.622  12.435  0.5707  0.5926  0.6954
19804TIP3    H280904   2.490   3.664  12.367 -0.1591  0.9701 -0.4709
19805TIP3   OH280905   0.595   3.485   3.876  0.2571 -0.2865 -0.5070
19805TIP3    H180906   0.533   3.556   3.863  1.0704  0.4511 -0.4354
19805TIP3    H280907   0.636   3.504   3.961  0.5262 -0.8017 -0.5178
19806TIP3   OH280908   5.193   5.392   1.826 -0.1172 -0.2025  0.2839
19806TIP3    H180909   5.171   5.310   1.870  1.3721 -1.5910 -1.3800
19806TIP3    H280910   5.161   5.380   1.737  0.3124  0.9541 -0.0396
19807TIP3   OH280911   3.136   1.668   2.382 -0.4374  0.0630  0.2348
19807TIP3    H180912   3.202   1.666   2.452 -0.5508  0.5181  0.3625
19807TIP3    H280913   3.171   1.610   2.314  0.4093  0.7770  0.0319
19808TIP3   OH280914   5.347   2.791   5.056  0.1985 -0.4649  0.5126
19808TIP3    H180915   5.255   2.815   5.055  0.8774  2.5145  1.1176
19808TIP3    H280916   5.376   2.809   5.146  1.8002  0.6651 -0.1853
19809TIP3   OH280917   1.937   4.506   2.032  0.0237  0.0000  0.1501
19809TIP3    H180918   1.885   4.547   1.963 -2.4869  0.2525  2.0750
19809TIP3    H280919   1.901   4.417   2.039  0.8176 -0.2979  0.6192
19810TIP3   OH280920   6.703   3.191   5.563  0.4815 -0.0597  0.0616
19810TIP3    H180921   6.643   3.120   5.540  0.4299 -0.0349  0.1212
19810TIP3    H280922   6.671   3.225   5.646  1.3633 -0.9397  0.7885
19811TIP3   OH280923   4.767   2.685  17.220  0.1762 -0.2670  0.2663
19811TIP3    H180924   4.738   2.646  17.302  0.7384  0.5996  0.8970
19811TIP3    H280925   4.775   2.612  17.160 -1.3490 -0.7774  0.6462
19812TIP3   OH280926   6.006   0.235  15.431  0.1890  0.3526 -0.6695
19812TIP3    H180927   6.054   0.152  15.429 -0.3207 -0.0744  1.7433
19812TIP3    H280928   6.023   0.270  15.519 -0.5876  2.2132 -1.2258
19813TIP3   OH280929   0.928   1.236  12.330 -0.1021  0.2081  0.0601
19813TIP3    H180930   0.901   1.145  12.343  1.2534 -0.8903 -3.7027
19813TIP3    H280931   1.023   1.235  12.347  0.4331  0.1920 -2.5588
19814TIP3   OH280932   2.633   1.775  13.630 -0.4192 -0.4252 -0.0937
19814TIP3    H180933   2.611   1.687  13.660 -0.7891  0.2001  1.6221
19814TIP3    H280934   2.702   1.804  13.690 -0.2083  0.3946 -0.7202
19815TIP3   OH280935   2.696   4.093   0.036 -0.1594 -0.0485  0.3005
19815TIP3    H180936   2.770   4.049  -0.005 -0.6314 -0.4312 -0.1530
19815TIP3    H280937   2.735   4.146   0.106  0.8499  1.7315 -1.4846
19816TIP3   OH280938   2.686   1.286  12.509  0.3390  0.3342  0.2331
19816TIP3    H180939   2.755   1.323  12.454  1.0697 -0.2818  0.7276
19816TIP3    H280940   2.699   1.326  12.595  0.9634 -0.8374  0.6969
19817TIP3   OH280941   3.375   0.371  14.395  0.8825  0.7190  0.2335
19817TIP3    H180942   3.397   0.332  14.310  1.0166 -0.4288  0.7720
19817TIP3    H280943   3.430   0.322  14.458 -0.4651  0.3695  1.1754
19818TIP3   OH280944   6.036   0.073  13.434 -0.2880  0.1032  0.8630
19818TIP3    H180945   6.099   0.073  13.362 -0.3154  0.0873  0.8384
19818TIP3    H280946   6.088   0.092  13.512  0.0509 -1.6785  1.1067
19819TIP3   OH280947   4.973   6.328   2.760 -0.0170  0.0246 -0.2240
19819TIP3    H180948   4.901   6.270   2.784 -0.5713  0.2021 -1.4211
19819TIP3    H280949   4.954   6.410   2.807 -1.0834  0.3596 -1.1930
19820TIP3   OH280950   2.531   1.221   3.822 -0.0371 -0.1706 -0.7490
19820TIP3    H180951   2.516   1.240   3.915  0.3331 -0.6743 -0.5867
19820TIP3    H280952   2.444   1.229   3.783 -0.0125  1.2088 -0.5761
19821TIP3   OH280953   2.445   0.329   2.017 -0.3653  0.0849 -0.2838
19821TIP3    H180954   2.436   0.262   1.949 -0.0746 -1.7197  1.3830
19821TIP3    H280955   2.365   0.382   2.008 -1.2162 -1.2326 -0.8806
19822TIP3   OH280956   5.472   0.712   1.000  0.1268  0.3163  0.2268
19822TIP3    H180957   5.409   0.726   1.071  0.4299 -1.3573  0.8539
19822TIP3    H280958   5.430   0.647   0.943  0.7413  0.1638 -0.0581
19823TIP3   OH280959   4.852   5.065   2.782 -0.0154  0.5328  0.3375
19823TIP3    H180960   4.771   5.101   2.744 -0.2332  0.2342  0.5108
19823TIP3    H280961   4.822   5.017   2.859  0.0729 -1.3243 -0.7309
19824TIP3   OH280962   6.562   2.100   5.254 -0.7527  0.2345 -0.2185
19824TIP3    H180963   6.635   2.061   5.206  0.2308 -0.5066  1.7804
19824TIP3    H280964   6.599   2.126   5.338 -2.3076  1.9159  0.0093
19825TIP3   OH280965   6.595   3.046  12.472  0.7768  0.4903  0.2965
19825TIP3    H180966   6.674   3.018  12.518  1.2438  2.3924  0.7283
19825TIP3    H280967   6.623   3.120  12.418 -0.3205 -0.0250 -1.0618
19826TIP3   OH280968   4.157   1.469   5.445  0.3025 -0.1744  0.8674
19826TIP3    H180969   4.158   1.448   5.351 -0.3918  0.3564  0.7335
19826TIP3    H280970   4.112   1.396   5.486  0.2425 -0.2107  0.7367
19827TIP3   OH280971   6.822   2.502   3.334  0.1400  0.1788  0.1786
19827TIP3    H180972   6.806   2.571   3.270 -0.4664  2.3587  2.5214
19827TIP3    H280973   6.904   2.462   3.307 -0.5834  0.2827 -2.4829
19828TIP3   OH280974   1.569   6.582   0.385 -0.2650  0.5455 -0.2606
19828TIP3    H180975   1.592   6.562   0.294  0.2457  1.8495 -0.4351
19828TIP3    H280976   1.595   6.673   0.397  1.2932 -0.1019  1.7290
19829TIP3   OH280977   5.659   4.685  13.602 -0.0200 -0.7135  0.1136
19829TIP3    H180978   5.587   4.680  13.665  0.6495  1.6854  1.1836
19829TIP3    H280979   5.717   4.613  13.626 -0.5685 -0.8050  1.2156
19830TIP3   OH280980   6.196   3.683  13.866 -0.1519  0.1636 -0.6304
19830TIP3    H180981   6.129   3.616  13.877  1.3584 -1.3936 -0.6094
19830TIP3    H280982   6.279   3.636  13.871  1.0506  2.2582  1.2889
19831TIP3   OH280983   5.457   3.406  16.510 -0.4681  0.4039  0.5574
19831TIP3    H180984   5.538   3.400  16.458 -1.2981  1.0540 -0.8842
19831TIP3    H280985   5.479   3.366  16.594  1.1403 -0.0812 -0.0583
19832TIP3   OH280986   2.533   2.070   2.291  0.0886  1.1947 -0.4601
19832TIP3    H180987   2.476   2.060   2.215  1.2075  0.0032 -1.2022
19832TIP3    H280988   2.545   1.980   2.324  2.8737  1.0964 -1.4321
19833TIP3   OH280989   6.042   1.756  14.971  0.4349 -0.3853 -0.0416
19833TIP3    H180990   5.987   1.756  14.893 -1.1134 -0.9361  1.0084
19833TIP3    H280991   6.006   1.826  15.026 -0.2078 -1.6858  1.2839
19834TIP3   OH280992   4.091   5.290  13.502  0.1555 -0.1384 -0.3440
19834TIP3    H180993   4.066   5.202  13.473  0.5175 -0.2415 -0.3421
19834TIP3    H280994   4.020   5.346  13.469 -1.8318 -0.8032  2.3822
19835TIP3   OH280995   4.258   5.861  14.159 -0.5882 -0.1630 -0.0304
19835TIP3    H180996   4.345   5.860  14.118 -0.4986 -0.8260  0.1642
19835TIP3    H280997   4.269   5.806  14.237 -0.6297  1.4060  1.1295
19836TIP3   OH280998   0.765   5.467   0.230 -0.0924  0.4942 -0.7366
19836TIP3    H180999   0.854   5.477   0.198 -0.5122  0.0447 -2.1098
19836TIP3    H281000   0.737   5.556   0.253  1.0737  0.4980  0.8069
19837TIP3   OH281001   0.759   1.441   0.772  0.4509  0.1122 -0.3546
19837TIP3    H181002   0.808   1.387   0.710 -0.9830  1.5941 -2.9232
19837TIP3    H281003   0.820   1.512   0.795  1.4149 -1.0944  0.9847
19838TIP3   OH281004   3.524   1.001  16.368 -0.1798  0.4873 -0.5167
19838TIP3    H181005   3.569   0.980  16.450  0.5615  1.3121 -0.7068
19838TIP3    H281006   3.437   1.029  16.396 -1.4545 -3.1315 -0.2524
19839TIP3   OH281007   5.257   0.147   6.079 -0.4768  0.3102 -0.2694
19839TIP3    H181008   5.267   0.114   6.169 -0.8123  0.4529 -0.1792
19839TIP3    H281009   5.314   0.090   6.027 -1.3689 -0.6945 -0.1784
19840TIP3   OH281010   3.853   3.242  13.219  0.4990 -0.5351 -0.5136
19840TIP3    H181011   3.785   3.265  13.155  0.1286  0.3225  0.1602
19840TIP3    H281012   3.933   3.278  13.183  0.3710 -0.4403 -0.7051
19841TIP3   OH281013   4.509   3.579  14.277 -0.7182 -0.6695  0.0572
19841TIP3    H181014   4.604   3.586  14.288 -0.8847  0.8998  0.7870
19841TIP3    H281015   4.483   3.510  14.337 -0.2852  0.4275  1.5640
19842TIP3   OH281016   4.718   1.389  12.929  0.0385  0.0855  0.3051
19842TIP3    H181017   4.730   1.377  13.023 -1.2886 -1.1315  0.3556
19842TIP3    H281018   4.742   1.480  12.913  0.1640  0.3465  1.8447
19843TIP3   OH281019   2.049   0.018   2.851  0.6571 -0.1762 -0.0580
19843TIP3    H181020   2.128   0.052   2.893  2.1802 -1.3045 -1.8194
19843TIP3    H281021   2.010  -0.040   2.916  1.1383  0.5740  0.9298
19844TIP3   OH281022   0.287   4.874   5.760 -0.3080  0.1576  0.0505
19844TIP3    H181023   0.351   4.887   5.830  0.1916 -1.1872 -0.1235
19844TIP3    H281024   0.273   4.779   5.759 -1.3015  0.3049 -0.8053
19845TIP3   OH281025   3.720   0.531   0.802 -0.5753  0.2529 -0.2444
19845TIP3    H181026   3.736   0.438   0.819 -1.3722  0.4012  1.4302
19845TIP3    H281027   3.729   0.539   0.707  1.8378 -1.0664 -0.2060
19846TIP3   OH281028   6.247   4.945  15.954 -0.1096  0.3586  0.4110
19846TIP3    H181029   6.194   4.865  15.948 -0.0598  0.2651  1.1760
19846TIP3    H281030   6.210   5.003  15.888 -0.6154 -0.0279  0.3504
19847TIP3   OH281031   1.869   2.514  11.475  0.0143  0.0320 -0.4505
19847TIP3    H181032   1.800   2.480  11.531  0.0184 -0.3318 -0.6625
19847TIP3    H281033   1.935   2.549  11.536  0.1352 -0.5833 -0.2235
19848TIP3   OH281034   1.189   5.924  12.577  0.6593 -0.1703  0.5032
19848TIP3    H181035   1.124   5.994  12.574  0.3813 -0.4520 -1.8460
19848TIP3    H281036   1.267   5.962  12.537  1.7049 -0.1486  2.4115
19849TIP3   OH281037   3.636   0.635   5.658  0.0059  0.1436 -0.1372
19849TIP3    H181038   3.588   0.618   5.578  1.7575  0.8965 -1.4027
19849TIP3    H281039   3.606   0.721   5.687 -1.4842 -0.6270  0.7032
19850TIP3   OH281040   5.474   4.183   4.196 -0.2160  0.8095 -0.2939
19850TIP3    H181041   5.425   4.139   4.265  1.8187  0.5349  1.0515
19850TIP3    H281042   5.445   4.275   4.200  0.8319  1.1019  1.8960
19851TIP3   OH281043   3.187   1.949   0.579  0.1142 -0.6326 -0.0955
19851TIP3    H181044   3.105   1.902   0.565 -0.1645 -0.1023 -0.2635
19851TIP3    H281045   3.226   1.954   0.491  0.5532 -1.2774  0.0491
19852TIP3   OH281046   2.460   2.716   1.034 -0.6209 -0.0722 -0.6343
19852TIP3    H181047   2.463   2.698   0.940  0.7393 -0.2918 -0.5719
19852TIP3    H281048   2.482   2.631   1.074  1.0884  0.5275 -0.2065
19853TIP3   OH281049   5.748   4.199   0.462 -0.0767 -0.8644 -0.0232
19853TIP3    H181050   5.672   4.252   0.484  1.1356 -0.3735  3.5211
19853TIP3    H281051   5.749   4.198   0.366 -2.7628  1.6301 -0.2166
19854TIP3   OH281052   0.740   4.268   3.006 -0.2200  0.9767 -0.0584
19854TIP3    H181053   0.820   4.268   2.952 -1.4184  1.8148 -1.9058
19854TIP3    H281054   0.733   4.357   3.039 -0.9278  1.1941 -0.7664
19855TIP3   OH281055   2.524   4.412  15.689 -0.3067 -0.6189  0.3736
19855TIP3    H181056   2.462   4.402  15.762 -0.6526  0.4719  0.2482
19855TIP3    H281057   2.605   4.443  15.730 -0.4257 -0.2418  0.3257
19856TIP3   OH281058   2.002   3.197   3.488  0.2024 -0.0486 -0.2923
19856TIP3    H181059   1.971   3.277   3.446  0.4121 -0.4539 -1.2509
19856TIP3    H281060   1.988   3.128   3.423 -1.7882 -1.1807  1.2045
19857TIP3   OH281061   2.788   4.550  13.951 -0.2994 -0.0528  0.2492
19857TIP3    H181062   2.759   4.640  13.966  1.4433  0.4617  0.7387
19857TIP3    H281063   2.869   4.559  13.902 -0.7126 -1.4257 -0.7415
19858TIP3   OH281064   3.021   3.050   1.045  0.5614 -0.1716 -0.0192
19858TIP3    H181065   2.927   3.046   1.058  0.4337  0.9713 -0.4993
19858TIP3    H281066   3.056   3.079   1.130  0.3437  0.7470 -0.2339
19859TIP3   OH281067   1.804   0.368   2.888  0.6706  0.6073  0.3191
19859TIP3    H181068   1.897   0.354   2.908  0.5376 -2.6921 -0.7552
19859TIP3    H281069   1.765   0.281   2.892 -1.9546  1.5653 -1.3806
19860TIP3   OH281070   0.363   4.596  14.883 -0.1112  0.6631 -0.1513
19860TIP3    H181071   0.422   4.585  14.957  0.0718 -1.2255 -0.5414
19860TIP3    H281072   0.418   4.628  14.812  0.1340  0.4275 -0.0673
19861TIP3   OH281073   2.745   2.472   4.392  0.0072  0.6469 -0.6915
19861TIP3    H181074   2.720   2.398   4.336 -0.0157 -0.7450  1.0857
19861TIP3    H281075   2.836   2.491   4.367  1.1612 -2.1564  0.9948
19862TIP3   OH281076   2.655   1.296   2.577  0.2761 -0.2516 -0.0399
19862TIP3    H181077   2.694   1.231   2.636  2.5251  1.2455  0.2534
19862TIP3    H281078   2.730   1.338   2.535 -1.1708  1.0400 -1.4605
19863TIP3   OH281079   5.280   6.536  11.998 -0.3692  0.0266  1.7909
19863TIP3    H181080   5.185   6.542  11.990 -0.2020 -0.1697 -1.9465
19863TIP3    H281081   5.309   6.627  12.003 -0.6635  0.3327 -0.7394
19864TIP3   OH281082   5.102   3.762  11.683  0.1353  0.2456 -0.3889
19864TIP3    H181083   5.147   3.700  11.740 -1.9406 -1.2625 -0.2900
19864TIP3    H281084   5.058   3.823  11.742 -0.5722 -0.2375 -0.4187
19865TIP3   OH281085   5.910   0.433   4.872  0.6363  0.4321 -0.0270
19865TIP3    H181086   5.817   0.423   4.850  0.3125 -0.3120  1.5184
19865TIP3    H281087   5.936   0.346   4.902  1.8966  0.5933 -0.6046
19866TIP3   OH281088   0.321   2.101   1.636 -0.3125 -0.6198  0.2827
19866TIP3    H181089   0.400   2.134   1.679 -0.1112 -0.3839 -0.2672
19866TIP3    H281090   0.292   2.029   1.692  0.2371 -0.6471  0.5377
19867TIP3   OH281091   5.580   5.859  15.795 -0.4206  0.2884  0.3754
19867TIP3    H181092   5.538   5.812  15.723 -1.1375 -0.2345  1.1244
19867TIP3    H281093   5.573   5.800  15.870  1.8767  0.0660  0.4967
19868TIP3   OH281094   1.013   3.471  16.682  0.3653  0.6304 -0.0515
19868TIP3    H181095   1.089   3.483  16.738 -0.5647  0.5055  1.2923
19868TIP3    H281096   1.020   3.539  16.615  3.0025 -0.9760 -1.5781
19869TIP3   OH281097   0.392   1.639  15.115 -0.3081 -0.8598 -0.5089
19869TIP3    H181098   0.370   1.603  15.029  1.9268 -1.0229 -1.0715
19869TIP3    H281099   0.368   1.731  15.110 -2.6642 -1.3954 -0.3241
19870TIP3   OH281100   1.292   3.504  16.126 -0.4958 -0.4164 -0.2656
19870TIP3    H181101   1.230   3.441  16.091 -0.0054 -0.3018 -1.3775
19870TIP3    H281102   1.372   3.490  16.075  0.3178 -0.3673  0.9339
19871TIP3   OH281103   4.605   2.270  11.103  0.6121 -0.0147 -0.5579
19871TIP3    H181104   4.565   2.189  11.136 -1.1019  2.0772  3.0469
19871TIP3    H281105   4.542   2.303  11.038 -0.1457 -0.1547  0.0890
19872TIP3   OH281106   1.839   5.447  16.823 -0.0427 -0.4438  0.6486
19872TIP3    H181107   1.839   5.535  16.784  0.4395 -0.1407  1.3190
19872TIP3    H281108   1.747   5.419  16.818  0.1937 -1.0481 -2.0590
19873TIP3   OH281109   0.186   0.219   4.469 -0.0188  0.1870  0.1041
19873TIP3    H181110   0.225   0.165   4.400  0.1739  1.4673 -0.8295
19873TIP3    H281111   0.208   0.173   4.550  1.2381 -0.4620 -0.5665
19874TIP3   OH281112   3.212   3.695   1.813 -0.4424  0.2051 -0.3227
19874TIP3    H181113   3.122   3.694   1.844 -0.4382  2.5127 -0.1211
19874TIP3    H281114   3.207   3.658   1.725 -1.7737  1.3239 -0.7417
19875TIP3   OH281115   3.750   2.566  14.142 -0.0761  0.0982  0.4963
19875TIP3    H181116   3.811   2.631  14.106 -0.4106 -0.5674 -1.3859
19875TIP3    H281117   3.773   2.562  14.235  1.7242  0.9755  0.1529
19876TIP3   OH281118   4.331   1.540   1.275  0.2797  0.1940  0.2148
19876TIP3    H181119   4.405   1.594   1.247 -0.6650  0.0885 -2.8463
19876TIP3    H281120   4.301   1.498   1.195 -1.6116 -1.6659  1.7961
19877TIP3   OH281121   3.780   5.614  12.007  0.2826  0.8513  0.4557
19877TIP3    H181122   3.796   5.533  12.056 -1.1048  0.2390 -0.0310
19877TIP3    H281123   3.866   5.646  11.983  0.8926  0.0116  1.4631
19878TIP3   OH281124   1.941   3.581  14.631 -0.1193 -0.3621 -0.0115
19878TIP3    H181125   1.984   3.580  14.717 -0.1176 -2.0248  0.0080
19878TIP3    H281126   2.013   3.565  14.569 -0.3621 -0.8823 -0.1660
19879TIP3   OH281127   5.064   0.850  15.123  0.3262 -0.2058  0.2871
19879TIP3    H181128   5.146   0.856  15.074  0.9960 -0.4265  1.3417
19879TIP3    H281129   5.031   0.762  15.106  0.5947 -0.3069  0.3001
19880TIP3   OH281130   5.808   6.542  14.754 -0.4326  0.2186 -0.5486
19880TIP3    H181131   5.885   6.492  14.781 -1.4396 -0.6562  0.8813
19880TIP3    H281132   5.734   6.497  14.795 -1.5163  2.2037 -0.1364
19881TIP3   OH281133   6.586   5.420  16.423  0.1449  0.1240  0.2538
19881TIP3    H181134   6.528   5.443  16.350  0.1002 -0.6943  0.0299
19881TIP3    H281135   6.599   5.503  16.469 -0.5054  0.4859 -0.1911
19882TIP3   OH281136   4.944   0.301  11.511  0.1347 -0.2734  0.0823
19882TIP3    H181137   4.926   0.327  11.601 -0.6832  0.5892 -0.3127
19882TIP3    H281138   5.016   0.238  11.518 -0.2341 -0.5763  1.3678
19883TIP3   OH281139   4.794   1.960  16.428 -0.3815 -0.2097  0.1017
19883TIP3    H181140   4.705   1.994  16.419 -0.1135  0.2352 -1.0196
19883TIP3    H281141   4.816   1.975  16.520 -1.4326 -0.2453  0.3656
19884TIP3   OH281142   0.694   3.158   5.503 -0.2746 -0.1815  0.4696
19884TIP3    H181143   0.623   3.201   5.455  0.3816  0.2842 -0.1151
19884TIP3    H281144   0.652   3.119   5.579 -0.8704  1.7297  1.1727
19885TIP3   OH281145   0.383   4.140  14.021  0.4401 -0.2076  0.2216
19885TIP3    H181146   0.372   4.110  13.930  1.1083  1.3705 -0.4210
19885TIP3    H281147   0.438   4.074  14.062  0.7323 -0.5801 -0.7395
19886TIP3   OH281148   1.574   3.556   3.954 -0.4889 -0.6228 -0.0337
19886TIP3    H181149   1.622   3.631   3.920  0.8950 -0.7970  1.4102
19886TIP3    H281150   1.482   3.576   3.935 -0.1222  1.2292 -0.0573
19887TIP3   OH281151   2.508   3.961   3.843  0.0624 -0.3082  0.0306
19887TIP3    H181152   2.548   4.046   3.864  1.1592 -1.0989  1.3538
19887TIP3    H281153   2.427   3.961   3.894 -1.5141  1.1177 -2.3110
19888TIP3   OH281154   5.450   3.088  14.059  0.0335  0.0039  0.1813
19888TIP3    H181155   5.537   3.096  14.020 -0.3318 -0.3268 -0.7419
19888TIP3    H281156   5.394   3.064  13.985 -0.3434 -2.7663  1.2415
19889TIP3   OH281157   3.023   3.734   2.172 -1.1295 -0.1854 -0.7371
19889TIP3    H181158   2.961   3.668   2.141 -0.3402 -1.4418  0.2498
19889TIP3    H281159   2.983   3.769   2.251  0.7997 -3.4949  1.9776
19890TIP3   OH281160   3.270   1.440  15.015 -0.0831  0.0174  0.5489
19890TIP3    H181161   3.339   1.502  14.993  0.3043 -0.4107  0.5512
19890TIP3    H281162   3.201   1.494  15.055 -0.5260  0.7102 -1.0715
19891TIP3   OH281163   1.363   2.827   4.562 -0.7921 -0.1405 -0.0296
19891TIP3    H181164   1.405   2.802   4.480 -0.5005 -0.3247  0.1727
19891TIP3    H281165   1.318   2.748   4.591  1.0261 -0.7968  1.1643
19892TIP3   OH281166   5.122   0.542  15.296 -0.2886 -0.0512  0.4596
19892TIP3    H181167   5.049   0.501  15.250  0.8068  0.4631 -1.9345
19892TIP3    H281168   5.173   0.469  15.331  0.6830 -0.8243 -2.2327
19893TIP3   OH281169   6.685   1.730  17.118 -0.1820  0.0376  0.1807
19893TIP3    H181170   6.722   1.787  17.051 -0.0146 -0.8628 -0.5066
19893TIP3    H281171   6.672   1.788  17.194 -0.4438  1.0838 -0.6375
19894TIP3   OH281172   2.859   6.467   1.803 -0.1627 -0.0206 -0.0960
19894TIP3    H181173   2.799   6.542   1.810 -1.5510 -1.1564  0.6586
19894TIP3    H281174   2.906   6.482   1.721 -2.5467  0.2147 -1.5198
19895TIP3   OH281175   0.113   6.360  14.568 -0.2157  0.0401  0.0113
19895TIP3    H181176   0.066   6.397  14.494 -2.6285 -0.4796  1.1836
19895TIP3    H281177   0.138   6.272  14.538 -1.0852 -0.1329 -0.2419
19896TIP3   OH281178   6.118   4.676  17.047 -0.0104  0.1398 -0.2037
19896TIP3    H181179   6.108   4.596  16.994  0.4481  0.0452 -0.1570
19896TIP3    H281180   6.092   4.747  16.989  0.1793  0.0063 -0.4561
19897TIP3   OH281181   6.619   0.533  10.849 -0.0300  0.1798  0.1808
19897TIP3    H181182   6.560   0.593  10.802  1.0094  2.7436  1.8980
19897TIP3    H281183   6.680   0.502  10.783 -0.8646  0.7111 -0.8669
19898TIP3   OH281184   0.913   2.219   5.605 -0.5046  0.0234  0.5468
19898TIP3    H181185   0.960   2.301   5.589  0.7338 -0.3870  1.7986
19898TIP3    H281186   0.873   2.232   5.691 -0.4969 -0.5966  0.6458
19899TIP3   OH281187   6.004   5.358  17.159 -0.5330  0.3785  0.4389
19899TIP3    H181188   5.981   5.404  17.078 -1.0124 -0.6026  0.0030
19899TIP3    H281189   5.921   5.352  17.207 -0.8733 -1.5122 -0.2877
19900TIP3   OH281190   0.769   5.448   0.662 -0.1463 -0.6027 -0.0971
19900TIP3    H181191   0.759   5.538   0.633 -0.3122 -0.6677 -0.2459
19900TIP3    H281192   0.859   5.442   0.694 -0.5858  0.0057  1.3005
19901TIP3   OH281193   4.159   5.026   0.874 -0.2409  0.0688  0.0371
19901TIP3    H181194   4.073   5.063   0.857  0.1998  0.1058 -2.4335
19901TIP3    H281195   4.220   5.098   0.857  0.3573 -0.2684  0.6741
19902TIP3   OH281196   3.692   5.799  13.416  0.3223 -0.6198 -0.3033
19902TIP3    H181197   3.740   5.733  13.466  0.2293  0.2225  0.9290
19902TIP3    H281198   3.725   5.883  13.448 -0.4062 -0.0478 -0.9950
19903TIP3   OH281199   0.844   2.888  11.777 -0.5030  0.0561  0.2764
19903TIP3    H181200   0.797   2.971  11.786 -0.6664  0.1930 -1.5524
19903TIP3    H281201   0.778   2.821  11.796 -1.8125  0.2101 -3.0016
19904TIP3   OH281202   2.588   1.277  13.440 -0.4077  0.3929  0.1911
19904TIP3    H181203   2.680   1.304  13.443 -0.4062  0.3626  0.4780
19904TIP3    H281204   2.541   1.353  13.474 -0.3451 -0.2228  1.7234
19905TIP3   OH281205   3.552   3.090   4.815 -0.5555  0.2126  0.1832
19905TIP3    H181206   3.515   3.087   4.904 -0.3563  0.1958  0.2650
19905TIP3    H281207   3.526   3.007   4.776 -1.2075  0.4967  0.0010
19906TIP3   OH281208   3.743   0.110  12.258 -0.0898  0.1088  0.1623
19906TIP3    H181209   3.838   0.113  12.259 -0.1042  2.2981  0.2796
19906TIP3    H281210   3.716   0.165  12.332 -1.4745 -1.8919  1.2241
19907TIP3   OH281211   0.509   5.729   1.594  0.5946  0.0334  0.1436
19907TIP3    H181212   0.433   5.759   1.643  0.1877 -1.7952  0.7192
19907TIP3    H281213   0.556   5.671   1.654  1.5046 -0.2204 -0.7734
19908TIP3   OH281214   2.183   2.978   0.197  0.6163  0.2817  0.2488
19908TIP3    H181215   2.141   2.958   0.113  1.5049  0.2400 -0.2022
19908TIP3    H281216   2.168   3.071   0.210  1.7309  0.6191 -0.7042
19909TIP3   OH281217   4.342   3.125  16.347  0.0225 -0.1625  0.3441
19909TIP3    H181218   4.429   3.157  16.371 -0.2500  0.4545  0.5414
19909TIP3    H281219   4.316   3.069  16.420  0.3840 -0.6092  0.1348
19910TIP3   OH281220   4.412   2.987  13.298  0.1058 -0.4028  0.1800
19910TIP3    H181221   4.388   2.922  13.364 -1.0958 -0.1889 -0.0244
19910TIP3    H281222   4.437   3.064  13.348  0.6757 -0.7242  0.4029
19911TIP3   OH281223   2.329   5.775   0.402  0.2891 -0.0020  0.2935
19911TIP3    H181224   2.247   5.735   0.375  0.9827 -1.4832  0.2935
19911TIP3    H281225   2.362   5.819   0.323  0.2106 -0.6445 -0.0992
19912TIP3   OH281226   0.562   4.333  15.043  0.0761 -0.3312  0.3421
19912TIP3    H181227   0.532   4.405  15.098  0.5012 -0.1167  0.3015
19912TIP3    H281228   0.657   4.328  15.059  0.0718 -0.7937  0.2435
19913TIP3   OH281229   2.942   4.604  15.511  0.1768 -0.3486 -0.8401
19913TIP3    H181230   2.879   4.672  15.488 -0.6905 -1.1055 -0.7254
19913TIP3    H281231   2.897   4.522  15.494  0.6638 -0.9236  0.4906
19914TIP3   OH281232   2.285   2.586   5.680 -0.0354 -1.0177 -0.5048
19914TIP3    H181233   2.204   2.537   5.690 -0.6109 -0.1793 -0.8831
19914TIP3    H281234   2.283   2.618   5.590  0.5063 -0.6205 -0.3859
19915TIP3   OH281235   1.615   6.172  11.566  0.2008 -0.2840  0.2882
19915TIP3    H181236   1.659   6.178  11.482 -0.5115  1.5676  0.0052
19915TIP3    H281237   1.666   6.107  11.615  0.0705 -2.1286 -1.8472
19916TIP3   OH281238   5.457   6.163   1.770 -0.0943  0.3917  0.0740
19916TIP3    H181239   5.381   6.220   1.784  0.3877  0.7047  1.5716
19916TIP3    H281240   5.422   6.074   1.780 -0.9017  0.3303 -2.5193
19917TIP3   OH281241   1.986   6.794   6.070 -0.6085 -0.3347  0.3838
19917TIP3    H181242   1.982   6.793   6.165  0.3577  1.1986  0.4716
19917TIP3    H281243   2.050   6.726   6.048 -0.1090 -0.0427  0.9012
19918TIP3   OH281244   1.878   3.734   1.710 -0.2439 -0.2927 -0.1721
19918TIP3    H181245   1.803   3.721   1.768  0.1542 -1.0661  0.1900
19918TIP3    H281246   1.953   3.744   1.769 -0.0994  0.8529 -0.5218
19919TIP3   OH281247   2.955   5.730  16.866  0.0263  0.5141  0.2443
19919TIP3    H181248   2.897   5.739  16.790  0.3976 -2.6924 -0.5371
19919TIP3    H281249   2.987   5.819  16.881 -4.1248  2.2686  0.0335
19920TIP3   OH281250   1.068   2.712  15.086  0.0274  0.1446 -0.3377
19920TIP3    H181251   1.058   2.807  15.084  0.8376  0.2960  1.2580
19920TIP3    H281252   0.989   2.679  15.043  0.0753  1.5305 -1.5767
19921TIP3   OH281253   2.273   1.424   4.969 -0.5171 -0.3724  0.2950
19921TIP3    H181254   2.365   1.451   4.963 -0.8989  0.6332 -2.6087
19921TIP3    H281255   2.229   1.473   4.899 -3.1560 -1.3100  1.1881
19922TIP3   OH281256   2.003   1.524   2.675  0.5380  0.5088 -0.2427
19922TIP3    H181257   2.065   1.500   2.607  0.5527  0.5085 -0.2293
19922TIP3    H281258   2.046   1.499   2.757 -0.4177 -1.6590 -0.3179
19923TIP3   OH281259   0.255   5.215  12.333  0.5519 -0.5712  0.1368
19923TIP3    H181260   0.241   5.259  12.249  0.1312  0.5691  0.7873
19923TIP3    H281261   0.203   5.135  12.326 -0.5278  0.1405 -0.2132
19924TIP3   OH281262   0.092   1.225  12.727  0.2239  0.0565  0.2684
19924TIP3    H181263   0.132   1.308  12.703 -1.3997  0.8684  0.2402
19924TIP3    H281264   0.164   1.172  12.760  0.8086  2.9071  4.3282
19925TIP3   OH281265   6.179   2.706   1.716 -0.1748 -0.3181  0.6310
19925TIP3    H181266   6.176   2.612   1.696 -0.3204 -0.2512  0.3258
19925TIP3    H281267   6.214   2.746   1.637 -0.3537 -0.0902  0.6664
19926TIP3   OH281268   2.595   1.062  13.076  0.3660  0.2242 -0.0019
19926TIP3    H181269   2.511   1.036  13.039  1.1174 -2.6719  0.1324
19926TIP3    H281270   2.579   1.066  13.171  0.2142  0.4888 -0.0352
19927TIP3   OH281271   3.424   3.145   4.215 -0.2879  0.0718  0.1374
19927TIP3    H181272   3.395   3.138   4.306  1.3914 -0.1162  0.6876
19927TIP3    H281273   3.366   3.212   4.177 -0.5533  0.6816  1.5421
19928TIP3   OH281274   6.775   6.179  13.583 -0.2562  0.1439  0.1890
19928TIP3    H181275   6.826   6.206  13.659 -0.2236  1.1086 -0.1614
19928TIP3    H281276   6.714   6.114  13.617  0.9966 -0.8175  0.6736
19929TIP3   OH281277   1.451   3.398   4.209 -0.2941 -0.1459  0.4693
19929TIP3    H181278   1.390   3.325   4.196 -0.0613 -0.7849  2.6098
19929TIP3    H281279   1.501   3.374   4.286  0.3949  1.8938  0.7153
19930TIP3   OH281280   0.765   0.505  17.209  0.3341 -0.2451  0.0713
19930TIP3    H181281   0.700   0.470  17.149  0.3823 -0.2550  0.0251
19930TIP3    H281282   0.714   0.545  17.279  0.2793 -1.6664  0.8654
19931TIP3   OH281283   6.532   3.929   4.291  0.2466 -0.2097  0.6161
19931TIP3    H181284   6.561   3.841   4.268  0.8721 -0.1891  1.3070
19931TIP3    H281285   6.459   3.916   4.352 -0.0423 -0.2431  0.2715
19932TIP3   OH281286   3.390   3.081   0.570 -0.2831 -0.0573  0.3461
19932TIP3    H181287   3.315   3.058   0.515  1.3208 -1.1233 -1.5190
19932TIP3    H281288   3.384   3.176   0.580 -1.8834 -0.1240  0.2612
19933TIP3   OH281289   1.495   4.243   2.808  0.0764 -0.4039  0.3368
19933TIP3    H181290   1.442   4.310   2.764  2.4521  0.0662 -2.0184
19933TIP3    H281291   1.570   4.291   2.843  1.5642 -1.6758 -0.9454
19934TIP3   OH281292   6.598   1.362   3.501  0.4644  0.2077  0.0503
19934TIP3    H181293   6.665   1.326   3.443 -0.2479 -3.7127  1.3542
19934TIP3    H281294   6.531   1.396   3.441  1.6610  0.2250 -1.3297
19935TIP3   OH281295   5.080   6.632  14.629  0.3615  0.0479  0.5859
19935TIP3    H181296   5.058   6.662  14.717  0.5893  2.4047 -0.1026
19935TIP3    H281297   5.175   6.617  14.632  0.3831  0.2104  0.7055
19936TIP3   OH281298   5.474   5.691  15.997  0.6551  0.4759 -0.3107
19936TIP3    H181299   5.416   5.614  15.992 -0.5099  1.3481 -0.7021
19936TIP3    H281300   5.430   5.749  16.060  1.1578  1.1212 -0.5506
19937TIP3   OH281301   4.003   0.135   2.556 -0.0262  0.7157  0.0244
19937TIP3    H181302   4.019   0.060   2.499  1.0911  1.4644 -0.7039
19937TIP3    H281303   3.912   0.159   2.541 -0.9919 -1.5867  1.6546
19938TIP3   OH281304   3.603   2.556  14.378  0.2831  0.0023  0.0976
19938TIP3    H181305   3.569   2.467  14.372  0.1710  0.0626 -0.2438
19938TIP3    H281306   3.602   2.577  14.471  2.0099 -0.9966  0.3867
19939TIP3   OH281307   5.956   6.015   4.447  0.2055  0.8738  0.8692
19939TIP3    H181308   5.979   5.936   4.496  2.5214  1.5567  1.0019
19939TIP3    H281309   5.932   6.079   4.514 -2.1681  0.2264  0.7406
19940TIP3   OH281310   0.928   5.209  12.354  0.2825 -0.3676  0.7412
19940TIP3    H181311   1.013   5.207  12.399  0.3308 -0.1873  0.6576
19940TIP3    H281312   0.881   5.281  12.396  0.0127 -0.7264  1.0695
19941TIP3   OH281313   5.713   0.457  12.357  0.1908 -0.3639 -0.0088
19941TIP3    H181314   5.723   0.451  12.452 -0.0626 -0.4911  0.0135
19941TIP3    H281315   5.735   0.547  12.336  0.0302 -0.2730  0.2019
19942TIP3   OH281316   2.045   1.669  12.401 -0.1876 -0.4265  0.3575
19942TIP3    H181317   2.114   1.622  12.446  0.3047 -1.1033 -1.0349
19942TIP3    H281318   1.966   1.650  12.451  0.2359 -1.6072  0.6145
19943TIP3   OH281319   5.051   4.033   1.245  0.1822  0.5409  0.2379
19943TIP3    H181320   5.124   4.024   1.184 -0.1201  0.2523 -0.0857
19943TIP3    H281321   5.030   3.944   1.272  1.9816  0.7757  2.7939
19944TIP3   OH281322   5.486   5.544  14.894 -0.3323 -0.6969 -0.2399
19944TIP3    H181323   5.556   5.609  14.885 -0.5798 -0.3969 -0.0327
19944TIP3    H281324   5.527   5.472  14.941  0.6815 -1.8436 -2.7115
19945TIP3   OH281325   4.597   0.708   5.738  0.0600 -0.3448 -0.6143
19945TIP3    H181326   4.604   0.715   5.833 -0.9694  0.0225 -0.5458
19945TIP3    H281327   4.598   0.799   5.707  3.0354 -0.4809 -1.2236
19946TIP3   OH281328   0.269   6.079  15.317 -0.5484 -0.1184 -0.2400
19946TIP3    H181329   0.270   6.164  15.273 -1.5135  0.0395  0.0267
19946TIP3    H281330   0.353   6.039  15.294 -0.9150  0.0454 -2.0704
19947TIP3   OH281331   6.543   0.490  16.747 -0.9332  0.1698  0.2478
19947TIP3    H181332   6.614   0.526  16.800 -1.1983 -0.6176  1.1675
19947TIP3    H281333   6.558   0.395  16.749 -2.2590 -0.0495  0.8494
19948TIP3   OH281334   5.540   5.444   4.259 -0.6616  0.8150  0.0954
19948TIP3    H181335   5.622   5.493   4.265  0.7755 -1.5617  2.2468
19948TIP3    H281336   5.550   5.389   4.182 -1.0954  1.8703 -0.7354
19949TIP3   OH281337   1.089   5.181  13.937 -0.2117  0.1465 -0.7991
19949TIP3    H181338   1.035   5.195  14.015  0.2347  0.9484 -0.6247
19949TIP3    H281339   1.177   5.164  13.971  0.1512  1.2941 -1.1309
19950TIP3   OH281340   2.641   5.683  14.175  0.9194  0.2339  0.5177
19950TIP3    H181341   2.703   5.609  14.178  1.9118  1.0107 -0.2716
19950TIP3    H281342   2.607   5.683  14.086  1.3552  1.0646  0.3409
19951TIP3   OH281343   1.928   4.504  16.342 -0.0040 -0.1304  0.2132
19951TIP3    H181344   1.902   4.415  16.366 -2.2235  0.5396  0.4544
19951TIP3    H281345   1.954   4.545  16.424 -1.0119  0.0654  0.4453
19952TIP3   OH281346   5.075   5.915  16.622  1.1421  0.0304  0.6320
19952TIP3    H181347   4.997   5.860  16.612 -0.3951  2.2993 -1.1183
19952TIP3    H281348   5.047   5.984  16.683  1.7871  0.7894  0.0956
19953TIP3   OH281349   6.051   0.882  15.432  0.1807  0.7465  0.5122
19953TIP3    H181350   6.074   0.789  15.428  2.9039  1.3810 -1.3476
19953TIP3    H281351   6.003   0.898  15.350  1.0549  1.2677  0.0963
19954TIP3   OH281352   6.326   1.883  12.919  0.0877 -0.1697  0.3793
19954TIP3    H181353   6.408   1.853  12.958  0.0441 -1.1460 -0.2477
19954TIP3    H281354   6.331   1.854  12.828 -0.2755  1.1331 -0.0760
19955TIP3   OH281355   3.791   1.746   4.360  0.0678 -0.0223 -0.1687
19955TIP3    H181356   3.845   1.685   4.411 -0.0213 -0.7442 -0.9074
19955TIP3    H281357   3.705   1.704   4.358 -0.2877  0.6817  0.2431
19956TIP3   OH281358   3.300   2.012  14.089  0.0168 -1.1982 -0.5121
19956TIP3    H181359   3.218   2.034  14.133 -1.0674 -0.9429 -2.5594
19956TIP3    H281360   3.346   2.095  14.079 -1.0165 -0.8028 -2.2818
19957TIP3   OH281361   6.358   5.093   5.428 -0.7879  0.5123 -0.0808
19957TIP3    H181362   6.300   5.169   5.424  0.5884  1.6004 -0.0732
19957TIP3    H281363   6.341   5.054   5.514 -1.5767  0.7378 -0.1293
19958TIP3   OH281364   2.555   3.808  14.499  1.1048  0.1529 -0.2268
19958TIP3    H181365   2.496   3.864  14.448 -1.7409  0.0939  2.6878
19958TIP3    H281366   2.623   3.868  14.529  0.7599  0.9813 -1.0236
19959TIP3   OH281367   1.478   0.358  16.953 -0.9518  0.2760 -0.3593
19959TIP3    H181368   1.465   0.308  17.034 -0.1197 -0.3034 -0.5762
19959TIP3    H281369   1.389   0.379  16.923 -1.2827 -0.2848  0.2214
19960TIP3   OH281370   4.960   2.572   0.629  0.0235 -0.1311 -0.2269
19960TIP3    H181371   4.934   2.659   0.659  1.8379  0.1564  0.6323
19960TIP3    H281372   4.995   2.587   0.541  1.7049  0.2992  0.4764
19961TIP3   OH281373   2.132   6.214  14.094 -0.3493  0.6718 -0.1223
19961TIP3    H181374   2.115   6.209  14.188 -1.7159 -1.6982 -0.4161
19961TIP3    H281375   2.048   6.238  14.055 -0.0851  0.4693 -0.8414
19962TIP3   OH281376   2.936   1.121  14.133 -0.4878  0.7403  0.0655
19962TIP3    H181377   2.894   1.168  14.061 -2.3498  0.1123  0.7019
19962TIP3    H281378   2.995   1.185  14.173 -1.9630  2.1366  0.0827
19963TIP3   OH281379   3.708   1.876  13.179 -0.1709 -1.0371  0.7208
19963TIP3    H181380   3.625   1.853  13.137 -0.6761  2.1374 -0.2411
19963TIP3    H281381   3.686   1.896  13.269 -1.3843  3.4893 -0.3315
19964TIP3   OH281382   4.782   4.749   1.964 -0.2052 -0.0792  0.0542
19964TIP3    H181383   4.702   4.783   2.005 -0.5610 -1.0333  0.1675
19964TIP3    H281384   4.846   4.819   1.975 -0.0312 -0.5914  3.0197
19965TIP3   OH281385   1.084   2.946  13.199  0.2589  0.1761 -0.7148
19965TIP3    H181386   1.156   2.993  13.240 -0.4566  0.9328 -0.2854
19965TIP3    H281387   1.020   2.934  13.270 -0.5454  0.5806 -1.3598
19966TIP3   OH281388   0.753   4.811  16.725  0.1255  0.1811  0.4558
19966TIP3    H181389   0.729   4.885  16.781 -0.9867  0.4446 -0.3510
19966TIP3    H281390   0.704   4.737  16.761 -1.6525  0.6271 -0.9230
19967TIP3   OH281391   2.769   2.665   2.752 -0.1745 -0.1858  0.1347
19967TIP3    H181392   2.687   2.677   2.704 -0.5934  2.8623  1.4413
19967TIP3    H281393   2.755   2.585   2.803 -1.7291 -0.5368 -0.7664
19968TIP3   OH281394   2.181   5.191   5.558 -0.1054 -0.0651  0.6311
19968TIP3    H181395   2.162   5.140   5.480  1.0494  1.9995 -1.0948
19968TIP3    H281396   2.260   5.241   5.537 -2.3050  4.1494  1.2250
19969TIP3   OH281397   0.710   1.749   3.503  0.3842  0.1295 -0.1004
19969TIP3    H181398   0.664   1.767   3.420  0.3652  1.3901  0.1571
19969TIP3    H281399   0.688   1.824   3.558  0.0730 -0.8913  1.2058
19970TIP3   OH281400   2.551   6.722   2.827  0.4758 -0.1871  0.1227
19970TIP3    H181401   2.548   6.792   2.762 -1.1846  1.1984  1.5857
19970TIP3    H281402   2.575   6.766   2.908 -1.2031 -1.1862  1.2067
19971TIP3   OH281403   0.609   4.756  14.019  0.4878  0.0376  0.4917
19971TIP3    H181404   0.521   4.721  14.037 -0.1299  0.3747 -1.6006
19971TIP3    H281405   0.601   4.850  14.034  0.7406 -0.0311  1.0988
19972TIP3   OH281406   3.949   2.339   4.684  0.2017  0.0562 -0.2793
19972TIP3    H181407   3.886   2.301   4.623 -0.2337 -2.1471  1.4568
19972TIP3    H281408   4.023   2.278   4.683  0.3521  0.1911  1.1005
19973TIP3   OH281409   0.031   6.656  15.863 -0.4403 -0.5598  0.4531
19973TIP3    H181410   0.060   6.587  15.804  2.8769  0.0515  1.1717
19973TIP3    H281411   0.033   6.735  15.810  1.6103 -0.1616  1.0471
19974TIP3   OH281412   0.316   5.648   2.004  0.5667  0.3653 -0.1931
19974TIP3    H181413   0.328   5.725   1.949 -0.6486  0.4260 -0.4096
19974TIP3    H281414   0.287   5.684   2.088 -0.7110  0.1477 -0.5098
19975TIP3   OH281415   6.416   6.166  15.724  0.0734  0.3745 -0.3406
19975TIP3    H181416   6.333   6.187  15.767 -1.1399 -1.6521 -1.5368
19975TIP3    H281417   6.454   6.095  15.777  1.1676  1.3867  0.2888
19976TIP3   OH281418   4.554   0.141   5.268 -0.0622 -0.7593  0.0951
19976TIP3    H181419   4.628   0.192   5.302 -0.6090 -0.7482  1.3158
19976TIP3    H281420   4.528   0.187   5.189 -0.5995  0.9352  1.2067
19977TIP3   OH281421   1.769   4.332   2.226 -0.3854  0.6819 -0.0900
19977TIP3    H181422   1.675   4.322   2.210 -0.6431  0.6710  1.3078
19977TIP3    H281423   1.781   4.426   2.237 -0.5914  0.5537  1.5686
19978TIP3   OH281424   3.024   1.952   1.544  0.1436 -0.0258  0.4035
19978TIP3    H181425   2.959   2.011   1.582 -1.3133 -0.4472 -1.3219
19978TIP3    H281426   2.986   1.924   1.461  1.6404 -1.8891  0.2695
19979TIP3   OH281427   1.268   1.354  12.550  0.3301  0.2664  0.3240
19979TIP3    H181428   1.247   1.329  12.460 -1.2900 -4.1897  1.6936
19979TIP3    H281429   1.346   1.304  12.572 -0.7485 -0.7322  2.1003
19980TIP3   OH281430   1.392   6.145   3.177  0.5666  0.0495 -0.1297
19980TIP3    H181431   1.421   6.217   3.121 -1.6164  0.1852 -1.2096
19980TIP3    H281432   1.389   6.069   3.119  1.2234 -0.5359  0.5856
19981TIP3   OH281433   2.304   4.143  16.928  0.5592  0.4136  0.1265
19981TIP3    H181434   2.378   4.088  16.950  0.8249  1.1163  1.0215
19981TIP3    H281435   2.227   4.093  16.955  0.6597 -0.4701 -1.1312
19982TIP3   OH281436   6.519   5.079  10.389  0.0187 -0.1387  0.5117
19982TIP3    H181437   6.438   5.127  10.369 -0.2962 -0.0928  1.7895
19982TIP3    H281438   6.499   4.988  10.364 -0.5933 -0.2046  1.1895
19983TIP3   OH281439   2.406   6.263  17.152 -0.0054  0.4778 -0.0041
19983TIP3    H181440   2.379   6.171  17.146 -2.4551  1.1198  0.1189
19983TIP3    H281441   2.375   6.291  17.238 -0.5209  1.7504 -0.5724
19984TIP3   OH281442   2.973   4.853  17.220  0.0376 -0.7199  0.2554
19984TIP3    H181443   2.957   4.764  17.252 -1.7361 -0.5721 -0.1462
19984TIP3    H281444   2.951   4.910  17.294  0.0620 -0.5576  0.1386
19985TIP3   OH281445   4.636   5.756  17.080  0.2038  0.3064  0.2308
19985TIP3    H181446   4.570   5.696  17.114 -1.4028  1.8732  0.0160
19985TIP3    H281447   4.715   5.734  17.128 -1.8602  2.4140  5.3125
19986TIP3   OH281448   6.015   3.557   3.167  0.2121  0.0576 -0.0926
19986TIP3    H181449   6.104   3.531   3.144  0.8625  0.7691  1.4995
19986TIP3    H281450   6.002   3.520   3.255  0.3994  3.1672  1.3620
19987TIP3   OH281451   1.110   2.666   5.847  0.3219 -0.0856 -0.1225
19987TIP3    H181452   1.058   2.637   5.921 -2.6272  0.7613 -1.6870
19987TIP3    H281453   1.121   2.760   5.861 -0.0225  0.0298 -0.5923
19988TIP3   OH281454   1.524   4.024  15.596  0.6551 -0.6324  0.5893
19988TIP3    H181455   1.595   3.982  15.547 -0.0374 -0.5235 -0.5419
19988TIP3    H281456   1.561   4.107  15.626  0.6146  0.0299 -1.1238
19989TIP3   OH281457   1.987   0.473   5.028 -0.3976 -0.4112  0.2248
19989TIP3    H181458   2.015   0.383   5.013  0.2506  0.0266 -1.4224
19989TIP3    H281459   2.066   0.517   5.061  0.1971  0.2112 -1.8748
19990TIP3   OH281460   1.830   0.856   3.041 -0.0839 -0.3432 -0.2670
19990TIP3    H181461   1.900   0.791   3.046  2.1858  1.9607 -0.0565
19990TIP3    H281462   1.772   0.823   2.973 -0.1443 -3.5095  1.1407
19991TIP3   OH281463   2.233   0.928  12.134 -0.0182 -0.6668  0.0362
19991TIP3    H181464   2.202   0.960  12.050 -0.7911  0.3640  0.6869
19991TIP3    H281465   2.163   0.870  12.165 -0.1272 -0.3771  0.3409
19992TIP3   OH281466   0.967   1.894  11.108 -0.1559  0.0856  0.1704
19992TIP3    H181467   0.947   1.983  11.080 -1.7376 -0.1534  0.4568
19992TIP3    H281468   1.063   1.891  11.114  0.1781  0.7354 -3.1906
19993TIP3   OH281469   3.343   5.395  16.561 -0.3726  0.0496  0.4818
19993TIP3    H181470   3.352   5.334  16.489  1.9744  0.9258 -0.0318
19993TIP3    H281471   3.352   5.341  16.640  2.6545 -0.2255  0.0382
19994TIP3   OH281472   0.635   0.052  11.829 -0.1024  0.8338  0.2700
19994TIP3    H181473   0.546   0.045  11.796  0.0641 -0.9177  0.1185
19994TIP3    H281474   0.627   0.040  11.924  0.0884 -0.8369  0.1060
19995TIP3   OH281475   1.154   4.575   2.035  0.8165  0.2005 -0.6806
19995TIP3    H181476   1.117   4.635   2.100  0.5876 -1.6288  0.9814
19995TIP3    H281477   1.098   4.584   1.958  0.3031  1.4961 -0.1777
19996TIP3   OH281478   0.704   3.748  16.572  0.0000 -0.0585  0.3790
19996TIP3    H181479   0.674   3.675  16.518 -0.2262  0.0600  0.3424
19996TIP3    H281480   0.666   3.826  16.531  2.7485  0.4689 -1.4826
19997TIP3   OH281481   2.882   3.514  14.191  0.1114 -0.1229  0.2519
19997TIP3    H181482   2.835   3.495  14.110  0.0899  1.0690 -0.0292
19997TIP3    H281483   2.814   3.539  14.254 -0.0174 -2.3228  1.0685
19998TIP3   OH281484   2.302   0.442  15.792  0.2027 -0.0832 -0.1313
19998TIP3    H181485   2.252   0.481  15.863 -0.7370 -1.6873  0.1283
19998TIP3    H281486   2.349   0.368  15.832  0.0044 -0.7440 -1.0736
19999TIP3   OH281487   5.801   4.200   5.262  0.2141  0.0291 -0.1012
19999TIP3    H181488   5.862   4.185   5.334  1.3482  0.1610 -1.0042
19999TIP3    H281489   5.764   4.286   5.280  0.5024  0.0709  0.3084
20000TIP3   OH281490   6.218   5.647   3.143  0.2583 -0.3028  0.4472
20000TIP3    H181491   6.231   5.593   3.221  0.8165  0.3845  0.8443
20000TIP3    H281492   6.276   5.722   3.156 -2.0483  1.5270  0.9511
20001TIP3   OH281493   0.543   2.060  12.534  0.6373  0.1516  0.2389
20001TIP3    H181494   0.510   2.145  12.504  1.7158  0.8269  0.8923
20001TIP3    H281495   0.620   2.045  12.479 -0.2350 -0.9966 -0.6994
20002TIP3   OH281496   4.064   1.451  16.575  0.6348  0.5432  0.2356
20002TIP3    H181497   4.010   1.442  16.496  1.1236 -0.4400  0.0017
20002TIP3    H281498   4.145   1.405  16.554  0.3044 -0.8314  1.7514
20003TIP3   OH281499   6.202   4.960   6.214 -0.1118  0.4527  0.6140
20003TIP3    H181500   6.135   4.899   6.186 -0.9284  0.6466  2.0318
20003TIP3    H281501   6.168   5.046   6.190  0.6673  0.4221 -0.6596
20004TIP3   OH281502   1.253   0.157  11.414  0.0719 -0.0506  0.2186
20004TIP3    H181503   1.169   0.197  11.437 -0.5447 -1.3815  0.4103
20004TIP3    H281504   1.245   0.138  11.321  0.0249 -0.4660  0.3053
20005TIP3   OH281505   5.144   3.952   4.852 -0.2977  0.1790  0.2597
20005TIP3    H181506   5.098   3.875   4.818  0.6884 -0.6232  0.6864
20005TIP3    H281507   5.157   3.933   4.945  1.5602  0.0062  0.0098
20006TIP3   OH281508   3.681   1.223   2.793  0.0118 -0.0303 -0.1100
20006TIP3    H181509   3.767   1.198   2.759 -0.0413  1.2559 -1.2874
20006TIP3    H281510   3.621   1.206   2.721 -1.5207 -4.5962  1.8721
20007TIP3   OH281511   2.233   4.321   0.033  0.4676  0.0351 -0.7020
20007TIP3    H181512   2.165   4.297   0.095  0.4046 -0.0402 -0.8009
20007TIP3    H281513   2.266   4.238  -0.001  2.7011 -0.1305  1.5630
20008TIP3   OH281514   0.559   3.236  16.591  0.1156 -0.4135  0.2127
20008TIP3    H181515   0.513   3.166  16.546 -0.4460  0.6834 -0.9944
20008TIP3    H281516   0.628   3.192  16.640  0.8393 -1.6913 -1.8179
20009TIP3   OH281517   4.785   6.126  16.109  0.1768 -0.0614 -0.2176
20009TIP3    H181518   4.773   6.192  16.042 -0.6327  0.2317  0.2081
20009TIP3    H281519   4.788   6.043  16.061  1.6063  0.2888 -0.7940
20010TIP3   OH281520   4.715   6.634  12.011  0.3872  0.4898 -0.0213
20010TIP3    H181521   4.672   6.588  12.084  1.7491 -2.1304 -0.7345
20010TIP3    H281522   4.659   6.617  11.936 -0.6448  2.5941  0.2248
20011TIP3   OH281523   6.566   2.469   0.884 -0.3231 -0.0153  0.0721
20011TIP3    H181524   6.642   2.440   0.832 -0.8978  1.3458 -1.6254
20011TIP3    H281525   6.515   2.390   0.898  0.1948 -0.5429 -0.8859
20012TIP3   OH281526   5.874   0.289   3.584 -0.5159 -0.2422 -0.1448
20012TIP3    H181527   5.903   0.378   3.603 -1.5721  0.0496  0.1196
20012TIP3    H281528   5.875   0.284   3.488 -0.5556  0.0796 -0.1615
20013TIP3   OH281529   6.435   1.961   0.549  0.0959 -0.3973  0.4175
20013TIP3    H181530   6.444   1.914   0.465  1.4101 -0.2561  0.4505
20013TIP3    H281531   6.524   1.989   0.569 -0.5501  1.4596  0.7947
20014TIP3   OH281532   6.184   4.332  14.375 -0.1103 -0.1949  0.0397
20014TIP3    H181533   6.232   4.253  14.351  0.7442  0.6745 -1.2284
20014TIP3    H281534   6.236   4.404  14.339 -1.2579  0.9034  0.5049
20015TIP3   OH281535   0.066   0.938   2.685 -0.3211 -0.1227  0.9754
20015TIP3    H181536   0.119   0.997   2.738 -1.0816  0.4745  1.0753
20015TIP3    H281537   0.056   0.983   2.601  1.1473 -1.1965  0.1658
20016TIP3   OH281538   0.088   6.072  17.295  0.1088 -0.4089  0.1410
20016TIP3    H181539   0.054   6.159  17.273  1.4634  0.3538  0.9350
20016TIP3    H281540   0.114   6.079  17.387 -2.5584 -2.6102  1.1735
20017TIP3   OH281541   2.785   3.802  13.443  0.4680  0.0542  0.5556
20017TIP3    H181542   2.737   3.881  13.469 -1.4668 -0.8689 -0.0537
20017TIP3    H281543   2.821   3.768  13.525 -0.1013  0.6517  1.0651
20018TIP3   OH281544   2.937   0.122   4.258 -0.2674 -0.3394 -0.1118
20018TIP3    H181545   2.906   0.124   4.167 -1.4860 -1.1026  0.2624
20018TIP3    H281546   3.018   0.173   4.257  0.2154 -1.0677 -1.7950
20019TIP3   OH281547   4.450   1.876  11.565 -0.6825  0.0211 -0.3861
20019TIP3    H181548   4.489   1.963  11.562 -0.2925 -0.1463 -0.2462
20019TIP3    H281549   4.523   1.817  11.581 -0.9637 -0.3196 -0.3255
20020TIP3   OH281550   0.043   0.801  10.739 -0.0877 -0.1275  0.0415
20020TIP3    H181551   0.039   0.861  10.664  2.5231  0.9978  0.7001
20020TIP3    H281552   0.090   0.725  10.705  0.1624 -0.0737  0.2714
20021TIP3   OH281553   4.306   6.670  13.945  1.0981 -0.0273 -0.0233
20021TIP3    H181554   4.393   6.647  13.911  1.0729  1.9714 -1.6314
20021TIP3    H281555   4.246   6.624  13.886  1.0696  0.2416 -0.2058
20022TIP3   OH281556   6.648   5.040   6.334  0.1126  0.4545  0.2553
20022TIP3    H181557   6.631   4.946   6.336 -0.5571  0.4893 -1.6687
20022TIP3    H281558   6.598   5.076   6.407 -0.8769 -0.5143  0.0678
20023TIP3   OH281559   5.851   0.054  16.275  0.2554  0.1084  0.4013
20023TIP3    H181560   5.853  -0.037  16.305 -1.6114  0.8076  2.9169
20023TIP3    H281561   5.936   0.089  16.302  0.7315 -0.6921 -0.0090
20024TIP3   OH281562   1.004   5.616   6.316 -0.5861  0.0319  0.0959
20024TIP3    H181563   0.940   5.545   6.306 -0.0759 -0.3924 -0.1612
20024TIP3    H281564   1.089   5.572   6.321 -0.3487  0.5697  0.9296
20025TIP3   OH281565   5.685   4.586  10.688 -0.0602  0.2983 -0.4742
20025TIP3    H181566   5.703   4.531  10.764 -2.3194  1.0338  0.7158
20025TIP3    H281567   5.622   4.536  10.636  1.0821  0.0198 -1.6165
20026TIP3   OH281568   1.790   4.550  16.028  0.2009 -0.4742  0.4823
20026TIP3    H181569   1.853   4.482  16.003  0.3526 -0.6136  1.2305
20026TIP3    H281570   1.705   4.511  16.013  0.2871 -0.5507  0.1770
20027TIP3   OH281571   1.792   0.659  11.851 -0.3259  0.8958 -0.4690
20027TIP3    H181572   1.786   0.606  11.771  2.5154  0.7088 -0.6700
20027TIP3    H281573   1.845   0.734  11.826  2.5074 -0.2114  1.6203
20028TIP3   OH281574   5.087   4.251  11.585 -0.0063 -0.3130 -0.0515
20028TIP3    H181575   5.155   4.276  11.522  0.6878 -0.2398  0.7014
20028TIP3    H281576   5.133   4.250  11.670 -0.5492 -1.9318  0.2523
20029TIP3   OH281577   4.397   6.356  13.679 -0.2978 -0.0095  0.3498
20029TIP3    H181578   4.476   6.311  13.648 -0.1661 -0.0292  0.6961
20029TIP3    H281579   4.365   6.405  13.604 -0.5818 -0.8784 -0.1009
20030TIP3   OH281580   0.023   2.724   4.088 -0.2464  0.0266 -0.3935
20030TIP3    H181581  -0.006   2.639   4.055  0.9560 -0.7625  0.5099
20030TIP3    H281582  -0.017   2.788   4.028 -1.5589 -1.1300 -0.8024
20031TIP3   OH281583   4.023   6.309   1.329  0.0799  0.1072  0.5420
20031TIP3    H181584   4.082   6.243   1.291 -0.1640  1.3317 -2.2369
20031TIP3    H281585   4.064   6.333   1.412  1.1671 -2.1343  0.7239
20032TIP3   OH281586   5.097   5.565  10.705  0.2182 -0.5715 -0.1461
20032TIP3    H181587   5.038   5.572  10.630  0.5300  1.4533 -0.2499
20032TIP3    H281588   5.144   5.648  10.707  1.0522 -1.0331  1.6100
20033TIP3   OH281589   2.057   2.093  16.363 -0.3701  0.6806  0.3195
20033TIP3    H181590   2.058   2.188  16.368 -0.4018  0.8353 -1.8616
20033TIP3    H281591   1.986   2.072  16.303 -0.0007 -0.6872  0.3225
20034TIP3   OH281592   5.189   6.782   2.486  0.2331 -0.0783 -0.1117
20034TIP3    H181593   5.195   6.775   2.581 -2.6926 -0.7333  0.1124
20034TIP3    H281594   5.185   6.692   2.455  1.8545  0.0986 -0.9965
20035TIP3   OH281595   2.387   6.333   2.103 -0.1958  0.1813 -0.2300
20035TIP3    H181596   2.364   6.423   2.127  1.3946  0.5726 -0.0444
20035TIP3    H281597   2.303   6.289   2.089 -1.3038  0.4867  3.9700
20036TIP3   OH281598   0.337   0.044   4.284  0.1120 -0.1523  0.1724
20036TIP3    H181599   0.423   0.009   4.309  0.6373 -1.5310 -3.0425
20036TIP3    H281600   0.358   0.116   4.224 -1.0345  0.9341  1.0285
20037TIP3   OH281601   5.528   6.643  15.925  0.0066 -0.8858 -0.1351
20037TIP3    H181602   5.483   6.709  15.978 -0.7204 -0.2353 -1.4963
20037TIP3    H281603   5.493   6.560  15.956 -0.7050 -0.4975  0.1305
20038TIP3   OH281604   1.118   4.907  12.347 -0.3232  0.4439  0.2857
20038TIP3    H181605   1.087   4.816  12.353  0.2338  0.2837  0.9445
20038TIP3    H281606   1.058   4.949  12.286 -1.3857 -0.0291  0.9792
20039TIP3   OH281607   1.032   5.104   3.156  0.3348  0.0219 -0.5245
20039TIP3    H181608   0.959   5.053   3.121  1.6375 -2.2561 -0.0810
20039TIP3    H281609   1.077   5.137   3.078  1.1851 -2.0587 -0.9693
20040TIP3   OH281610   4.685   1.909  15.091 -0.0514  0.3493 -0.1909
20040TIP3    H181611   4.626   1.972  15.050 -0.3340  0.3250  0.1754
20040TIP3    H281612   4.631   1.865  15.157  0.1415 -0.2811 -0.4471
20041TIP3   OH281613   0.197   1.748   4.473 -0.5254 -0.6053 -0.1721
20041TIP3    H181614   0.172   1.823   4.526 -0.7940 -1.3412  0.7882
20041TIP3    H281615   0.260   1.783   4.409 -0.0602  0.2907  0.7413
20042TIP3   OH281616   5.431   5.445  13.990  0.0870 -0.0518 -0.6651
20042TIP3    H181617   5.364   5.402  13.938  0.0724  1.0312 -1.5659
20042TIP3    H281618   5.385   5.477  14.067 -0.3541  0.3316 -1.0847
20043TIP3   OH281619   4.077   4.683  13.370 -0.1601  0.0111  0.0280
20043TIP3    H181620   4.020   4.720  13.301 -0.4038  0.0878  0.2695
20043TIP3    H281621   4.076   4.589  13.354 -0.6512 -0.0218  0.2595
20044TIP3   OH281622   0.697   6.106  10.603 -0.1788 -0.1831 -0.2358
20044TIP3    H181623   0.632   6.043  10.572  0.6437 -1.2617  0.1649
20044TIP3    H281624   0.766   6.102  10.536  0.6550 -0.9842  0.6526
20045TIP3   OH281625   3.697   3.029  15.237  0.4445  0.3378  0.3672
20045TIP3    H181626   3.647   3.111  15.237  1.8435  1.2882  2.6020
20045TIP3    H281627   3.747   3.032  15.318  0.5722 -2.7655  0.5033
20046TIP3   OH281628   4.151   5.649   4.645  0.4214 -0.1898 -0.1012
20046TIP3    H181629   4.138   5.670   4.738 -3.1326 -0.3566 -0.4296
20046TIP3    H281630   4.157   5.554   4.643  0.3217 -0.1968 -0.0642
20047TIP3   OH281631   2.325   5.710   1.679 -0.1384 -0.0624 -0.2879
20047TIP3    H181632   2.403   5.758   1.709 -0.3032 -0.4471  0.8073
20047TIP3    H281633   2.298   5.757   1.600  0.1226  1.2224  0.3467
20048TIP3   OH281634   0.643   0.224   3.854  0.3928  0.5464 -0.3051
20048TIP3    H181635   0.622   0.234   3.762  2.1614  1.6116 -0.6425
20048TIP3    H281636   0.702   0.149   3.858 -2.3020 -1.7507  0.4981
20049TIP3   OH281637   5.818   5.053  11.546  0.0149  0.2180 -0.1296
20049TIP3    H181638   5.850   4.972  11.507  0.7736 -0.0962  1.0972
20049TIP3    H281639   5.854   5.053  11.634 -1.8067  0.8074  0.6612
20050TIP3   OH281640   3.521   4.598  16.282  0.2511  0.1766  0.2394
20050TIP3    H181641   3.509   4.646  16.200 -1.9446 -1.4023 -0.4475
20050TIP3    H281642   3.556   4.513  16.256  0.7912  0.1125  1.1071
20051TIP3   OH281643   2.613   2.035   1.819 -0.1207  0.4214  0.4851
20051TIP3    H181644   2.671   2.020   1.893 -0.5591  2.4764  1.3097
20051TIP3    H281645   2.580   1.948   1.796  1.6964 -0.5269  1.2743
20052TIP3   OH281646   4.093   0.352  13.677 -0.2373  0.8085  0.4140
20052TIP3    H181647   4.067   0.310  13.759  0.1244 -0.9509 -0.3291
20052TIP3    H281648   4.187   0.339  13.671 -0.4992 -0.8322 -1.1515
20053TIP3   OH281649   4.428   5.289   1.612  0.2688 -0.1918  0.1276
20053TIP3    H181650   4.413   5.381   1.590  1.5774  0.2243  0.8492
20053TIP3    H281651   4.341   5.255   1.633 -0.3022  0.7329 -0.6520
20054TIP3   OH281652   4.850   2.338   4.921 -0.1603  0.4754 -0.1017
20054TIP3    H181653   4.910   2.412   4.930  1.1984 -0.7788  2.0619
20054TIP3    H281654   4.816   2.323   5.010  0.3460 -2.0458 -0.2422
20055TIP3   OH281655   4.053   5.098  15.514  0.3397  0.1295 -0.3895
20055TIP3    H181656   4.100   5.020  15.544  1.8676  0.1473 -2.4765
20055TIP3    H281657   4.061   5.095  15.418 -0.5259  2.2771 -0.5900
20056TIP3   OH281658   0.132   4.444  15.712 -0.3559 -0.1258 -0.0667
20056TIP3    H181659   0.217   4.401  15.703  1.0013  2.4892 -1.0972
20056TIP3    H281660   0.140   4.496  15.792 -1.6747 -1.1490  0.7680
20057TIP3   OH281661   5.402   2.644  14.073 -0.0756 -0.1065  0.1018
20057TIP3    H181662   5.315   2.684  14.075 -0.5169 -1.0007  2.2201
20057TIP3    H281663   5.461   2.713  14.104 -0.4171 -0.2247  1.0436
20058TIP3   OH281664   4.116   4.424   1.002  0.0373  0.5905  0.2776
20058TIP3    H181665   4.028   4.400   1.032  0.3848  1.0477  1.7768
20058TIP3    H281666   4.108   4.433   0.907 -0.5977 -3.2650 -0.1726
20059TIP3   OH281667   4.397   2.509   3.753 -0.4328 -0.4998  0.0685
20059TIP3    H181668   4.339   2.436   3.732 -1.9476  0.2581  1.4096
20059TIP3    H281669   4.373   2.534   3.842 -0.1091  1.7494 -0.4066
20060TIP3   OH281670   5.278   2.482   3.995 -0.0034 -0.3035  0.0297
20060TIP3    H181671   5.356   2.426   3.999  0.0048 -0.2719  0.3723
20060TIP3    H281672   5.305   2.558   3.944  0.2955 -0.1290  0.4502
20061TIP3   OH281673   4.714   5.161  16.475  0.0421 -0.5638 -0.5101
20061TIP3    H181674   4.684   5.252  16.485  0.9296 -0.0391 -2.2133
20061TIP3    H281675   4.669   5.129  16.398 -0.6290 -1.7734  0.3555
20062TIP3   OH281676   2.683   2.663  12.144 -0.1711 -0.0290  0.7218
20062TIP3    H181677   2.678   2.569  12.162  0.8741 -0.1974  0.2152
20062TIP3    H281678   2.592   2.692  12.144 -0.8840 -1.7333 -2.5357
20063TIP3   OH281679   4.508   6.368   5.358  0.2751  0.3330  0.4156
20063TIP3    H181680   4.593   6.326   5.371  0.8241  1.9394  2.3851
20063TIP3    H281681   4.511   6.399   5.268  1.0664 -1.0879 -0.0935
20064TIP3   OH281682   1.968   0.009  17.070  0.3883 -0.2661 -0.1890
20064TIP3    H181683   2.018   0.041  17.145  0.0523 -0.2942  0.0425
20064TIP3    H281684   1.991  -0.084  17.063  0.1125 -0.3556  0.1171
20065TIP3   OH281685   5.078   3.024   0.459  0.2523  0.0248 -0.4191
20065TIP3    H181686   5.105   3.033   0.368  0.4559 -0.6578 -0.4296
20065TIP3    H281687   5.160   3.026   0.509  0.2945 -1.3813 -0.3984
20066TIP3   OH281688   6.093   6.590  14.137  0.0789  0.1920  0.3970
20066TIP3    H181689   6.063   6.593  14.228  1.2113  0.2505  0.7764
20066TIP3    H281690   6.050   6.513  14.100 -0.6684  0.3709  0.8747
20067TIP3   OH281691   5.712   3.382  12.002  0.5102 -0.9680  0.4722
20067TIP3    H181692   5.726   3.458  11.946  1.3553 -2.4203 -1.4263
20067TIP3    H281693   5.642   3.408  12.062 -0.4373  0.6970 -1.2559
20068TIP3   OH281694   3.014   2.624   2.645  0.1047 -0.4454 -0.0030
20068TIP3    H181695   3.077   2.683   2.687 -0.0954  0.0854 -0.4338
20068TIP3    H281696   2.934   2.636   2.694  0.4089 -1.3459  0.7354
20069TIP3   OH281697   2.706   0.620   5.268 -0.3049  0.8718  0.1376
20069TIP3    H181698   2.659   0.537   5.283  0.6295 -0.2478 -2.4646
20069TIP3    H281699   2.698   0.634   5.174  2.8517  1.6679 -0.0936
20070TIP3   OH281700   5.922   2.107  13.874  0.0968  0.0611  0.0108
20070TIP3    H181701   5.930   2.082  13.782 -0.1021 -0.6716  0.1810
20070TIP3    H281702   5.871   2.036  13.913 -0.8904  0.9735  0.4334
20071TIP3   OH281703   2.533   5.906   2.507  0.1959 -0.4217  0.0616
20071TIP3    H181704   2.582   5.951   2.575  0.7547 -0.6108 -0.2067
20071TIP3    H281705   2.596   5.894   2.435 -0.4078 -0.1353 -0.5308
20072TIP3   OH281706   3.984   1.309  15.222 -0.0153 -0.4296 -0.1169
20072TIP3    H181707   3.991   1.304  15.317 -0.8062  1.1330  0.0650
20072TIP3    H281708   4.062   1.358  15.194 -0.9605  1.2586  0.0309
20073TIP3   OH281709   5.757   4.646  15.110  0.6813 -1.0786  0.4616
20073TIP3    H181710   5.845   4.678  15.126  0.4628  0.5855 -1.3556
20073TIP3    H281711   5.700   4.700  15.165  0.6530 -1.1517  0.5061
20074TIP3   OH281712   3.603   5.699  17.098 -0.2159  0.6326 -0.5096
20074TIP3    H181713   3.570   5.673  17.184 -1.9921 -0.5220 -1.4855
20074TIP3    H281714   3.667   5.768  17.117  1.4108 -1.3792  1.9103
20075TIP3   OH281715   5.655   2.726  16.289  0.4584  0.3911  0.0302
20075TIP3    H181716   5.695   2.753  16.371 -0.6693  0.1073  0.6829
20075TIP3    H281717   5.700   2.779  16.222  2.2267 -0.2205  0.6609
20076TIP3   OH281718   5.560   0.156  16.253 -0.3876  0.2496  0.4507
20076TIP3    H181719   5.550   0.235  16.201  0.5003 -0.1130 -0.2966
20076TIP3    H281720   5.638   0.114  16.218 -0.6432 -0.7782  1.0701
20077TIP3   OH281721   2.400   4.608   3.133  0.1190  0.2253 -0.2500
20077TIP3    H181722   2.327   4.569   3.085  0.1007  0.4970 -0.4416
20077TIP3    H281723   2.466   4.539   3.137 -0.5565 -0.3944  0.8432
20078TIP3   OH281724   1.324   5.802  13.990  0.2679 -0.4649 -0.5415
20078TIP3    H181725   1.234   5.769  13.988  0.3653 -0.7938 -2.9234
20078TIP3    H281726   1.376   5.726  14.015 -0.0448 -0.4851  0.0567
20079TIP3   OH281727   6.514   0.122  14.856  0.0653 -0.0002 -0.1884
20079TIP3    H181728   6.472   0.041  14.886 -0.1763 -0.1848 -1.0227
20079TIP3    H281729   6.442   0.179  14.830  0.2669  0.2308 -0.2434
20080TIP3   OH281730   5.915   4.334   4.204 -0.1071 -0.0207  0.0742
20080TIP3    H181731   5.912   4.358   4.112 -0.4001  0.9517  0.3324
20080TIP3    H281732   5.896   4.240   4.205 -0.0943 -0.0398 -0.8494
20081TIP3   OH281733   3.163   0.044  12.361  0.4961  0.0647 -0.2539
20081TIP3    H181734   3.114   0.123  12.340  0.5512  0.5234  1.2279
20081TIP3    H281735   3.252   0.061  12.329  0.3764  0.3871 -0.4174
20082TIP3   OH281736   3.638   5.971  14.516 -0.2544  0.4169 -0.5653
20082TIP3    H181737   3.688   6.043  14.554  2.0220 -0.7713 -1.1361
20082TIP3    H281738   3.688   5.945  14.438 -0.6263 -2.1799 -0.0370
20083TIP3   OH281739   0.473   6.452   3.789  0.0712 -0.0646  0.3165
20083TIP3    H181740   0.542   6.407   3.837 -0.0571  1.2264  1.7654
20083TIP3    H281741   0.412   6.482   3.856 -0.7170  0.8037 -0.7487
20084TIP3   OH281742   0.770   6.264   1.484 -0.0842  0.1227  0.5489
20084TIP3    H181743   0.746   6.343   1.534 -1.3324  1.0355 -1.3578
20084TIP3    H281744   0.687   6.217   1.473  0.4195 -0.7651  0.5018
20085TIP3   OH281745   6.569   1.251  16.648  0.0104 -0.7508  0.0301
20085TIP3    H181746   6.662   1.261  16.667 -0.0471  2.7762 -0.8907
20085TIP3    H281747   6.525   1.264  16.732  0.2775 -0.5470  0.1388
20086TIP3   OH281748   5.553   1.018  13.059  0.0191 -0.2315  0.4791
20086TIP3    H181749   5.592   0.964  13.128  1.2550  0.2075  0.1478
20086TIP3    H281750   5.627   1.065  13.021 -0.9037  0.9917  0.1321
20087TIP3   OH281751   5.680   0.063  15.386  0.2931  0.0063  0.0557
20087TIP3    H181752   5.669  -0.026  15.352 -1.1165 -0.0741  0.6242
20087TIP3    H281753   5.763   0.093  15.349 -0.4322 -0.5995 -2.2651
20088TIP3   OH281754   5.575   6.793   5.118  0.3763  0.5207 -0.2968
20088TIP3    H181755   5.548   6.849   5.191 -1.1938  0.7339 -1.0003
20088TIP3    H281756   5.626   6.850   5.061  1.8455  0.2896  0.7171
20089TIP3   OH281757   4.501   4.920   2.372 -0.3693 -0.4071 -0.1300
20089TIP3    H181758   4.503   5.015   2.358 -1.6613  0.0916  2.4926
20089TIP3    H281759   4.411   4.895   2.352 -0.2559 -0.9298  0.0114
20090TIP3   OH281760   3.967   1.235  14.883 -0.1982  0.4473  0.1472
20090TIP3    H181761   3.955   1.184  14.963 -0.1657 -2.9315 -1.8190
20090TIP3    H281762   4.058   1.222  14.859 -0.7963 -0.6584 -1.6834
20091TIP3   OH281763   0.490   5.102  14.503 -0.1996 -0.4031 -0.4871
20091TIP3    H181764   0.403   5.092  14.540 -1.2586  0.2734 -2.6136
20091TIP3    H281765   0.491   5.042  14.428  1.4932 -1.0290 -0.0013
20092TIP3   OH281766   2.192   4.908  13.743  0.5418 -0.3016 -0.4498
20092TIP3    H181767   2.128   4.922  13.812  1.7020  0.9703  0.4126
20092TIP3    H281768   2.276   4.899  13.788  1.0829 -1.2454 -1.5887
20093TIP3   OH281769   5.300   5.691  13.266 -0.1179  0.3409  0.2790
20093TIP3    H181770   5.283   5.776  13.225 -1.4434  0.6555  1.4229
20093TIP3    H281771   5.307   5.630  13.192  1.9667  1.5690 -0.6327
20094TIP3   OH281772   1.639   4.377  12.597 -0.0663  0.1890 -0.0352
20094TIP3    H181773   1.668   4.463  12.628 -0.9254  0.2270  0.6816
20094TIP3    H281774   1.546   4.374  12.618  0.0030 -1.0092  0.1418
20095TIP3   OH281775   1.936   5.218  12.349  0.0191 -0.2392  0.4648
20095TIP3    H181776   2.005   5.214  12.414 -0.7246 -0.8631  1.2535
20095TIP3    H281777   1.901   5.129  12.346 -0.6251  0.0188 -0.0494
20096TIP3   OH281778   2.190   4.853  11.813  0.1427 -0.6828 -0.4779
20096TIP3    H181779   2.201   4.876  11.721  1.7466 -0.9503 -0.3874
20096TIP3    H281780   2.168   4.760  11.813 -2.3381 -0.1555 -0.6639
20097TIP3   OH281781   2.135   5.936   6.975  0.5145  0.3862 -0.1561
20097TIP3    H181782   2.073   5.892   6.917  1.6274 -1.7801  0.1646
20097TIP3    H281783   2.220   5.922   6.934  1.0255  1.3981  0.5144
20098TIP3   OH281784   5.446   4.890  12.491  0.4409  1.4274  0.0340
20098TIP3    H181785   5.483   4.802  12.488 -0.9996  0.7919  0.0445
20098TIP3    H281786   5.421   4.908  12.400 -0.8278  1.1093  0.3057
20099TIP3   OH281787   1.071   1.227   3.430  0.4561  0.0797 -0.3923
20099TIP3    H181788   1.066   1.169   3.354  2.3406  0.5907 -0.9634
20099TIP3    H281789   1.067   1.168   3.505  3.0367 -0.9646 -0.9644
20100TIP3   OH281790   1.583   1.964   5.653 -0.3263 -0.3675  0.0587
20100TIP3    H181791   1.656   1.925   5.606 -0.8620  0.3715 -1.4619
20100TIP3    H281792   1.599   1.942   5.745  1.3025 -0.9969 -0.3374
20101TIP3   OH281793   1.668   1.715  16.659  0.3240 -0.7454  0.3595
20101TIP3    H181794   1.616   1.716  16.739  1.1650  0.2528  0.9158
20101TIP3    H281795   1.658   1.802  16.622 -2.0128 -1.8827 -1.9839
20102TIP3   OH281796   0.927   6.617   1.699 -0.1073 -0.5875 -0.0231
20102TIP3    H181797   1.012   6.629   1.742 -0.3490 -0.0933  0.3210
20102TIP3    H281798   0.863   6.637   1.767 -0.4974 -0.7128 -0.3540
20103TIP3   OH281799   2.003   1.064   3.555  0.1812 -1.0419  0.1865
20103TIP3    H181800   1.986   1.125   3.627  0.8040  0.3658 -0.8061
20103TIP3    H281801   2.086   1.023   3.578  0.8583  0.0912 -0.1392
20104TIP3   OH281802   3.714   1.806  15.610 -0.8462  0.8047 -0.4265
20104TIP3    H181803   3.656   1.765  15.674 -0.2169  0.6282  0.0415
20104TIP3    H281804   3.768   1.734  15.578 -1.5416  0.7750 -1.6008
20105TIP3   OH281805   6.812   3.679   0.328 -0.4764  0.4146 -0.0498
20105TIP3    H181806   6.907   3.668   0.331 -0.0850  2.5706 -1.8261
20105TIP3    H281807   6.778   3.591   0.346  1.8311 -0.4765  0.4176
20106TIP3   OH281808   5.520   6.804  14.653  0.0212  0.0813  0.4609
20106TIP3    H181809   5.457   6.835  14.719 -0.4715 -0.3563  0.2030
20106TIP3    H281810   5.589   6.871  14.653 -0.5667  0.7033  0.5689
20107TIP3   OH281811   4.607   5.345   4.026 -0.0262  0.7911 -0.3686
20107TIP3    H181812   4.688   5.307   4.058  0.3585  2.0881  0.2773
20107TIP3    H281813   4.551   5.351   4.104 -0.7049  0.0337 -0.7808
20108TIP3   OH281814   2.867   1.572   3.149  0.1149  0.0588  0.5595
20108TIP3    H181815   2.833   1.648   3.197 -2.7247 -1.9281  1.9988
20108TIP3    H281816   2.919   1.525   3.214 -0.1687 -0.4277  0.4427
20109TIP3   OH281817   4.049   0.368   2.475 -0.5077 -0.8248 -0.0796
20109TIP3    H181818   4.027   0.416   2.554  2.6778  0.4869  0.1745
20109TIP3    H281819   4.055   0.277   2.504 -1.6395 -0.6989  0.6117
20110TIP3   OH281820   1.983   4.461  12.731 -0.8221 -0.3842 -0.2424
20110TIP3    H181821   1.974   4.481  12.638 -1.4549 -1.2703 -0.3863
20110TIP3    H281822   1.955   4.369  12.738  0.9541 -0.9064  0.5294
20111TIP3   OH281823   3.112   2.222  12.850 -0.1048 -0.4481  0.4456
20111TIP3    H181824   3.037   2.274  12.820  0.1698 -1.0207 -1.3843
20111TIP3    H281825   3.077   2.168  12.921 -0.9314  0.6529  0.9084
20112TIP3   OH281826   4.631   4.350  11.199  0.0563  0.0265  0.5549
20112TIP3    H181827   4.560   4.302  11.156 -0.4963  0.5813  0.8348
20112TIP3    H281828   4.694   4.367  11.129  0.3895 -1.3105  0.4980
20113TIP3   OH281829   6.395   0.207   4.694  0.0231  0.4229  0.2582
20113TIP3    H181830   6.342   0.277   4.733 -0.3815  2.1285 -2.9676
20113TIP3    H281831   6.481   0.247   4.680  1.6031 -1.5642  3.2126
20114TIP3   OH281832   1.470   5.659  15.851  0.4035 -0.3265  0.1622
20114TIP3    H181833   1.552   5.658  15.900  1.1856 -1.4600 -1.1128
20114TIP3    H281834   1.469   5.744  15.806  0.6681 -0.1347  0.5149
20115TIP3   OH281835   3.977   5.798  13.047 -0.1758  0.1816 -0.1150
20115TIP3    H181836   3.969   5.868  13.112  1.3780 -0.2038  0.5424
20115TIP3    H281837   4.071   5.782  13.041 -0.4726 -1.5430 -0.5839
20116TIP3   OH281838   4.508   3.919   0.548 -0.3646  0.0630  0.0065
20116TIP3    H181839   4.471   3.843   0.594 -0.1811 -0.2270 -0.3227
20116TIP3    H281840   4.513   3.891   0.457 -1.2479  0.8340 -0.2908
20117TIP3   OH281841   4.690   0.849   2.616 -0.3129  0.4102 -0.3084
20117TIP3    H181842   4.754   0.815   2.678 -1.1748 -2.3427 -0.7470
20117TIP3    H281843   4.610   0.860   2.668 -0.9729 -1.6827 -0.7596
20118TIP3   OH281844   1.339   3.807  16.627  0.0299  0.0383  0.3381
20118TIP3    H181845   1.285   3.771  16.556 -0.6400 -0.0093  0.8633
20118TIP3    H281846   1.277   3.852  16.684  0.4090 -0.8089  1.4580
20119TIP3   OH281847   2.845   1.507   2.466  0.2906 -0.2393  0.3708
20119TIP3    H181848   2.879   1.475   2.549  0.3128 -1.3487 -0.0437
20119TIP3    H281849   2.917   1.494   2.404 -0.5673 -1.8805 -0.3501
20120TIP3   OH281850   2.956   0.450  11.180 -0.1295  0.0018 -0.8801
20120TIP3    H181851   2.987   0.440  11.090  0.2695 -0.0309 -0.7396
20120TIP3    H281852   2.862   0.466  11.171 -0.3537 -1.3902 -1.2316
20121TIP3   OH281853   3.268   1.760   1.077  0.5050 -0.3821 -0.0700
20121TIP3    H181854   3.219   1.678   1.084  1.3146 -0.8137  0.6657
20121TIP3    H281855   3.275   1.775   0.982  0.7919 -1.4297 -0.2302
20122TIP3   OH281856   0.002   3.814   1.530  0.1558  0.0051 -0.3489
20122TIP3    H181857  -0.053   3.892   1.534  0.8394  0.5252 -0.8347
20122TIP3    H281858   0.016   3.800   1.436 -0.2574 -0.9193 -0.2816
20123TIP3   OH281859   1.732   6.752  16.845 -0.4254  0.1114  0.6761
20123TIP3    H181860   1.684   6.696  16.784 -1.0659  1.4662 -0.1090
20123TIP3    H281861   1.824   6.740  16.822 -0.5723 -0.3728  0.3188
20124TIP3   OH281862   1.434   1.727  15.306  0.4941 -0.1419 -0.0154
20124TIP3    H181863   1.339   1.722  15.299  0.5945 -3.0438 -0.5506
20124TIP3    H281864   1.450   1.795  15.373 -1.9142  0.3461  0.1453
20125TIP3   OH281865   6.457   5.361   2.288  0.3000 -0.7610  0.3059
20125TIP3    H181866   6.521   5.374   2.219 -1.4218  1.8020 -0.9772
20125TIP3    H281867   6.502   5.386   2.369  0.8982  1.1558 -0.5821
20126TIP3   OH281868   4.932   1.568   1.708  0.2973  0.4894 -0.4771
20126TIP3    H181869   4.971   1.611   1.632  0.9830  0.9807  0.1289
20126TIP3    H281870   4.874   1.634   1.746 -0.8656 -0.1108 -1.1534
20127TIP3   OH281871   3.405   2.759  16.449  0.3656 -0.3683 -0.2845
20127TIP3    H181872   3.390   2.730  16.359 -0.7876  0.0356 -0.2324
20127TIP3    H281873   3.482   2.709  16.477  0.5036 -0.7922 -1.3545
20128TIP3   OH281874   3.973   2.903   1.319  0.3059 -0.1694  0.4040
20128TIP3    H181875   3.894   2.906   1.373 -0.2170  0.4214 -0.3761
20128TIP3    H281876   3.943   2.929   1.231  1.0141 -1.6930 -0.3267
20129TIP3   OH281877   0.118   6.069  16.222 -0.2531  0.2537 -0.5157
20129TIP3    H181878   0.168   6.138  16.178  0.0093 -0.7873 -1.9306
20129TIP3    H281879   0.150   5.988  16.182 -0.8345 -0.6624  0.8285
20130TIP3   OH281880   4.942   2.875  13.792 -0.1337  0.1448 -0.0134
20130TIP3    H181881   4.857   2.884  13.834  1.0216  0.7706  2.4212
20130TIP3    H281882   4.979   2.795  13.829  1.2959  1.1963  1.0052
20131TIP3   OH281883   6.302   6.194   2.941  0.8117 -0.2792  0.0209
20131TIP3    H181884   6.332   6.120   2.994  2.9612  2.0458  2.3154
20131TIP3    H281885   6.241   6.241   2.997  1.7258  1.2530 -0.2213
20132TIP3   OH281886   6.449   3.267   3.747  0.5556  0.0744  0.3074
20132TIP3    H181887   6.468   3.312   3.665 -0.3491  0.8007  0.4945
20132TIP3    H281888   6.375   3.313   3.785 -0.5257 -1.6666  0.4294
20133TIP3   OH281889   5.168   1.746   1.421  0.3660 -0.1941 -0.1591
20133TIP3    H181890   5.085   1.785   1.449 -0.2550 -0.2660 -1.7953
20133TIP3    H281891   5.233   1.813   1.439 -0.0989  0.0396  0.7350
20134TIP3   OH281892   2.493   2.720   2.058  0.1518 -0.3516  0.6827
20134TIP3    H181893   2.549   2.642   2.055 -0.8755 -1.0976 -0.2700
20134TIP3    H281894   2.437   2.705   2.134 -0.4180 -0.8383  0.1811
20135TIP3   OH281895   5.104   6.526  12.602  0.4770 -0.0642 -0.0511
20135TIP3    H181896   5.195   6.510  12.579  0.9048 -0.4023  1.7371
20135TIP3    H281897   5.105   6.608  12.651 -0.1909 -0.0328 -0.0810
20136TIP3   OH281898   1.948   3.600  15.516 -0.3790 -0.0508  0.5015
20136TIP3    H181899   1.915   3.566  15.432  0.7361  1.0982 -0.4557
20136TIP3    H281900   1.877   3.656  15.547 -0.4252  0.2852 -0.1758
20137TIP3   OH281901   6.421   1.618   5.574 -0.1883  0.1589 -0.6160
20137TIP3    H181902   6.333   1.582   5.568 -0.2378  0.5449 -3.2930
20137TIP3    H281903   6.447   1.633   5.483  2.6547  0.0394  0.0916
20138TIP3   OH281904   4.181   2.728  12.375 -0.0435  0.3862 -0.5562
20138TIP3    H181905   4.183   2.722  12.279  0.7955 -1.5132 -0.4667
20138TIP3    H281906   4.189   2.821  12.393 -0.6463  0.8314 -2.3377
20139TIP3   OH281907   6.011   5.093  13.139  0.5422 -0.1018 -0.0763
20139TIP3    H181908   6.015   4.999  13.125  0.2270  0.1503 -2.1860
20139TIP3    H281909   6.101   5.123  13.131  0.5070 -0.0977 -0.4567
20140TIP3   OH281910   6.149   4.447  11.175 -0.0660  0.3077  0.9453
20140TIP3    H181911   6.110   4.468  11.090  0.4764  2.9260  1.2513
20140TIP3    H281912   6.232   4.405  11.153  0.2840  1.3674  0.1241
20141TIP3   OH281913   4.877   5.666   1.654 -0.1710 -0.0462  0.2707
20141TIP3    H181914   4.895   5.718   1.732 -0.8155 -0.4658  0.7060
20141TIP3    H281915   4.863   5.577   1.687 -0.0736 -0.3007 -0.3622
20142TIP3   OH281916   1.800   6.066  12.178  0.2672 -0.3578 -0.2245
20142TIP3    H181917   1.715   6.025  12.161 -0.1620  0.4578 -0.0567
20142TIP3    H281918   1.795   6.152  12.136  0.2754  0.5084  1.4693
20143TIP3   OH281919   6.445   2.961   0.891  0.1809 -0.1861 -0.1867
20143TIP3    H181920   6.373   2.973   0.828  0.7185  1.0995 -0.6037
20143TIP3    H281921   6.522   2.946   0.837  0.1641 -2.0915  0.2745
20144TIP3   OH281922   3.280   0.380  16.766 -0.4801  0.0897 -0.4788
20144TIP3    H181923   3.263   0.446  16.699 -0.0926  0.8840  0.1974
20144TIP3    H281924   3.369   0.349  16.748  0.2002  1.3785  0.5510
20145TIP3   OH281925   5.318   2.266  15.533  0.4102  0.4550 -0.0999
20145TIP3    H181926   5.389   2.232  15.587  0.1099 -0.6639 -0.3963
20145TIP3    H281927   5.359   2.288  15.449  0.6389  1.0398  0.1563
20146TIP3   OH281928   2.223   5.955   1.854  0.0363  0.4046  0.0486
20146TIP3    H181929   2.295   5.902   1.888  0.3728 -0.0234 -1.2872
20146TIP3    H281930   2.262   6.006   1.783 -0.6382  1.3084  0.3175
20147TIP3   OH281931   2.368   2.547   0.397 -0.6017  0.1026 -0.0526
20147TIP3    H181932   2.439   2.532   0.460 -0.9921 -0.7714  0.1900
20147TIP3    H281933   2.398   2.621   0.345  0.4343 -0.1669  0.1361
20148TIP3   OH281934   2.551   5.563   5.988 -0.9515  0.1459  0.0406
20148TIP3    H181935   2.611   5.602   6.052 -0.2542 -2.2570  0.9878
20148TIP3    H281936   2.587   5.588   5.903 -0.7978  1.8447  0.5706
20149TIP3   OH281937   1.372   4.648  11.296 -0.3409  0.4998 -0.6410
20149TIP3    H181938   1.341   4.659  11.206 -2.7438 -0.1064  0.0277
20149TIP3    H281939   1.399   4.557  11.301 -0.8685  0.3387 -0.5990
20150TIP3   OH281940   1.089   4.922   0.775  0.2258 -0.5058  0.0780
20150TIP3    H181941   1.106   4.862   0.847 -2.3665 -2.9083 -1.1152
20150TIP3    H281942   1.059   4.866   0.703 -2.8325  2.2018 -1.0181
20151TIP3   OH281943   1.495   2.941  15.923  0.7445  0.2900 -0.3050
20151TIP3    H181944   1.434   3.011  15.900 -0.5364 -0.0392  1.8131
20151TIP3    H281945   1.580   2.973  15.894 -0.2273  1.2837 -2.2785
20152TIP3   OH281946   3.697   5.584   2.377  0.6283  0.7949  0.6662
20152TIP3    H181947   3.728   5.674   2.384  3.9043 -0.2578  1.8007
20152TIP3    H281948   3.731   5.554   2.293 -0.4763  0.6163  0.2765
20153TIP3   OH281949   5.048   2.654   2.523  0.8041  0.1390  0.0331
20153TIP3    H181950   5.049   2.737   2.477  1.6132 -0.1356 -0.4592
20153TIP3    H281951   4.971   2.609   2.490  1.5056 -0.1513 -1.2389
20154TIP3   OH281952   4.653   0.440  11.525  0.0506  0.0353  0.3948
20154TIP3    H181953   4.576   0.430  11.469  1.0423  0.9076 -1.1930
20154TIP3    H281954   4.679   0.350  11.547 -0.3191 -0.3318 -0.6328
20155TIP3   OH281955   1.218   1.260  16.792 -0.5994 -0.1471  0.5156
20155TIP3    H181956   1.283   1.324  16.764 -1.5473  0.8554  0.5006
20155TIP3    H281957   1.148   1.313  16.830 -0.8198 -1.2783  1.7451
20156TIP3   OH281958   5.040   1.540  17.059  0.1064  0.7780  0.7109
20156TIP3    H181959   5.135   1.529  17.054  0.1875  1.8665 -1.6043
20156TIP3    H281960   5.027   1.612  17.121  0.5664 -0.8820  2.8644
20157TIP3   OH281961   2.505   4.958   1.866  0.2558 -0.4872  0.6590
20157TIP3    H181962   2.554   4.908   1.800  2.1600  0.5610  1.1946
20157TIP3    H281963   2.475   5.036   1.820 -0.1155 -0.6850  0.5623
20158TIP3   OH281964   2.001   1.688  11.318 -0.0933  0.8672  0.2858
20158TIP3    H181965   2.096   1.697  11.319  0.1767 -1.2854 -0.4737
20158TIP3    H281966   1.986   1.594  11.305 -2.3198  0.8377  2.2869
20159TIP3   OH281967   0.116   1.446   5.007  0.1196  1.0547  0.1518
20159TIP3    H181968   0.133   1.391   4.931  0.0146  1.0422  0.1363
20159TIP3    H281969   0.175   1.413   5.075 -1.7328 -0.7953  0.9659
20160TIP3   OH281970   1.877   1.921  16.249 -0.2039 -0.1211 -0.6038
20160TIP3    H181971   1.795   1.962  16.221 -0.2540 -0.9129 -1.6742
20160TIP3    H281972   1.851   1.858  16.315 -0.6093 -1.0546 -1.6209
20161TIP3   OH281973   0.038   2.960  15.941 -0.3318  0.0311  0.2120
20161TIP3    H181974   0.100   2.886  15.948  0.8318  1.0327  0.8753
20161TIP3    H281975   0.046   3.006  16.024 -1.6642  0.4503  0.1259
20162TIP3   OH281976   2.360   4.895  15.969  0.0727 -0.3611 -0.2718
20162TIP3    H181977   2.293   4.828  15.986 -0.3598 -0.9191 -3.5627
20162TIP3    H281978   2.321   4.952  15.903  1.0542  2.3057  1.2929
20163TIP3   OH281979   3.184   6.376   2.372 -0.4290 -0.1704  0.1892
20163TIP3    H181980   3.178   6.358   2.278 -1.0892 -1.0967  0.3979
20163TIP3    H281981   3.240   6.453   2.378  1.6316 -1.5158 -0.8038
20164TIP3   OH281982   4.039   1.113   4.975  0.3954 -0.3717  0.3357
20164TIP3    H181983   4.064   1.205   4.977  0.5430 -0.3147 -1.8778
20164TIP3    H281984   3.944   1.113   4.987  0.3448  0.0954 -0.0597
20165TIP3   OH281985   2.722   0.176  11.927 -0.2186  0.2243 -0.1627
20165TIP3    H181986   2.729   0.258  11.877 -0.3033  0.0845 -0.4022
20165TIP3    H281987   2.799   0.177  11.983 -0.3320  0.5758 -0.0066
20166TIP3   OH281988   3.166   0.817  15.440  0.1309  0.4968  0.1709
20166TIP3    H181989   3.144   0.749  15.376 -0.0196 -0.8297  1.5588
20166TIP3    H281990   3.141   0.779  15.524  1.0921  1.8436  1.1050
20167TIP3   OH281991   6.284   6.150   5.776 -0.1875 -0.0060  0.0810
20167TIP3    H181992   6.257   6.241   5.789  2.1744  0.8139 -0.2192
20167TIP3    H281993   6.341   6.131   5.851 -1.7762 -1.7831  0.9359
20168TIP3   OH281994   2.427   0.909   0.149  0.1224  0.1652  0.3701
20168TIP3    H181995   2.458   1.000   0.151  0.3412  0.0869  0.5856
20168TIP3    H281996   2.355   0.910   0.086  0.7537  0.2984 -0.3799
20169TIP3   OH281997   2.815   3.421   4.129  0.4519  0.2889 -0.1755
20169TIP3    H181998   2.734   3.426   4.180  0.6945  0.7586  0.1749
20169TIP3    H281999   2.786   3.423   4.038  0.0413 -0.0355 -0.0570
20170TIP3   OH282000   1.187   0.335   4.051  0.6075 -0.0417 -0.2232
20170TIP3    H182001   1.170   0.402   4.117 -0.2770 -0.1439 -0.3274
20170TIP3    H282002   1.207   0.256   4.102 -0.4406 -0.2132 -0.0536
20171TIP3   OH282003   5.711   2.430  16.119 -0.2317 -0.6296  0.1503
20171TIP3    H182004   5.788   2.448  16.172  0.2800 -3.1203  0.3924
20171TIP3    H282005   5.643   2.408  16.183 -0.7610  0.2445 -0.1079
20172TIP3   OH282006   1.779   5.250   4.239  0.0822  0.1162  0.4193
20172TIP3    H182007   1.865   5.221   4.268 -0.2074 -0.2607  0.9444
20172TIP3    H282008   1.739   5.287   4.318 -0.0725  0.6892  0.0771
20173TIP3   OH282009   3.796   0.283  15.250  0.0141 -0.8603  0.1895
20173TIP3    H182010   3.881   0.275  15.292 -0.5950  0.3682  1.7375
20173TIP3    H282011   3.816   0.278  15.156  1.8039 -0.3720  0.4996
20174TIP3   OH282012   6.599   3.728   6.183  0.1183 -0.2400 -0.5378
20174TIP3    H182013   6.562   3.642   6.164 -1.1732 -0.1149  1.1902
20174TIP3    H282014   6.675   3.709   6.238  0.7530 -0.3212 -1.4123
20175TIP3   OH282015   5.144   1.234   0.920  0.0344 -0.2831 -0.1056
20175TIP3    H182016   5.198   1.275   0.854 -0.2644 -0.5160 -0.4976
20175TIP3    H282017   5.199   1.164   0.957  0.5540  0.4671  0.5856
20176TIP3   OH282018   4.081   2.572  17.255 -0.3090 -0.0679  0.4159
20176TIP3    H182019   4.053   2.653  17.300  0.5751 -0.1545  1.1583
20176TIP3    H282020   4.175   2.566  17.274 -0.1219 -0.6326 -0.6619
20177TIP3   OH282021   5.688   5.765  13.822  0.2753 -0.2250 -0.3128
20177TIP3    H182022   5.668   5.684  13.774  1.0037  0.0304 -1.0862
20177TIP3    H282023   5.777   5.751  13.854 -0.2265 -0.4113  1.0380
20178TIP3   OH282024   5.269   6.644   0.019 -0.2785 -0.3290  0.1876
20178TIP3    H182025   5.287   6.694   0.098 -0.9431 -0.6362  0.5484
20178TIP3    H282026   5.178   6.665  -0.002  0.0946  0.2912 -0.9026
20179TIP3   OH282027   3.595   5.451   5.875 -0.5098 -0.5421  0.5893
20179TIP3    H182028   3.678   5.483   5.840 -0.5287 -0.1652  0.8828
20179TIP3    H282029   3.604   5.460   5.970 -1.1337  0.1425  0.5972
20180TIP3   OH282030   2.080   6.234  11.117  0.6361  0.0173 -0.0358
20180TIP3    H182031   2.006   6.177  11.136  1.7637 -1.0313  1.4494
20180TIP3    H282032   2.148   6.208  11.180  1.9826  1.4970 -0.7861
20181TIP3   OH282033   3.173   3.255  15.518 -0.1973 -0.4647 -0.0756
20181TIP3    H182034   3.161   3.242  15.424  1.1538 -1.2368 -0.1515
20181TIP3    H282035   3.171   3.167  15.556 -0.5702 -0.1725  0.6113
20182TIP3   OH282036   4.419   6.675  12.675 -0.1303 -0.0381  0.1647
20182TIP3    H182037   4.499   6.649  12.629 -1.2116 -0.3405 -1.6430
20182TIP3    H282038   4.444   6.750  12.728  1.2360  0.2110 -0.7973
20183TIP3   OH282039   2.746   3.770  11.600 -0.2769  0.0165 -0.0108
20183TIP3    H182040   2.740   3.779  11.505 -1.3957  1.7446  0.1760
20183TIP3    H282041   2.753   3.676  11.615  0.8516 -0.2444 -1.8204
20184TIP3   OH282042   6.375   3.550  14.114  0.1786 -0.2320  0.7460
20184TIP3    H182043   6.415   3.492  14.179 -0.8673 -0.9827  0.7481
20184TIP3    H282044   6.426   3.537  14.035 -0.7372 -2.0714  0.4113
20185TIP3   OH282045   0.906   3.069  11.516 -0.5988  0.0392 -0.1041
20185TIP3    H182046   0.970   3.106  11.456 -1.0776  0.3445 -0.4294
20185TIP3    H282047   0.865   3.145  11.557  0.9851 -0.1173  2.0111
20186TIP3   OH282048   3.204   1.243  14.175 -0.8518 -0.1034 -0.4236
20186TIP3    H182049   3.289   1.200  14.175 -0.1239  1.1806  1.5585
20186TIP3    H282050   3.207   1.303  14.101  0.5392  0.8739  0.3743
20187TIP3   OH282051   6.284   3.066  16.384  0.0277  0.1692  0.6811
20187TIP3    H182052   6.242   3.095  16.465 -0.9039  1.0136 -0.0723
20187TIP3    H282053   6.311   3.147  16.340 -1.1449 -0.1363 -0.6997
20188TIP3   OH282054   0.393   2.783   6.164  0.0051  0.6813  0.6870
20188TIP3    H182055   0.476   2.830   6.153  0.7361 -0.3555  1.5388
20188TIP3    H282056   0.395   2.752   6.254 -1.3473  0.6680  0.7312
20189TIP3   OH282057   0.403   1.891  17.312  0.0201 -0.4393 -0.1890
20189TIP3    H182058   0.339   1.959  17.334 -1.0520 -1.2429 -0.7421
20189TIP3    H282059   0.426   1.851  17.396 -0.2856 -0.2139  0.0014
20190TIP3   OH282060   1.112   4.072   4.598 -0.1512  1.2728 -0.1379
20190TIP3    H182061   1.069   4.128   4.533 -0.2785  2.3259  0.8334
20190TIP3    H282062   1.151   4.002   4.546 -0.0288  2.2223 -1.3923
20191TIP3   OH282063   0.381   0.529   2.136  0.0126 -0.1052  0.0720
20191TIP3    H182064   0.307   0.490   2.184 -1.2441 -0.2422 -1.8780
20191TIP3    H282065   0.437   0.455   2.114  0.1518 -0.1498  0.5572
20192TIP3   OH282066   3.774   2.596  15.431 -0.3422 -1.2153 -0.4443
20192TIP3    H182067   3.720   2.517  15.430 -2.6720  0.2104  1.6483
20192TIP3    H282068   3.712   2.667  15.413  0.8201  0.4849  1.7891
20193TIP3   OH282069   5.356   2.465  13.511 -0.2334 -0.5545 -0.3330
20193TIP3    H182070   5.290   2.514  13.462  0.1206  0.2001 -0.0544
20193TIP3    H282071   5.306   2.394  13.552 -0.3412 -2.0467 -2.8430
20194TIP3   OH282072   3.757   1.951  11.275  0.3878 -0.5343  0.3422
20194TIP3    H182073   3.798   2.030  11.311  0.0885 -0.7576  1.1923
20194TIP3    H282074   3.672   1.982  11.243  0.0234 -0.6042  1.2048
20195TIP3   OH282075   0.631   6.629   6.292 -0.0260 -0.5212  0.6230
20195TIP3    H182076   0.595   6.697   6.349  0.0892  0.3076 -0.2727
20195TIP3    H282077   0.575   6.631   6.214  0.0904 -1.3328  0.5040
20196TIP3   OH282078   4.771   1.812   0.707 -0.2849  0.1109 -0.2232
20196TIP3    H182079   4.745   1.731   0.663 -1.3346  0.7216 -0.7590
20196TIP3    H282080   4.762   1.793   0.800  0.5225 -0.7191 -0.3001
20197TIP3   OH282081   1.450   2.896  16.571 -0.4027 -0.1789  0.1147
20197TIP3    H182082   1.477   2.881  16.481 -2.3385 -1.4261 -0.3190
20197TIP3    H282083   1.470   2.814  16.616  2.1317  0.9713  1.3354
20198TIP3   OH282084   5.752   3.187   3.681  0.4654 -0.3317  0.3478
20198TIP3    H182085   5.732   3.209   3.772  0.0983  1.0820 -0.0357
20198TIP3    H282086   5.847   3.192   3.676  0.6547 -2.3611  1.0787
20199TIP3   OH282087   5.443   5.053   3.034  0.0215  0.4450 -0.2189
20199TIP3    H182088   5.420   4.962   3.015  1.5107  0.2192 -1.1190
20199TIP3    H282089   5.359   5.099   3.038 -0.6873 -0.6788 -1.3798
20200TIP3   OH282090   1.654   1.337   2.134  0.4999  0.4041  0.2630
20200TIP3    H182091   1.584   1.284   2.095  0.0012  1.5592 -0.4626
20200TIP3    H282092   1.734   1.309   2.090 -0.0167  1.5064 -1.4880
20201TIP3   OH282093   0.602   6.648  14.214 -0.8878 -0.0867  0.0706
20201TIP3    H182094   0.663   6.660  14.287  1.8785  0.9617 -2.2068
20201TIP3    H282095   0.568   6.559  14.226 -1.1176  0.2969  2.9511
20202TIP3   OH282096   3.895   4.063   1.525 -0.4123  0.0506  0.1964
20202TIP3    H182097   3.933   4.151   1.525 -1.4166  0.5042 -0.8663
20202TIP3    H282098   3.965   4.007   1.491  0.8037  0.1389  2.3955
20203TIP3   OH282099   6.156   4.584  12.552 -0.3152  0.1967  0.1277
20203TIP3    H182100   6.097   4.660  12.560  0.2505  0.5351  1.2577
20203TIP3    H282101   6.100   4.508  12.565 -0.8244  0.4320 -0.6465
20204TIP3   OH282102   2.908   3.833   4.107  0.1379  0.3117  0.0251
20204TIP3    H182103   2.991   3.828   4.059  1.1543  0.4893  1.6643
20204TIP3    H282104   2.842   3.809   4.043  1.6558 -1.9345 -0.8342
20205TIP3   OH282105   1.325   6.023  11.152  0.0775  0.0572 -0.2669
20205TIP3    H182106   1.345   6.111  11.119 -2.4082  0.9879  0.4992
20205TIP3    H282107   1.236   6.029  11.185 -0.1616 -2.7737 -0.1330
20206TIP3   OH282108   1.509   3.789   0.708 -0.0758  0.2990  0.1150
20206TIP3    H182109   1.422   3.758   0.735  0.1219  0.9472  1.6114
20206TIP3    H282110   1.532   3.734   0.633 -2.4189  1.1203 -1.3092
20207TIP3   OH282111   3.949   2.643   0.409 -0.0015  0.0937 -0.1707
20207TIP3    H182112   4.038   2.673   0.392  0.7027 -1.1265  1.1363
20207TIP3    H282113   3.893   2.704   0.362  1.5505  0.4065 -1.6893
20208TIP3   OH282114   4.292   0.884  16.621 -0.2141 -0.0727  0.0990
20208TIP3    H182115   4.197   0.870  16.615 -0.1130 -0.0503 -2.1465
20208TIP3    H282116   4.304   0.977  16.603  0.2520 -0.0251  0.6108
20209TIP3   OH282117   4.743   0.070   0.819 -0.0567  0.0754  0.1198
20209TIP3    H182118   4.696   0.152   0.801 -0.0436  0.3443  1.2491
20209TIP3    H282119   4.836   0.094   0.813 -0.0534  0.1188  0.3411
20210TIP3   OH282120   2.079   5.904   3.000 -0.2259 -0.5286  0.5388
20210TIP3    H182121   2.038   5.839   3.058  0.9685 -1.1898  0.6732
20210TIP3    H282122   2.168   5.912   3.033  0.4881 -0.9227 -1.2031
20211TIP3   OH282123   5.565   1.430  12.355  0.5184  0.1036  0.2621
20211TIP3    H182124   5.509   1.473  12.290 -1.4902  0.8390  2.3512
20211TIP3    H282125   5.525   1.344  12.367  0.3681  0.2770  1.0701
20212TIP3   OH282126   1.285   6.079   6.176  0.9470  0.0751 -0.1814
20212TIP3    H182127   1.314   6.170   6.181  1.4913 -0.1763  1.6711
20212TIP3    H282128   1.365   6.027   6.180  0.5415 -0.5256  0.3485
20213TIP3   OH282129   4.831   2.435  12.242 -0.4044  0.1772 -0.1152
20213TIP3    H182130   4.835   2.527  12.214 -0.2325 -0.3139 -1.8834
20213TIP3    H282131   4.893   2.429  12.314  1.0325  1.0945 -1.2115
20214TIP3   OH282132   3.685   3.544   0.758  0.1965 -0.4771  0.2601
20214TIP3    H182133   3.636   3.477   0.806 -0.3493  0.5779  1.2474
20214TIP3    H282134   3.761   3.562   0.812 -1.1829  1.8005  1.6294
20215TIP3   OH282135   5.597   4.454   3.509  0.4769 -0.1113 -0.2514
20215TIP3    H182136   5.532   4.385   3.497  1.4071 -1.5526  2.2543
20215TIP3    H282137   5.585   4.511   3.434 -2.6366 -1.1295 -0.6731
20216TIP3   OH282138   2.193   1.800  15.094 -0.4533 -0.3054 -0.0095
20216TIP3    H182139   2.243   1.873  15.132 -0.6507 -0.4415  0.5226
20216TIP3    H282140   2.249   1.724  15.109  0.1841 -0.1340 -1.4111
20217TIP3   OH282141   2.873   0.967  11.328  0.0275 -0.2076  0.0755
20217TIP3    H182142   2.928   0.891  11.346  0.6349  0.4714  1.1693
20217TIP3    H282143   2.930   1.028  11.283  0.3441  0.6782  1.5993
20218TIP3   OH282144   4.346   0.509  16.866  0.2191 -0.6460  0.0690
20218TIP3    H182145   4.404   0.584  16.851  1.5028 -1.1601  2.1379
20218TIP3    H282146   4.403   0.433  16.859 -0.8077 -1.3791 -0.6769
20219TIP3   OH282147   2.300   2.883  15.194 -0.3960 -0.1377 -0.1078
20219TIP3    H182148   2.222   2.882  15.249 -0.2423  3.0417  0.3474
20219TIP3    H282149   2.271   2.925  15.113  0.2293 -1.4942 -1.0722
20220TIP3   OH282150   3.782   4.099   3.981 -0.3230 -0.0689 -0.1710
20220TIP3    H182151   3.702   4.099   3.928 -0.9361 -1.6545  0.6829
20220TIP3    H282152   3.782   4.185   4.023 -0.6417  0.6218 -1.5115
20221TIP3   OH282153   6.595   5.310  13.973 -0.6122 -0.1770  0.4497
20221TIP3    H182154   6.657   5.304  14.046 -0.1707  0.8693  0.1756
20221TIP3    H282155   6.646   5.282  13.896 -0.3887  0.8745  0.1914
20222TIP3   OH282156   6.010   5.116   4.566  0.1997 -0.0333 -0.1247
20222TIP3    H182157   5.930   5.088   4.521  0.8579 -0.7611 -0.8730
20222TIP3    H282158   6.069   5.144   4.495  1.1624 -0.9694  0.2765
20223TIP3   OH282159   2.499   5.983  12.663 -0.1430  0.0737 -0.3501
20223TIP3    H182160   2.515   5.956  12.572 -0.8014 -1.3539 -0.0763
20223TIP3    H282161   2.573   6.039  12.685  0.2148  0.1426 -1.6560
20224TIP3   OH282162   0.105   2.973  14.127  0.0416  0.6369  0.2140
20224TIP3    H182163   0.090   2.909  14.057 -1.1936  1.2001 -0.0629
20224TIP3    H282164   0.032   3.035  14.120  0.6345  1.4835  1.1448
20225TIP3   OH282165   0.999   2.512  15.808  0.1367 -0.8508 -0.7674
20225TIP3    H182166   0.961   2.537  15.892  2.4321 -1.3743  0.5066
20225TIP3    H282167   0.966   2.423  15.792 -3.4350  0.5777 -2.4823
20226TIP3   OH282168   4.469   0.859  10.891 -0.6127 -0.7294  0.0380
20226TIP3    H182169   4.544   0.807  10.864 -0.3269 -0.6240  0.6251
20226TIP3    H282170   4.500   0.950  10.885 -1.1932 -0.5967 -1.2519
20227TIP3   OH282171   1.324   0.694   4.462 -0.2135 -0.2111  0.3105
20227TIP3    H182172   1.377   0.695   4.542  0.9315 -3.4554 -0.2531
20227TIP3    H282173   1.380   0.651   4.397 -2.4177 -0.9118 -1.2383
20228TIP3   OH282174   4.868   6.771  13.497 -0.1697 -0.1967 -0.2666
20228TIP3    H182175   4.900   6.739  13.582 -0.5364 -1.0233 -0.4264
20228TIP3    H282176   4.781   6.805  13.516  0.0548  0.3352 -0.1737
20229TIP3   OH282177   2.100   1.518  16.619 -0.0812 -0.2031  0.1041
20229TIP3    H182178   2.141   1.518  16.533 -0.1664  1.0164  0.0510
20229TIP3    H282179   2.025   1.576  16.610 -0.6078 -0.7727  0.7650
20230TIP3   OH282180   2.517   0.186  11.173 -0.1962 -0.3738  0.5209
20230TIP3    H182181   2.486   0.181  11.264 -0.6015  1.2633  0.5014
20230TIP3    H282182   2.441   0.159  11.121  0.0442 -1.3385  0.6584
20231TIP3   OH282183   3.404   3.946   3.863  0.5642  0.4635  0.9543
20231TIP3    H182184   3.368   4.030   3.838  0.8392  0.5086  0.7106
20231TIP3    H282185   3.328   3.893   3.887  0.2657  0.3104 -0.2841
20232TIP3   OH282186   5.959   6.548   6.025  0.0038  0.2635  0.0495
20232TIP3    H182187   6.046   6.515   6.045 -0.3233 -0.3871  0.4531
20232TIP3    H282188   5.900   6.487   6.069 -0.6437  0.9276  0.1229
20233TIP3   OH282189   6.581   4.456   4.415 -0.0443 -0.7538  0.4537
20233TIP3    H182190   6.587   4.362   4.399 -0.0663 -0.7485  0.4121
20233TIP3    H282191   6.587   4.465   4.510  0.2927 -0.7687  0.4320
20234TIP3   OH282192   3.079   1.218   4.564 -0.2764 -0.4116  0.0966
20234TIP3    H182193   3.044   1.237   4.477 -2.4818  0.4987  1.1061
20234TIP3    H282194   3.149   1.281   4.577  1.2025 -1.6139 -1.6025
20235TIP3   OH282195   0.272   2.860   4.583 -0.0051 -0.0892  0.2203
20235TIP3    H182196   0.321   2.788   4.624  0.7877 -0.5289 -1.4152
20235TIP3    H282197   0.234   2.821   4.504  0.5193  1.2960 -0.7550
20236TIP3   OH282198   2.462   2.770  16.137 -0.4343 -0.3212  0.0995
20236TIP3    H182199   2.416   2.769  16.053  0.4143  0.8044 -0.4124
20236TIP3    H282200   2.555   2.781  16.113 -0.3105  1.5203  1.1796
20237TIP3   OH282201   6.681   5.405  13.259  0.4093 -0.3011  0.1944
20237TIP3    H182202   6.758   5.462  13.251  0.8990 -0.9047  0.5549
20237TIP3    H282203   6.610   5.455  13.217  1.3505 -0.4141 -1.6231
20238TIP3   OH282204   0.383   3.517   4.414 -0.0951 -0.3929  0.1766
20238TIP3    H182205   0.461   3.465   4.396 -0.9405 -2.3709  1.8929
20238TIP3    H282206   0.402   3.560   4.497 -1.4057 -2.1965  1.4610
20239TIP3   OH282207   0.655   4.655   6.024  0.5253  0.0190  0.8205
20239TIP3    H182208   0.603   4.653   5.943  0.3974 -0.3701  0.9095
20239TIP3    H282209   0.601   4.607   6.088  0.2887  0.9463  1.3389
20240TIP3   OH282210   3.107   4.173  17.084 -0.1408 -0.1430 -0.5042
20240TIP3    H182211   3.049   4.193  17.010 -0.6348  2.3516  0.4438
20240TIP3    H282212   3.189   4.219  17.064 -0.4885  1.0860  0.6887
20241TIP3   OH282213   6.386   3.688  16.695 -0.9115 -0.3822  0.5703
20241TIP3    H182214   6.307   3.711  16.646 -0.8548 -0.9959  0.1667
20241TIP3    H282215   6.371   3.719  16.784 -1.4094 -0.0766  0.3782
20242TIP3   OH282216   3.319   1.200  14.562 -0.1100  0.4156 -0.8135
20242TIP3    H182217   3.238   1.176  14.608  0.8236  2.0327  1.8587
20242TIP3    H282218   3.348   1.280  14.604  2.5873  0.2415 -2.1462
20243LIG     O182219   3.440   3.153  16.696 -0.0797  1.1387 -0.2513
20243LIG     O282220   3.587   3.577  16.231  0.1143  0.0644  0.5782
20243LIG     O382221   3.740   3.336  16.363  0.6465  0.5942 -0.1590
20243LIG     O482222   3.537   3.812  16.294  0.2965  0.2642  0.4995
20243LIG     O582223   3.658   3.264  16.785  0.5350 -0.2575  0.0216
20243LIG     O682224   3.441   4.078  16.349 -0.2679  0.4303  0.4958
20243LIG      N82225   3.411   3.102  16.359  0.3228  0.6837  0.3400
20243LIG     C182226   3.373   3.336  16.402  0.0560 -0.0918  0.1508
20243LIG     C282227   3.506   3.390  16.346 -0.0826 -0.1975 -0.0911
20243LIG     C382228   3.306   3.440  16.504 -0.1365  0.5464  0.0880
20243LIG     C482229   3.377   3.199  16.468  0.1237  0.4506  0.5279
20243LIG     C582230   3.327   3.585  16.489 -0.2245  0.2241  0.0116
20243LIG     C682231   3.511   3.539  16.325  0.4023  0.4096  0.3435
20243LIG     C782232   3.425   3.638  16.403 -0.1237  0.4226  0.4476
20243LIG     C882233   3.629   3.332  16.419  0.1685  0.0079  1.0706
20243LIG     C982234   3.486   3.208  16.578 -0.3341  0.4292  0.5804
20243LIG    C1082235   3.605   3.273  16.557 -0.8153 -0.1927  0.4881
20243LIG    C1182236   3.246   3.675  16.566 -0.1949  0.2759 -0.1304
20243LIG    C1282237   3.431   3.777  16.386 -0.6240 -0.2728  0.2581
20243LIG    C1382238   3.246   3.811  16.535  0.2555 -0.1316  0.0082
20243LIG    C1482239   3.341   3.867  16.446 -0.5505  0.3201 -0.3256
20243LIG    C1582240   3.151   3.618  16.669  0.1517  0.5005 -0.2931
20243LIG    C1682241   3.695   3.281  16.669  0.0668 -0.1904 -0.1959
20243LIG    C1782242   3.350   4.009  16.432  0.8588 -0.7416 -0.5256
20243LIG    C1882243   3.158   3.899  16.608 -0.0368 -0.7561 -0.5066
20243LIG    C1982244   3.270   4.090  16.513  0.1041 -0.2524 -0.5050
20243LIG    C2082245   3.168   4.038  16.597  0.0578  0.8572 -0.6941
20243LIG    C2182246   3.837   3.319  16.643 -0.2264 -0.0263  0.1005
20243LIG    C2282247   3.371   3.030  16.707 -0.2847 -0.1772  0.4365
20243LIG    C2382248   3.271   4.242  16.497 -0.1587 -0.2258 -0.6306
20243LIG     H182249   3.301   3.338  16.316  3.6129  1.4518 -3.0672
20243LIG     H282250   3.522   3.355  16.242  0.5060 -0.9715  0.2562
20243LIG     H382251   3.341   3.426  16.608  0.7206  0.8360 -0.1502
20243LIG     H482252   3.196   3.425  16.510 -0.0159 -0.8057 -0.6239
20243LIG     H582253   3.274   3.185  16.506  0.5598  1.2366  2.0912
20243LIG     H682254   3.344   3.104  16.283 -0.2667 -0.1349  0.8301
20243LIG     H782255   3.420   3.004  16.381  0.4986  1.3657  3.8476
20243LIG     H882256   3.166   3.512  16.695 -0.4058  0.5883  0.3877
20243LIG     H982257   3.045   3.619  16.633 -0.4335  1.1749  1.3800
20243LIG    H1082258   3.157   3.681  16.760  0.3910  0.4044 -0.2447
20243LIG    H1182259   3.091   3.859  16.682 -0.9314  0.7504 -0.4606
20243LIG    H1282260   3.499   3.891  16.254 -3.0114 -1.1592  0.4579
20243LIG    H1382261   3.112   4.100  16.665  0.3941  0.7726 -0.3378
20243LIG    H1482262   3.893   3.298  16.737  0.5368 -2.3170 -0.7850
20243LIG    H1582263   3.849   3.425  16.612 -0.4129  0.3150  1.1724
20243LIG    H1682264   3.879   3.251  16.566  1.3431  1.9861 -0.9363
20243LIG    H1782265   3.386   3.002  16.813  1.0992  1.7535  0.8126
20243LIG    H1882266   3.411   2.951  16.640 -1.5892 -0.4504 -0.0555
20243LIG    H1982267   3.262   3.037  16.687 -0.4527  1.2573  1.5972
20243LIG    H2082268   3.255   4.251  16.388  0.6586 -0.0058 -0.7349
20243LIG    H2182269   3.360   4.295  16.537 -0.6980  0.4642 -0.3202
20243LIG    H2282270   3.189   4.287  16.557  0.0949 -1.5025  0.7309
20243LIG    H2382271   3.455   4.167  16.384 -1.0378  0.0011  1.9974
   6.82246   6.82246  17.31225
